                              Psi4 1.0.54 Driver

  ==> Input File <==

--------------------------------------------------------------------------
set {
	reference rhf
	basis cc-pvtz
}

set_num_threads( 4 )
memory 2 gb

molecule MOL {
0 1

O	 -2.071633	 -1.227563	 -0.223463
C	 -1.652164	 -0.152425	 0.058082
C	 -0.327811	 0.006324	 0.778296
C	 -2.402515	 1.108629	 -0.298924
C	 0.843231	 -0.001575	 -0.211665
H	 -0.319484	 0.928173	 1.350354
H	 -0.227804	 -0.823091	 1.466705
C	 0.412407	 -0.359746	 -1.630938
H	 1.600903	 -0.706818	 0.120387
H	 1.308279	 0.978258	 -0.207071
C	 1.571707	 -0.356555	 -2.621481
H	 -0.058065	 -1.339121	 -1.628476
H	 -0.346723	 0.343357	 -1.960949
H	 2.332324	 -1.076011	 -2.337089
H	 2.042245	 0.619501	 -2.669199
H	 1.233733	 -0.610208	 -3.619396
H	 -3.240910	 0.874416	 -0.936711
H	 -1.747554	 1.818823	 -0.790984
H	 -2.760419	 1.579708	 0.610998

	symmetry c1
}
set optking {
	frozen_dihedral = ("
		9 5 3 2
	")
}

ee,wfn = optimize('scf', return_wfn=True)
oeprop( wfn, 'DIPOLE', 'QUADRUPOLE', 'MULLIKEN_CHARGES')
f=open( 'psi4out.xyz', 'w' )
f.write( "19  " )
f.write( str(ee) + "\n" )
f.write( MOL.save_string_xyz() )
f.close()
--------------------------------------------------------------------------

    Molecular point group: c1
  Charge       = 0
  Multiplicity = 1
  Basis Set: CC-PVTZ
  Basis Set:
  @DF-RHF Final Energy:  -309.16498374624746
    Total Energy =                       -309.1649837462473442
    Molecular point group: c1
  Basis Set: CC-PVTZ
  Basis Set:
  Basis Set: CC-PVTZ
  Basis Set:
  @DF-RHF Final Energy:  -309.16760494029933
    Total Energy =                       -309.1676049402994977
  Basis Set: CC-PVTZ
  Basis Set:
  Basis Set: CC-PVTZ
  Basis Set:
  @DF-RHF Final Energy:  -309.16750396467637
    Total Energy =                       -309.1675039646760865
  Basis Set: CC-PVTZ
  Basis Set:
  Basis Set: CC-PVTZ
  Basis Set:
  @DF-RHF Final Energy:  -309.16868501742107
    Total Energy =                       -309.1686850174210690
  Basis Set: CC-PVTZ
  Basis Set:
  @DF-RHF Final Energy:  -309.16874824020164
    Total Energy =                       -309.1687482402013529
  @DF-RHF Final Energy:  -309.16876251862283
    Total Energy =                       -309.1687625186223158
  Basis Set: CC-PVTZ
  Basis Set:
  @DF-RHF Final Energy:  -309.16877068192497
    Total Energy =                       -309.1687706819255936
  Basis Set: CC-PVTZ
  Basis Set:
  Basis Set: CC-PVTZ
  Basis Set:
  @DF-RHF Final Energy:  -309.16877703197667
    Total Energy =                       -309.1687770319765605
  Basis Set: CC-PVTZ
  Basis Set:
  Basis Set: CC-PVTZ
  Basis Set:
  @DF-RHF Final Energy:  -309.16877924108951
    Total Energy =                       -309.1687792410893962
  Basis Set: CC-PVTZ
  Basis Set:
  Charge       = 0
  Multiplicity = 1
  Basis Set: CC-PVTZ
  Basis Set:

    Orbital Energies (a.u.)
    -----------------------

    Doubly Occupied:

       1A    -20.536758     2A    -11.319795     3A    -11.229753
       4A    -11.228065     5A    -11.226633     6A    -11.219331
       7A    -11.211411     8A     -1.397346     9A     -1.088078
      10A     -1.027470    11A     -0.983737    12A     -0.891649
      13A     -0.812571    14A     -0.725874    15A     -0.661022
      16A     -0.643532    17A     -0.624402    18A     -0.619085
      19A     -0.580077    20A     -0.573347    21A     -0.561015
      22A     -0.541478    23A     -0.509889    24A     -0.496038
      25A     -0.486035    26A     -0.467866    27A     -0.465389
      28A     -0.399302

  @DF-RHF Final Energy:  -309.16877950529374

   => Energetics <=

    Nuclear Repulsion Energy =            310.0242907904407730
    One-Electron Energy =               -1033.3322436113708136
    Two-Electron Energy =                 414.1391733156358441
    DFT Exchange-Correlation Energy =       0.0000000000000000
    Empirical Dispersion Energy =           0.0000000000000000
    PCM Polarization Energy =               0.0000000000000000
    EFP Energy =                            0.0000000000000000
    Total Energy =                       -309.1687795052941965
    Molecular point group: c1
  Basis Set: CC-PVTZ
  Basis Set:

  -Total Gradient:
     Atom            X                  Y                   Z
    ------   -----------------  -----------------  -----------------
       1        0.000010136091    -0.000006137451     0.000007882178
       2        0.000183960998    -0.002536265149     0.000204557801
       3       -0.000622421553     0.003070029864    -0.000676901315
       4       -0.000015085422    -0.000027030318     0.000046103940
       5        0.002054411501     0.001996909399     0.002132273391
       6       -0.000001217071    -0.000001934522    -0.000002933093
       7        0.000002686213     0.000001767465    -0.000004236345
       8       -0.000019638252    -0.000003587900     0.000006115907
       9       -0.001638100849    -0.002507439164    -0.001679346283
      10       -0.000000807321     0.000000313648     0.000003859344
      11        0.000010353352     0.000006614820    -0.000004284302
      12       -0.000003520080    -0.000004061315    -0.000000050233
      13        0.000012071402    -0.000009119029    -0.000002439574
      14       -0.000001791965    -0.000000894177    -0.000001927557
      15        0.000002133586    -0.000000059802     0.000000811618
      16       -0.000000347468     0.000002266023    -0.000000827234
      17        0.000007489811     0.000001151766    -0.000005967799
      18        0.000008418217     0.000003102978    -0.000010328792
      19        0.000011268809     0.000014372865    -0.000012361650

  **** Optimization is complete! (in 10 steps) ****
    Final optimized geometry and variables:
    Molecular point group: c1

    Geometry (in Angstrom), charge = 0, multiplicity = 1:

    O           -1.653153012334    -1.064740478836     0.657724129062
    C           -1.157449381277     0.007740900717     0.778903483286
    C            0.251456157865     0.168138990890     1.319444064948
    C           -1.913901875079     1.268628303168     0.431009223197
    C            1.374551878606     0.153757212581     0.242034425624
    H            0.311799945511     1.084992036886     1.893522302803
    H            0.400444869799    -0.656564764857     2.002211559044
    C            0.958715367150    -0.247483525613    -1.175248309280
    H            2.129351434805    -0.553900244155     0.563062531079
    H            1.850040556629     1.127082903180     0.205420718596
    C            2.147615337778    -0.277455012520    -2.129918777393
    H            0.485948017205    -1.222163376791    -1.153351059127
    H            0.215477910003     0.443874064724    -1.560881331229
    H            2.895938769302    -0.990192516034    -1.800040919475
    H            2.624925000108     0.694777086188    -2.196267049958
    H            1.837718063778    -0.562644245934    -3.128298802507
    H           -2.806585021853     1.026221282240    -0.125205830398
    H           -1.293386689071     1.953783742656    -0.134468958936
    H           -2.192028317061     1.773018940715     1.351315686429

  Mulliken Charges: (a.u.)
   Center  Symbol    Alpha    Beta     Spin     Total
       1     O     4.18169  4.18169  0.00000 -0.36338
       2     C     2.85296  2.85296  0.00000  0.29408
       3     C     3.10331  3.10331  0.00000 -0.20663
       4     C     3.15549  3.15549  0.00000 -0.31098
       5     C     3.10029  3.10029  0.00000 -0.20058
       6     H     0.44549  0.44549  0.00000  0.10903
       7     H     0.43827  0.43827  0.00000  0.12347
       8     C     3.09373  3.09373  0.00000 -0.18745
       9     H     0.44614  0.44614  0.00000  0.10773
      10     H     0.44844  0.44844  0.00000  0.10311
      11     C     3.15189  3.15189  0.00000 -0.30378
      12     H     0.43799  0.43799  0.00000  0.12402
      13     H     0.45372  0.45372  0.00000  0.09256
      14     H     0.45363  0.45363  0.00000  0.09274
      15     H     0.45643  0.45643  0.00000  0.08714
      16     H     0.44613  0.44613  0.00000  0.10775
      17     H     0.43636  0.43636  0.00000  0.12729
      18     H     0.45188  0.45188  0.00000  0.09623
      19     H     0.44617  0.44617  0.00000  0.10766

   Total alpha = 28.00000, Total beta = 28.00000, Total charge = -0.00000

*** Psi4 exiting successfully. Buy a developer a beer!
