  ==> Input File <==

--------------------------------------------------------------------------
set {
	reference rhf
	basis 6-31G*
}

set_num_threads( 4 )
memory 2 gb

molecule MOL {
0 1

H	 2.396208	 0.780510	 -0.297049
O	 2.064459	 -0.086912	 -0.111827
C	 0.745630	 0.005118	 0.354752
H	 0.739005	 0.037656	 1.444976
C	 -0.064159	 -1.194875	 -0.122754
C	 -0.046302	 1.193543	 -0.190431
H	 0.197384	 -1.376065	 -1.160690
H	 0.162855	 -2.097978	 0.431858
C	 -1.535782	 -0.752177	 0.006642
H	 0.154512	 1.271315	 -1.255561
H	 0.226209	 2.140461	 0.267302
C	 -1.509193	 0.801505	 0.065617
H	 -2.127797	 -1.112194	 -0.826847
H	 -1.986849	 -1.158408	 0.905561
H	 -2.183670	 1.254107	 -0.651985
H	 -1.821727	 1.144320	 1.047089

	symmetry c1
}
set optking {
	frozen_dihedral = ("
		1 2 3 6
	")
}

ee = optimize('scf')
oeprop('DIPOLE', 'QUADRUPOLE', 'MULLIKEN_CHARGES')
f=open( 'psi4out.xyz', 'w' )
f.write( "16  " )
f.write( str(ee) + "\n" )
f.write( MOL.save_string_xyz() )
f.close()
--------------------------------------------------------------------------

    Molecular point group: c1
  Charge       = 0
  Multiplicity = 1
  Basis Set: 6-31G*
  Basis Set:
  @DF-RHF Final Energy:  -270.01281876456414
    Total Energy =                       -270.0128187645643152
    Molecular point group: c1
  Basis Set: 6-31G*
  Basis Set:
  Basis Set: 6-31G*
  Basis Set:
  @DF-RHF Final Energy:  -270.01293594448305
    Total Energy =                       -270.0129359444832744
  Basis Set: 6-31G*
  Basis Set:
  Basis Set: 6-31G*
  Basis Set:
  @DF-RHF Final Energy:  -270.01297199975465
    Total Energy =                       -270.0129719997548818
  Basis Set: 6-31G*
  Basis Set:
  Basis Set: 6-31G*
  Basis Set:
  @DF-RHF Final Energy:  -270.01297486149133
    Total Energy =                       -270.0129748614912728
  Basis Set: 6-31G*
  Basis Set:
  @DF-RHF Final Energy:  -270.01298010733194
    Total Energy =                       -270.0129801073318276
  Basis Set: 6-31G*
  Basis Set:
  @DF-RHF Final Energy:  -270.01298262095168
    Total Energy =                       -270.0129826209515613
  Basis Set: 6-31G*
  Basis Set:
  Basis Set: 6-31G*
  Basis Set:
  @DF-RHF Final Energy:  -270.01298440960829
    Total Energy =                       -270.0129844096082934
  Basis Set: 6-31G*
  Basis Set:
  Basis Set: 6-31G*
  Basis Set:
  @DF-RHF Final Energy:  -270.01298595475873
    Total Energy =                       -270.0129859547588467
  Basis Set: 6-31G*
  Basis Set:
  Charge       = 0
  Multiplicity = 1
  Basis Set: 6-31G*
  Basis Set:

    Orbital Energies (a.u.)
    -----------------------

    Doubly Occupied:

       1A    -20.550403     2A    -11.267988     3A    -11.219839
       4A    -11.217786     5A    -11.216425     6A    -11.208237
       7A     -1.359688     8A     -1.115053     9A     -0.968404
      10A     -0.948604    11A     -0.795225    12A     -0.778505
      13A     -0.689076    14A     -0.662942    15A     -0.612742
      16A     -0.596976    17A     -0.573087    18A     -0.526211
      19A     -0.500500    20A     -0.484659    21A     -0.472360
      22A     -0.458446    23A     -0.443948    24A     -0.422641

  @DF-RHF Final Energy:  -270.01298630395382

   => Energetics <=

    Nuclear Repulsion Energy =            255.1870317553265863
    One-Electron Energy =                -872.2205455080536467
    Two-Electron Energy =                 347.0205274487735210
    DFT Exchange-Correlation Energy =       0.0000000000000000
    Empirical Dispersion Energy =           0.0000000000000000
    PCM Polarization Energy =               0.0000000000000000
    EFP Energy =                            0.0000000000000000
    Total Energy =                       -270.0129863039534825
    Molecular point group: c1
  Basis Set: 6-31G*
  Basis Set:

  -Total Gradient:
     Atom            X                  Y                   Z
    ------   -----------------  -----------------  -----------------
       1       -0.000648709447    -0.000102507599    -0.001987259348
       2        0.000957357519     0.000486643785     0.002968648085
       3       -0.000739684900    -0.001174697738    -0.002114790904
       4       -0.000008313801     0.000037221560     0.000013643455
       5        0.000032458155    -0.000014192983     0.000017808511
       6        0.000422213956     0.000778238264     0.001100662954
       7       -0.000005064406    -0.000017271840    -0.000005085496
       8       -0.000006732690     0.000006218351     0.000014936988
       9        0.000013418258    -0.000013766203    -0.000007366672
      10       -0.000013536706    -0.000017887089     0.000000556890
      11       -0.000008104554     0.000007877672    -0.000017053232
      12       -0.000007482356     0.000020144052     0.000016240612
      13        0.000018494584     0.000008310847    -0.000011228372
      14       -0.000016513235    -0.000013188712    -0.000008562257
      15       -0.000009729527     0.000017068130     0.000014651955
      16        0.000019929150    -0.000008210494     0.000004196830

  **** Optimization is complete! (in 9 steps) ****
    Final optimized geometry and variables:
    Molecular point group: c1

    Geometry (in Angstrom), charge = 0, multiplicity = 1:

    H            2.416006469052     0.787595839119    -0.240865670740
    O            2.077195645727    -0.081770879523    -0.083467810742
    C            0.744381564273    -0.003879242782     0.348713161408
    H            0.723995700695     0.023092406219     1.438425600616
    C           -0.068444591905    -1.196670745716    -0.140563220279
    C           -0.042889821379     1.191365956491    -0.185974210177
    H            0.168465102358    -1.353531135852    -1.188480541661
    H            0.170046189893    -2.112198016383     0.388498102576
    C           -1.534584320314    -0.755774757539     0.035218918298
    H            0.157679052034     1.285629651648    -1.251185126099
    H            0.229558925840     2.130536751102     0.287222561932
    C           -1.510123407528     0.799712915475     0.056253527567
    H           -2.161223294810    -1.139456032077    -0.761554131355
    H           -1.944147457262    -1.138548093529     0.963891320142
    H           -2.170306625036     1.232847933583    -0.686072812905
    H           -1.841447012378     1.167982470367     1.021626053497

  Mulliken Charges: (a.u.)
   Center  Symbol    Alpha    Beta     Spin     Total
       1     H     0.28022  0.28022  0.00000  0.43956
       2     O     4.38115  4.38115  0.00000 -0.76229
       3     C     2.89790  2.89790  0.00000  0.20420
       4     H     0.42911  0.42911  0.00000  0.14178
       5     C     3.16597  3.16597  0.00000 -0.33193
       6     C     3.18661  3.18661  0.00000 -0.37322
       7     H     0.41399  0.41399  0.00000  0.17202
       8     H     0.41197  0.41197  0.00000  0.17606
       9     C     3.17001  3.17001  0.00000 -0.34003
      10     H     0.41738  0.41738  0.00000  0.16524
      11     H     0.41757  0.41757  0.00000  0.16486
      12     C     3.16745  3.16745  0.00000 -0.33490
      13     H     0.41432  0.41432  0.00000  0.17137
      14     H     0.41630  0.41630  0.00000  0.16739
      15     H     0.41372  0.41372  0.00000  0.17257
      16     H     0.41634  0.41634  0.00000  0.16733

   Total alpha = 24.00000, Total beta = 24.00000, Total charge =  0.00000
