  ==> Input File <==

--------------------------------------------------------------------------
set {
	reference rhf
	basis 6-31G*
}

set_num_threads( 4 )
memory 2 gb

molecule MOL {
0 1

H	 -2.824923	 0.143303	 -0.769959
O	 -2.315789	 -0.143634	 -0.024262
C	 -0.945151	 -0.064130	 -0.333158
H	 -0.813375	 -0.223047	 -1.403232
C	 -0.232801	 -1.184051	 0.407206
C	 -0.355424	 1.302939	 0.054523
H	 -0.318824	 -0.992899	 1.473524
H	 -0.742411	 -2.122033	 0.217954
C	 1.248522	 -1.270719	 -0.013048
H	 -0.546144	 2.018388	 -0.742941
H	 -0.890929	 1.656788	 0.930149
C	 1.156425	 1.235120	 0.355905
H	 1.825384	 -1.683246	 0.809111
H	 1.357782	 -1.965923	 -0.840362
C	 1.828244	 0.099899	 -0.419275
H	 1.626109	 2.185622	 0.123525
H	 1.309438	 1.071213	 1.419539
H	 2.901447	 0.112642	 -0.255830
H	 1.681817	 0.263413	 -1.484607

	symmetry c1
}
set optking {
	frozen_dihedral = ("
		1 2 3 4
	")
}

ee = optimize('scf')
oeprop('DIPOLE', 'QUADRUPOLE', 'MULLIKEN_CHARGES')
f=open( 'psi4out.xyz', 'w' )
f.write( "19  " )
f.write( str(ee) + "\n" )
f.write( MOL.save_string_xyz() )
f.close()
--------------------------------------------------------------------------

    Molecular point group: c1
  Charge       = 0
  Multiplicity = 1
  Basis Set: 6-31G*
  Basis Set:
  @DF-RHF Final Energy:  -309.04733529132363
    Total Energy =                       -309.0473352913237477
    Molecular point group: c1
  Basis Set: 6-31G*
  Basis Set:
  Basis Set: 6-31G*
  Basis Set:
  @DF-RHF Final Energy:  -309.04742439122219
    Total Energy =                       -309.0474243912219663
  Basis Set: 6-31G*
  Basis Set:
  Basis Set: 6-31G*
  Basis Set:
  @DF-RHF Final Energy:  -309.04746035254635
    Total Energy =                       -309.0474603525465795
  Basis Set: 6-31G*
  Basis Set:
  Charge       = 0
  Multiplicity = 1
  Basis Set: 6-31G*
  Basis Set:

    Orbital Energies (a.u.)
    -----------------------

    Doubly Occupied:

       1A    -20.549297     2A    -11.269752     3A    -11.215416
       4A    -11.214919     5A    -11.214459     6A    -11.209032
       7A    -11.208006     8A     -1.357882     9A     -1.107327
      10A     -1.000056    11A     -0.987784    12A     -0.841163
      13A     -0.833490    14A     -0.730954    15A     -0.706931
      16A     -0.656594    17A     -0.626041    18A     -0.589581
      19A     -0.567005    20A     -0.543900    21A     -0.535158
      22A     -0.516787    23A     -0.496726    24A     -0.487686
      25A     -0.460177    26A     -0.448728    27A     -0.430286
      28A     -0.406980

  @DF-RHF Final Energy:  -309.04746079307063

   => Energetics <=

    Nuclear Repulsion Energy =            331.1046902219587764
    One-Electron Energy =               -1075.8800749298245591
    Two-Electron Energy =                 435.7279239147953831
    DFT Exchange-Correlation Energy =       0.0000000000000000
    Empirical Dispersion Energy =           0.0000000000000000
    PCM Polarization Energy =               0.0000000000000000
    EFP Energy =                            0.0000000000000000
    Total Energy =                       -309.0474607930703996
    Molecular point group: c1
  Basis Set: 6-31G*
  Basis Set:

  -Total Gradient:
     Atom            X                  Y                   Z
    ------   -----------------  -----------------  -----------------
       1       -0.000077819455    -0.001659705261    -0.000608068013
       2        0.000080827429     0.002414375191     0.000643122979
       3        0.000062024327    -0.002249855826     0.000210455689
       4       -0.000129839241     0.001516887163    -0.000223654980
       5        0.000036826554     0.000011907926     0.000008410539
       6       -0.000005718110     0.000007116416    -0.000015367752
       7       -0.000009423232     0.000002374568     0.000001467627
       8       -0.000004093676     0.000003275406    -0.000001786832
       9        0.000001191650     0.000008383091     0.000011041197
      10       -0.000015133219    -0.000000419534    -0.000009142843
      11       -0.000001179406    -0.000014436217    -0.000013678982
      12        0.000005500984    -0.000023012915     0.000016260430
      13        0.000014956445    -0.000002863285    -0.000010433350
      14        0.000009841225     0.000018491827    -0.000010959168
      15        0.000012519225     0.000004478535     0.000001680693
      16        0.000010459387    -0.000011444718    -0.000004789073
      17        0.000007419255    -0.000001076288     0.000005446611
      18        0.000002217533    -0.000008474541     0.000003413055
      19       -0.000000577677    -0.000016001537    -0.000003417827

  **** Optimization is complete! (in 4 steps) ****
    Final optimized geometry and variables:
    Molecular point group: c1

    Geometry (in Angstrom), charge = 0, multiplicity = 1:

    H           -2.832381378971     0.177225678728    -0.750375751067
    O           -2.319641529683    -0.123350422664    -0.014782866961
    C           -0.946290062534    -0.066687676135    -0.331255188496
    H           -0.821851220539    -0.219255333578    -1.402223440818
    C           -0.229119857025    -1.187071483194     0.405542904917
    C           -0.356268474207     1.301793575532     0.051527448245
    H           -0.320162785929    -1.000644824821     1.472413600738
    H           -0.734561659691    -2.126484877139     0.211808947544
    C            1.255101447160    -1.267356453564    -0.007288599506
    H           -0.547611892209     2.013308372600    -0.748569816032
    H           -0.898344188291     1.657254384606     0.921280020514
    C            1.154379841655     1.237016411998     0.358222934126
    H            1.830633869690    -1.674152983813     0.818715103467
    H            1.371663361030    -1.965096075299    -0.831645376057
    C            1.830782134844     0.104063530359    -0.415690980682
    H            1.623431307679     2.188641075128     0.128534145972
    H            1.305424001683     1.072211207696     1.422198023909
    H            2.904121388856     0.119253799027    -0.253119214744
    H            1.683375669003     0.265649782069    -1.481414737784

  Mulliken Charges: (a.u.)
   Center  Symbol    Alpha    Beta     Spin     Total
       1     H     0.28123  0.28123  0.00000  0.43754
       2     O     4.37909  4.37909  0.00000 -0.75819
       3     C     2.91369  2.91369  0.00000  0.17263
       4     H     0.43047  0.43047  0.00000  0.13906
       5     C     3.16535  3.16535  0.00000 -0.33070
       6     C     3.16669  3.16669  0.00000 -0.33337
       7     H     0.41585  0.41585  0.00000  0.16830
       8     H     0.41143  0.41143  0.00000  0.17715
       9     C     3.16090  3.16090  0.00000 -0.32180
      10     H     0.42466  0.42466  0.00000  0.15069
      11     H     0.40948  0.40948  0.00000  0.18105
      12     C     3.16403  3.16403  0.00000 -0.32806
      13     H     0.41784  0.41784  0.00000  0.16431
      14     H     0.41936  0.41936  0.00000  0.16129
      15     C     3.16391  3.16391  0.00000 -0.32782
      16     H     0.41729  0.41729  0.00000  0.16542
      17     H     0.41914  0.41914  0.00000  0.16171
      18     H     0.41673  0.41673  0.00000  0.16654
      19     H     0.42288  0.42288  0.00000  0.15424

   Total alpha = 28.00000, Total beta = 28.00000, Total charge = -0.00000
