                              Psi4 1.0.54 Driver

  ==> Input File <==

--------------------------------------------------------------------------
set {
	reference rhf
	basis cc-pvtz
}

set_num_threads( 4 )
memory 2 gb

molecule MOL {
0 1

O	 -0.694481	 1.313155	 -0.204815
C	 -0.862519	 0.151932	 -0.046791
C	 -2.171428	 -0.477048	 0.339095
O	 0.085519	 -0.757083	 -0.192238
H	 -2.467997	 -1.191667	 -0.417688
H	 -2.923379	 0.287970	 0.444097
H	 -2.053854	 -1.015120	 1.270901
C	 1.392036	 -0.330828	 -0.560749
C	 2.338134	 -0.339095	 0.621930
H	 1.333611	 0.650457	 -1.005137
H	 1.709074	 -1.038734	 -1.311820
H	 3.335898	 -0.074158	 0.290677
H	 2.027431	 0.376818	 1.370471
H	 2.379109	 -1.323523	 1.072280

	symmetry c1
}
set optking {
	frozen_dihedral = ("
		10 8 4 2
	")
}

ee,wfn = optimize('scf', return_wfn=True)
oeprop( wfn, 'DIPOLE', 'QUADRUPOLE', 'MULLIKEN_CHARGES')
f=open( 'psi4out.xyz', 'w' )
f.write( "14  " )
f.write( str(ee) + "\n" )
f.write( MOL.save_string_xyz() )
f.close()
--------------------------------------------------------------------------

    Molecular point group: c1
  Charge       = 0
  Multiplicity = 1
  Basis Set: CC-PVTZ
  Basis Set:
  @DF-RHF Final Energy:  -305.99043456391456
    Total Energy =                       -305.9904345639145049
    Molecular point group: c1
  Basis Set: CC-PVTZ
  Basis Set:
  Basis Set: CC-PVTZ
  Basis Set:
  @DF-RHF Final Energy:  -305.99049123266786
    Total Energy =                       -305.9904912326675230
  Basis Set: CC-PVTZ
  Basis Set:
  Basis Set: CC-PVTZ
  Basis Set:
  @DF-RHF Final Energy:  -305.99034577244413
    Total Energy =                       -305.9903457724443001
  Basis Set: CC-PVTZ
  Basis Set:
  Basis Set: CC-PVTZ
  Basis Set:
  @DF-RHF Final Energy:  -305.99062155939225
    Total Energy =                       -305.9906215593921388
  Basis Set: CC-PVTZ
  Basis Set:
  Basis Set: CC-PVTZ
  Basis Set:
  @DF-RHF Final Energy:  -305.99062954199172
    Total Energy =                       -305.9906295419917797
  Basis Set: CC-PVTZ
  Basis Set:
  Charge       = 0
  Multiplicity = 1
  Basis Set: CC-PVTZ
  Basis Set:

    Orbital Energies (a.u.)
    -----------------------

    Doubly Occupied:

       1A    -20.593951     2A    -20.532817     3A    -11.368404
       4A    -11.282161     5A    -11.231403     6A    -11.218992
       7A     -1.469634     8A     -1.366038     9A     -1.057006
      10A     -0.999869    11A     -0.881112    12A     -0.771644
      13A     -0.700860    14A     -0.685753    15A     -0.660214
      16A     -0.613308    17A     -0.584890    18A     -0.570141
      19A     -0.561967    20A     -0.529377    21A     -0.520587
      22A     -0.495626    23A     -0.452536    24A     -0.443264

  @DF-RHF Final Energy:  -305.99062978729717

   => Energetics <=

    Nuclear Repulsion Energy =            247.8460385305549778
    One-Electron Energy =                -908.4902238868189670
    Two-Electron Energy =                 354.6535555689665671
    DFT Exchange-Correlation Energy =       0.0000000000000000
    Empirical Dispersion Energy =           0.0000000000000000
    PCM Polarization Energy =               0.0000000000000000
    EFP Energy =                            0.0000000000000000
    Total Energy =                       -305.9906297872973937
    Molecular point group: c1
  Basis Set: CC-PVTZ
  Basis Set:

  -Total Gradient:
     Atom            X                  Y                   Z
    ------   -----------------  -----------------  -----------------
       1       -0.000044358150     0.000005802944     0.000007698283
       2       -0.000223046310    -0.000110481050    -0.001052876335
       3        0.000003141626     0.000003291013    -0.000048056100
       4        0.000357925519     0.000256778372     0.001794757183
       5        0.000006370340    -0.000001292851     0.000016300224
       6        0.000002397895    -0.000000193185     0.000004711263
       7        0.000006259009     0.000012647833     0.000007509385
       8       -0.000303427657    -0.000697349244    -0.001858156451
       9        0.000048315317     0.000006822925    -0.000017934468
      10        0.000150803233     0.000525922884     0.001127695960
      11       -0.000026028805    -0.000000900514     0.000021141130
      12        0.000023985385     0.000001494053     0.000022023350
      13       -0.000000207548    -0.000009675365    -0.000017580678
      14       -0.000002129859     0.000007132189    -0.000007232746

  **** Optimization is complete! (in 6 steps) ****
    Final optimized geometry and variables:
    Molecular point group: c1

    Geometry (in Angstrom), charge = 0, multiplicity = 1:

    O           -0.728143872654     1.382697499870    -0.203609622750
    C           -0.882926307265     0.217689335906    -0.063382220427
    C           -2.193954355121    -0.432808589928     0.277066810717
    O            0.080023469654    -0.680332381391    -0.183461187252
    H           -2.459240715369    -1.141410729445    -0.496764177937
    H           -2.958587016647     0.321068446483     0.369971943533
    H           -2.095720786430    -0.981273957731     1.204982786435
    C            1.392621605380    -0.258198972874    -0.535296556729
    C            2.286302776754    -0.232968989057     0.686953589194
    H            1.344027299751     0.715049614245    -0.994201084823
    H            1.744304433134    -0.979389007835    -1.258424768404
    H            3.296765297862     0.032894415624     0.397801817065
    H            1.934642171013     0.499196638069     1.402976490736
    H            2.311519010560    -1.203538661646     1.166691525326

  Mulliken Charges: (a.u.)
   Center  Symbol    Alpha    Beta     Spin     Total
       1     O     4.19892  4.19892  0.00000 -0.39784
       2     C     2.80069  2.80069  0.00000  0.39863
       3     C     3.13961  3.13961  0.00000 -0.27922
       4     O     4.15832  4.15832  0.00000 -0.31665
       5     H     0.44584  0.44584  0.00000  0.10831
       6     H     0.43829  0.43829  0.00000  0.12342
       7     H     0.44597  0.44597  0.00000  0.10807
       8     C     2.98622  2.98622  0.00000  0.02757
       9     C     3.14208  3.14208  0.00000 -0.28416
      10     H     0.44502  0.44502  0.00000  0.10996
      11     H     0.44708  0.44708  0.00000  0.10584
      12     H     0.45255  0.45255  0.00000  0.09490
      13     H     0.44747  0.44747  0.00000  0.10507
      14     H     0.45194  0.45194  0.00000  0.09611

   Total alpha = 24.00000, Total beta = 24.00000, Total charge =  0.00000

*** Psi4 exiting successfully. Buy a developer a beer!
