                              Psi4 1.0.54 Driver

  ==> Input File <==

--------------------------------------------------------------------------
set {
	reference rhf
	basis cc-pvtz
}

set_num_threads( 4 )
memory 2 gb

molecule MOL {
0 1

H	 1.744779	 -0.064186	 -1.224655
O	 1.675515	 -0.612943	 -0.465627
C	 1.135873	 0.113391	 0.608264
C	 0.027642	 1.012027	 0.090274
H	 1.902972	 0.727968	 1.072615
H	 0.756163	 -0.561896	 1.370018
C	 -1.138737	 0.285728	 -0.581921
H	 0.464661	 1.708096	 -0.618252
H	 -0.340737	 1.603071	 0.925246
C	 -1.933983	 -0.631436	 0.343653
H	 -0.763151	 -0.285569	 -1.422081
H	 -1.808359	 1.035291	 -0.992333
H	 -2.789188	 -1.049673	 -0.174718
H	 -1.335629	 -1.461368	 0.700418
H	 -2.305435	 -0.092167	 1.209725

	symmetry c1
}
set optking {
	frozen_dihedral = ("
		1 2 3 4
	")
}

ee,wfn = optimize('scf', return_wfn=True)
oeprop( wfn, 'DIPOLE', 'QUADRUPOLE', 'MULLIKEN_CHARGES')
f=open( 'psi4out.xyz', 'w' )
f.write( "15  " )
f.write( str(ee) + "\n" )
f.write( MOL.save_string_xyz() )
f.close()
--------------------------------------------------------------------------

    Molecular point group: c1
  Charge       = 0
  Multiplicity = 1
  Basis Set: CC-PVTZ
  Basis Set:
  @DF-RHF Final Energy:  -232.23487668867455
    Total Energy =                       -232.2348766886746034
    Molecular point group: c1
  Basis Set: CC-PVTZ
  Basis Set:
  Basis Set: CC-PVTZ
  Basis Set:
  @DF-RHF Final Energy:  -232.23628877061009
    Total Energy =                       -232.2362887706103152
  Basis Set: CC-PVTZ
  Basis Set:
  Basis Set: CC-PVTZ
  Basis Set:
  @DF-RHF Final Energy:  -232.23666630123412
    Total Energy =                       -232.2366663012342087
  Basis Set: CC-PVTZ
  Basis Set:
  Basis Set: CC-PVTZ
  Basis Set:
  @DF-RHF Final Energy:  -232.23667017973278
    Total Energy =                       -232.2366701797324708
  Basis Set: CC-PVTZ
  Basis Set:
  Charge       = 0
  Multiplicity = 1
  Basis Set: CC-PVTZ
  Basis Set:

    Orbital Energies (a.u.)
    -----------------------

    Doubly Occupied:

       1A    -20.545730     2A    -11.264903     3A    -11.219757
       4A    -11.216595     5A    -11.207525     6A     -1.363797
       7A     -1.070847     8A     -0.974005     9A     -0.879833
      10A     -0.792336    11A     -0.671759    12A     -0.647675
      13A     -0.637207    14A     -0.585123    15A     -0.569918
      16A     -0.543885    17A     -0.506617    18A     -0.485456
      19A     -0.475574    20A     -0.457589    21A     -0.431294

  @DF-RHF Final Energy:  -232.23667038430227

   => Energetics <=

    Nuclear Repulsion Energy =            191.7041002379234556
    One-Electron Energy =                -694.7866852552124328
    Two-Electron Energy =                 270.8459146329865916
    DFT Exchange-Correlation Energy =       0.0000000000000000
    Empirical Dispersion Energy =           0.0000000000000000
    PCM Polarization Energy =               0.0000000000000000
    EFP Energy =                            0.0000000000000000
    Total Energy =                       -232.2366703843023856
    Molecular point group: c1
  Basis Set: CC-PVTZ
  Basis Set:

  -Total Gradient:
     Atom            X                  Y                   Z
    ------   -----------------  -----------------  -----------------
       1       -0.001743630367    -0.000577408074    -0.000572350389
       2        0.002522228436     0.001143441497     0.000624404792
       3       -0.001616126564    -0.001461656434     0.000160615496
       4        0.000870020726     0.000852984366    -0.000243002948
       5        0.000010575911     0.000003027621    -0.000032244295
       6       -0.000030305283    -0.000020826494     0.000021435479
       7       -0.000016933643     0.000061538979     0.000012682589
       8       -0.000001447156    -0.000028386382     0.000001382194
       9       -0.000025969181     0.000033275935    -0.000006162880
      10        0.000007606927     0.000003629238     0.000005400294
      11        0.000015824908     0.000024458979     0.000010644977
      12       -0.000011244322    -0.000015376183     0.000015396217
      13       -0.000000670119    -0.000013862892     0.000001403568
      14        0.000016493482    -0.000000813934     0.000013422398
      15        0.000003576244    -0.000004026222    -0.000013027492

  **** Optimization is complete! (in 5 steps) ****
    Final optimized geometry and variables:
    Molecular point group: c1

    Geometry (in Angstrom), charge = 0, multiplicity = 1:

    H            1.827388572701    -0.140188606911    -1.199698795470
    O            1.736456116830    -0.655246150215    -0.418760864443
    C            1.139663728796     0.109385248599     0.595581349305
    C            0.014880061106     1.006016949132     0.097815713535
    H            1.889711768689     0.725795227754     1.084925381376
    H            0.777775446931    -0.595308666338     1.331441013099
    C           -1.156200595195     0.283089526043    -0.571057762336
    H            0.434243239325     1.725726116200    -0.603045196067
    H           -0.349100954506     1.586590614339     0.941622847256
    C           -1.937241354448    -0.643237723731     0.356939577371
    H           -0.793428673981    -0.286206008579    -1.420033910149
    H           -1.831811193278     1.032190225107    -0.971995574199
    H           -2.793689001741    -1.064936929644    -0.156139050175
    H           -1.329128638879    -1.468949614980     0.705302004764
    H           -2.304651031332    -0.108160443812     1.226968594995

  Mulliken Charges: (a.u.)
   Center  Symbol    Alpha    Beta     Spin     Total
       1     H     0.39361  0.39361  0.00000  0.21278
       2     O     4.20622  4.20622  0.00000 -0.41243
       3     C     2.96893  2.96893  0.00000  0.06213
       4     C     3.11621  3.11621  0.00000 -0.23241
       5     H     0.46229  0.46229  0.00000  0.07542
       6     H     0.45997  0.45997  0.00000  0.08007
       7     C     3.08065  3.08065  0.00000 -0.16130
       8     H     0.45107  0.45107  0.00000  0.09786
       9     H     0.45105  0.45105  0.00000  0.09790
      10     C     3.15424  3.15424  0.00000 -0.30847
      11     H     0.45451  0.45451  0.00000  0.09098
      12     H     0.44905  0.44905  0.00000  0.10190
      13     H     0.44636  0.44636  0.00000  0.10727
      14     H     0.44993  0.44993  0.00000  0.10014
      15     H     0.45592  0.45592  0.00000  0.08817

   Total alpha = 21.00000, Total beta = 21.00000, Total charge = -0.00000

*** Psi4 exiting successfully. Buy a developer a beer!
