                              Psi4 1.0.54 Driver

  ==> Input File <==

--------------------------------------------------------------------------
set {
	reference rhf
	basis cc-pvtz
}

set_num_threads( 4 )
memory 2 gb

molecule MOL {
0 1

O	 -2.071633	 -1.227563	 -0.223463
C	 -1.652164	 -0.152425	 0.058082
C	 -0.327811	 0.006324	 0.778296
C	 -2.402515	 1.108629	 -0.298924
C	 -0.318683	 1.271837	 1.644216
H	 -0.129563	 -0.863312	 1.395998
H	 0.447915	 0.074457	 0.026335
C	 1.006062	 1.477494	 2.372904
H	 -1.123773	 1.224659	 2.373117
H	 -0.523957	 2.127662	 1.010345
C	 1.024194	 2.741596	 3.225477
H	 1.209446	 0.614835	 3.001377
H	 1.810314	 1.521503	 1.644357
H	 0.252276	 2.711788	 3.987244
H	 0.855034	 3.624590	 2.618785
H	 1.977821	 2.861668	 3.726056
H	 -3.240910	 0.874416	 -0.936711
H	 -1.747554	 1.818823	 -0.790984
H	 -2.760419	 1.579708	 0.610998

	symmetry c1
}
set optking {
	frozen_dihedral = ("
		5 3 2 4
	")
}

ee,wfn = optimize('scf', return_wfn=True)
oeprop( wfn, 'DIPOLE', 'QUADRUPOLE', 'MULLIKEN_CHARGES')
f=open( 'psi4out.xyz', 'w' )
f.write( "19  " )
f.write( str(ee) + "\n" )
f.write( MOL.save_string_xyz() )
f.close()
--------------------------------------------------------------------------

    Molecular point group: c1
  Charge       = 0
  Multiplicity = 1
  Basis Set: CC-PVTZ
  Basis Set:
  @DF-RHF Final Energy:  -309.17274805992105
    Total Energy =                       -309.1727480599208207
    Molecular point group: c1
  Basis Set: CC-PVTZ
  Basis Set:
  Basis Set: CC-PVTZ
  Basis Set:
  @DF-RHF Final Energy:  -309.13819351734770
    Total Energy =                       -309.1381935173477586
  Basis Set: CC-PVTZ
  Basis Set:
  Basis Set: CC-PVTZ
  Basis Set:
  @DF-RHF Final Energy:  -309.17415218629918
    Total Energy =                       -309.1741521862989543
  Basis Set: CC-PVTZ
  Basis Set:
  Basis Set: CC-PVTZ
  Basis Set:
  @DF-RHF Final Energy:  -309.17562634135044
    Total Energy =                       -309.1756263413502097
  Basis Set: CC-PVTZ
  Basis Set:
  @DF-RHF Final Energy:  -309.17413523710411
    Total Energy =                       -309.1741352371039397
  @DF-RHF Final Energy:  -309.17560411246950
    Total Energy =                       -309.1756041124693297
  @DF-RHF Final Energy:  -309.17577123067855
    Total Energy =                       -309.1757712306781514
  Basis Set: CC-PVTZ
  Basis Set:
  @DF-RHF Final Energy:  -309.17572179391874
    Total Energy =                       -309.1757217939184557
  Basis Set: CC-PVTZ
  Basis Set:
  Basis Set: CC-PVTZ
  Basis Set:
  @DF-RHF Final Energy:  -309.17577673497448
    Total Energy =                       -309.1757767349746473
  Basis Set: CC-PVTZ
  Basis Set:
  Basis Set: CC-PVTZ
  Basis Set:
  @DF-RHF Final Energy:  -309.17577865708063
    Total Energy =                       -309.1757786570806275
  Basis Set: CC-PVTZ
  Basis Set:
  Charge       = 0
  Multiplicity = 1
  Basis Set: CC-PVTZ
  Basis Set:

    Orbital Energies (a.u.)
    -----------------------

    Doubly Occupied:

       1A    -20.535722     2A    -11.320324     3A    -11.229788
       4A    -11.229054     5A    -11.226519     6A    -11.224911
       7A    -11.215426     8A     -1.396513     9A     -1.095653
      10A     -1.029518    11A     -0.983546    12A     -0.896322
      13A     -0.810778    14A     -0.733055    15A     -0.664319
      16A     -0.649844    17A     -0.630016    18A     -0.613908
      19A     -0.586419    20A     -0.573787    21A     -0.554955
      22A     -0.531813    23A     -0.521637    24A     -0.495061
      25A     -0.487225    26A     -0.481387    27A     -0.472051
      28A     -0.399324

  @DF-RHF Final Energy:  -309.17577879388733

   => Energetics <=

    Nuclear Repulsion Energy =            301.5276523289912234
    One-Electron Energy =               -1016.2291187195372686
    Two-Electron Energy =                 405.5256875966587131
    DFT Exchange-Correlation Energy =       0.0000000000000000
    Empirical Dispersion Energy =           0.0000000000000000
    PCM Polarization Energy =               0.0000000000000000
    EFP Energy =                            0.0000000000000000
    Total Energy =                       -309.1757787938873889
    Molecular point group: c1
  Basis Set: CC-PVTZ
  Basis Set:

  -Total Gradient:
     Atom            X                  Y                   Z
    ------   -----------------  -----------------  -----------------
       1        0.000007786846     0.000017869427     0.000009936279
       2        0.000606771757     0.000481905062    -0.002401066897
       3       -0.000561390878    -0.001132969135     0.002154820024
       4       -0.000306536854    -0.000096248411     0.001254783746
       5        0.000268854355     0.000748665504    -0.001044321441
       6        0.000002515010     0.000002631480     0.000000069558
       7        0.000001297776     0.000001566508    -0.000000452236
       8        0.000005312006    -0.000006092203     0.000006920405
       9       -0.000001725295    -0.000000558366    -0.000007199397
      10       -0.000005684297    -0.000006202780     0.000002195061
      11       -0.000004559446    -0.000004294563    -0.000010872492
      12        0.000004604253     0.000003918620    -0.000001334941
      13        0.000002189165     0.000000277850     0.000007532615
      14        0.000002956050    -0.000001110816    -0.000006749818
      15        0.000000383149    -0.000004178740     0.000004220985
      16       -0.000005800459     0.000000210299    -0.000002486900
      17       -0.000005985995    -0.000001935606     0.000003103631
      18       -0.000009346244     0.000001025107     0.000013878057
      19       -0.000001640902    -0.000004479237     0.000017023760

  **** Optimization is complete! (in 11 steps) ****
    Final optimized geometry and variables:
    Molecular point group: c1

    Geometry (in Angstrom), charge = 0, multiplicity = 1:

    O           -1.960980480163    -1.626031316681    -1.032716783029
    C           -1.382203688131    -0.617404913820    -0.788806872467
    C            0.092107441991    -0.653726129378    -0.423264430636
    C           -2.087694994154     0.717157026708    -0.856985569896
    C            0.610252504130     0.448951572268     0.497943229333
    H            0.283546121959    -1.632764606288    -0.004170509645
    H            0.631216904803    -0.613155621838    -1.368214980294
    C            2.093303733323     0.283451450243     0.819891475345
    H            0.044336809433     0.447691838650     1.425986250769
    H            0.453927285591     1.421873286595     0.043619835706
    C            2.628352195170     1.374027462171     1.741329367355
    H            2.254122433473    -0.687816476861     1.278304024837
    H            2.662254608321     0.281237539744    -0.105701670197
    H            2.101313846495     1.378874373171     2.689497422673
    H            2.513281130772     2.356078805294     1.294828010988
    H            3.681558820101     1.227569663598     1.949844800638
    H           -3.086163685565     0.572723422128    -1.239382107409
    H           -1.545474064132     1.407273032307    -1.493769975460
    H           -2.139075579522     1.161878515434     0.130086870779

  Mulliken Charges: (a.u.)
   Center  Symbol    Alpha    Beta     Spin     Total
       1     O     4.17391  4.17391  0.00000 -0.34783
       2     C     2.86011  2.86011  0.00000  0.27979
       3     C     3.09744  3.09744  0.00000 -0.19489
       4     C     3.16492  3.16492  0.00000 -0.32984
       5     C     3.10109  3.10109  0.00000 -0.20218
       6     H     0.43683  0.43683  0.00000  0.12634
       7     H     0.44453  0.44453  0.00000  0.11094
       8     C     3.08633  3.08633  0.00000 -0.17266
       9     H     0.44865  0.44865  0.00000  0.10270
      10     H     0.45068  0.45068  0.00000  0.09864
      11     C     3.14923  3.14923  0.00000 -0.29847
      12     H     0.45039  0.45039  0.00000  0.09922
      13     H     0.45301  0.45301  0.00000  0.09397
      14     H     0.45411  0.45411  0.00000  0.09179
      15     H     0.45502  0.45502  0.00000  0.08997
      16     H     0.44643  0.44643  0.00000  0.10713
      17     H     0.43192  0.43192  0.00000  0.13616
      18     H     0.44824  0.44824  0.00000  0.10352
      19     H     0.44715  0.44715  0.00000  0.10569

   Total alpha = 28.00000, Total beta = 28.00000, Total charge =  0.00000

*** Psi4 exiting successfully. Buy a developer a beer!
