                              Psi4 1.0.54 Driver

  ==> Input File <==

--------------------------------------------------------------------------
set {
	reference rhf
	basis cc-pvtz
}

set_num_threads( 4 )
memory 2 gb

molecule MOL {
0 1

O	 0.749630	 1.305591	 -0.000460
C	 0.576499	 0.134701	 -0.003900
C	 -0.765656	 -0.550508	 -0.002152
O	 1.564816	 -0.744612	 -0.000631
C	 -1.945526	 0.411052	 0.000603
H	 -0.794329	 -1.203792	 -0.868145
H	 -0.791555	 -1.205429	 0.862701
C	 -3.282915	 -0.321280	 0.002596
H	 -1.880300	 1.059126	 -0.864925
H	 -1.877207	 1.057892	 0.866807
H	 -3.388495	 -0.952755	 -0.873419
H	 -4.107811	 0.380864	 0.004116
H	 -3.385717	 -0.953283	 0.878571
C	 1.263065	 -2.058488	 0.424441
H	 0.904029	 -2.056464	 1.442843
H	 2.185347	 -2.612001	 0.355812
H	 0.513106	 -2.502547	 -0.213065

	symmetry c1
}
set optking {
	frozen_dihedral = ("
		14 4 2 1
	")
}

ee,wfn = optimize('scf', return_wfn=True)
oeprop( wfn, 'DIPOLE', 'QUADRUPOLE', 'MULLIKEN_CHARGES')
f=open( 'psi4out.xyz', 'w' )
f.write( "17  " )
f.write( str(ee) + "\n" )
f.write( MOL.save_string_xyz() )
f.close()
--------------------------------------------------------------------------

    Molecular point group: c1
  Charge       = 0
  Multiplicity = 1
  Basis Set: CC-PVTZ
  Basis Set:
  @DF-RHF Final Energy:  -345.01063136350109
    Total Energy =                       -345.0106313635011475
    Molecular point group: c1
  Basis Set: CC-PVTZ
  Basis Set:
  Basis Set: CC-PVTZ
  Basis Set:
  @DF-RHF Final Energy:  -344.98908701173383
    Total Energy =                       -344.9890870117340000
  Basis Set: CC-PVTZ
  Basis Set:
  Basis Set: CC-PVTZ
  Basis Set:
  @DF-RHF Final Energy:  -345.01720633530670
    Total Energy =                       -345.0172063353066960
  Basis Set: CC-PVTZ
  Basis Set:
  Basis Set: CC-PVTZ
  Basis Set:
  @DF-RHF Final Energy:  -345.01952762916312
    Total Energy =                       -345.0195276291630080
  Basis Set: CC-PVTZ
  Basis Set:
  @DF-RHF Final Energy:  -344.93274619138998
    Total Energy =                       -344.9327461913898674
  @DF-RHF Final Energy:  -345.00793828291967
    Total Energy =                       -345.0079382829194401
  @DF-RHF Final Energy:  -345.01954175593448
    Total Energy =                       -345.0195417559343696
  @DF-RHF Final Energy:  -344.99613577687211
    Total Energy =                       -344.9961357768721655
  @DF-RHF Final Energy:  -345.01839368155549
    Total Energy =                       -345.0183936815554944
  Basis Set: CC-PVTZ
  Basis Set:
  @DF-RHF Final Energy:  -345.02046338352966
    Total Energy =                       -345.0204633835296590
  Basis Set: CC-PVTZ
  Basis Set:
  Basis Set: CC-PVTZ
  Basis Set:
  @DF-RHF Final Energy:  -345.02049118916500
    Total Energy =                       -345.0204911891649999
  Basis Set: CC-PVTZ
  Basis Set:
  Basis Set: CC-PVTZ
  Basis Set:
  @DF-RHF Final Energy:  -345.02049622467871
    Total Energy =                       -345.0204962246788796
  Basis Set: CC-PVTZ
  Basis Set:
  Charge       = 0
  Multiplicity = 1
  Basis Set: CC-PVTZ
  Basis Set:

    Orbital Energies (a.u.)
    -----------------------

    Doubly Occupied:

       1A    -20.593551     2A    -20.529875     3A    -11.366622
       4A    -11.293364     5A    -11.243793     6A    -11.224260
       7A    -11.216893     8A     -1.465712     9A     -1.368261
      10A     -1.083873    11A     -0.990285    12A     -0.969376
      13A     -0.839694    14A     -0.767574    15A     -0.705829
      16A     -0.690781    17A     -0.676209    18A     -0.641907
      19A     -0.605539    20A     -0.580071    21A     -0.572743
      22A     -0.545145    23A     -0.532058    24A     -0.497923
      25A     -0.491833    26A     -0.484622    27A     -0.452277
      28A     -0.435042

  @DF-RHF Final Energy:  -345.02049654193979

   => Energetics <=

    Nuclear Repulsion Energy =            314.5791933083507956
    One-Electron Energy =               -1093.4691606309293093
    Two-Electron Energy =                 433.8694707806390625
    DFT Exchange-Correlation Energy =       0.0000000000000000
    Empirical Dispersion Energy =           0.0000000000000000
    PCM Polarization Energy =               0.0000000000000000
    EFP Energy =                            0.0000000000000000
    Total Energy =                       -345.0204965419394512
    Molecular point group: c1
  Basis Set: CC-PVTZ
  Basis Set:

  -Total Gradient:
     Atom            X                  Y                   Z
    ------   -----------------  -----------------  -----------------
       1       -0.000246579731    -0.000172080548     0.002220884353
       2        0.000475084842     0.000436698534    -0.002096880270
       3        0.000025004521    -0.000002484892     0.000004138931
       4       -0.000340558679    -0.000739808472    -0.002040414802
       5       -0.000029907688    -0.000007477339    -0.000008019177
       6       -0.000002973768     0.000000155732     0.000011661998
       7       -0.000005331571    -0.000000022533    -0.000004818481
       8       -0.000002560418     0.000017059656     0.000002078926
       9       -0.000006766972     0.000003097027     0.000004328958
      10       -0.000002311998    -0.000002192932    -0.000008394797
      11        0.000001796596     0.000000113337     0.000001988440
      12       -0.000004876679    -0.000004560723    -0.000001070118
      13        0.000002381865     0.000002444397    -0.000003160713
      14        0.000140880305     0.000444370635     0.001936976144
      15        0.000025347491    -0.000022308971    -0.000024479610
      16       -0.000036142661     0.000011080209    -0.000003608695
      17        0.000007514541     0.000035916886     0.000008788912

  **** Optimization is complete! (in 13 steps) ****
    Final optimized geometry and variables:
    Molecular point group: c1

    Geometry (in Angstrom), charge = 0, multiplicity = 1:

    O            0.820517521482     1.582457566730     0.187096328525
    C            0.740329517921     0.410154736453     0.097019879264
    C           -0.563173258565    -0.320276983314    -0.142124597465
    O            1.850446702649    -0.323254415111     0.184653091682
    C           -1.751369781884     0.617745585055    -0.309596685720
    H           -0.442164544803    -0.943170489769    -1.023251101351
    H           -0.736719562776    -1.001587407864     0.684765231557
    C           -3.050981753112    -0.141424098097    -0.553661744774
    H           -1.556886235947     1.294601673372    -1.131920351383
    H           -1.842816571292     1.236486740103     0.573979452160
    H           -2.993970212561    -0.745655721673    -1.453286048073
    H           -3.881189021468     0.544402437362    -0.670469751862
    H           -3.284730199588    -0.803317749528     0.274026323878
    C            1.834868677495    -1.693101047912     0.497115222869
    H            1.374020672120    -1.872227091565     1.460025579908
    H            2.867537095431    -1.998060420152     0.543180844952
    H            1.330718848600    -2.278112998697    -0.260324651013

  Mulliken Charges: (a.u.)
   Center  Symbol    Alpha    Beta     Spin     Total
       1     O     4.17899  4.17899  0.00000 -0.35798
       2     C     2.80469  2.80469  0.00000  0.39063
       3     C     3.12892  3.12892  0.00000 -0.25784
       4     O     4.13096  4.13096  0.00000 -0.26192
       5     C     3.08056  3.08056  0.00000 -0.16113
       6     H     0.43953  0.43953  0.00000  0.12094
       7     H     0.44266  0.44266  0.00000  0.11469
       8     C     3.15023  3.15023  0.00000 -0.30046
       9     H     0.44361  0.44361  0.00000  0.11277
      10     H     0.44375  0.44375  0.00000  0.11250
      11     H     0.45630  0.45630  0.00000  0.08739
      12     H     0.44411  0.44411  0.00000  0.11178
      13     H     0.45671  0.45671  0.00000  0.08658
      14     C     3.04604  3.04604  0.00000 -0.09208
      15     H     0.45890  0.45890  0.00000  0.08220
      16     H     0.43318  0.43318  0.00000  0.13364
      17     H     0.46086  0.46086  0.00000  0.07828

   Total alpha = 28.00000, Total beta = 28.00000, Total charge = -0.00000

*** Psi4 exiting successfully. Buy a developer a beer!
