  ==> Input File <==

--------------------------------------------------------------------------
set {
	reference rhf
	basis cc-pvtz
}

set_num_threads( 4 )
memory 2 gb

molecule MOL {
0 1

H	 -3.941973	 0.934228	 -0.390224
C	 -3.240162	 0.342701	 0.161016
C	 -2.105997	 -0.000418	 -0.398703
H	 -3.485368	 0.047206	 1.162193
O	 -1.189946	 -0.765863	 0.237511
H	 -1.846458	 0.297311	 -1.398265
C	 0.026572	 -0.995256	 -0.379403
C	 1.057223	 0.049888	 -0.004615
H	 -0.054361	 -1.010670	 -1.459674
H	 0.397526	 -1.952058	 -0.044198
F	 2.255681	 -0.368813	 -0.358829
F	 0.838400	 1.195751	 -0.613402
F	 1.077068	 0.282160	 1.285390

	symmetry c1
}
set optking {
	frozen_dihedral = ("
		11 8 7 9
	")
}

ee = optimize('scf')
oeprop('DIPOLE', 'QUADRUPOLE', 'MULLIKEN_CHARGES')
f=open( 'psi4out.xyz', 'w' )
f.write( "13  " )
f.write( str(ee) + "\n" )
f.write( MOL.save_string_xyz() )
f.close()
--------------------------------------------------------------------------

    Molecular point group: c1
  Charge       = 0
  Multiplicity = 1
  Basis Set: CC-PVTZ
  Basis Set:
  @DF-RHF Final Energy:  -527.74131601855333
    Total Energy =                       -527.7413160185533343
    Molecular point group: c1
  Basis Set: CC-PVTZ
  Basis Set:
  Basis Set: CC-PVTZ
  Basis Set:
  @DF-RHF Final Energy:  -527.74137431492204
    Total Energy =                       -527.7413743149223819
  Basis Set: CC-PVTZ
  Basis Set:
  Basis Set: CC-PVTZ
  Basis Set:
  @DF-RHF Final Energy:  -527.74139637663052
    Total Energy =                       -527.7413963766307461
  Basis Set: CC-PVTZ
  Basis Set:
  Basis Set: CC-PVTZ
  Basis Set:
  @DF-RHF Final Energy:  -527.74140163127470
    Total Energy =                       -527.7414016312750391
  Basis Set: CC-PVTZ
  Basis Set:
  Basis Set: CC-PVTZ
  Basis Set:
  @DF-RHF Final Energy:  -527.74140580635299
    Total Energy =                       -527.7414058063529865
  Basis Set: CC-PVTZ
  Basis Set:
  Basis Set: CC-PVTZ
  Basis Set:
  @DF-RHF Final Energy:  -527.74140747131469
    Total Energy =                       -527.7414074713149148
  Basis Set: CC-PVTZ
  Basis Set:
  Basis Set: CC-PVTZ
  Basis Set:
  @DF-RHF Final Energy:  -527.74140856724762
    Total Energy =                       -527.7414085672480724
  Basis Set: CC-PVTZ
  Basis Set:
  Charge       = 0
  Multiplicity = 1
  Basis Set: CC-PVTZ
  Basis Set:

    Orbital Energies (a.u.)
    -----------------------

    Doubly Occupied:

       1A    -26.341482     2A    -26.341179     3A    -26.337139
       4A    -20.603493     5A    -11.497889     6A    -11.320192
       7A    -11.298431     8A    -11.214162     9A     -1.750356
      10A     -1.647138    11A     -1.644791    12A     -1.444121
      13A     -1.087413    14A     -1.020576    15A     -0.932151
      16A     -0.843289    17A     -0.839494    18A     -0.827103
      19A     -0.798887    20A     -0.727539    21A     -0.719178
      22A     -0.702885    23A     -0.682040    24A     -0.667965
      25A     -0.661944    26A     -0.650676    27A     -0.640981
      28A     -0.587905    29A     -0.566583    30A     -0.527965
      31A     -0.518177    32A     -0.356992

  @DF-RHF Final Energy:  -527.74140888682712

   => Energetics <=

    Nuclear Repulsion Energy =            413.9384892892969674
    One-Electron Energy =               -1551.7595647504149383
    Two-Electron Energy =                 610.0796665742907408
    DFT Exchange-Correlation Energy =       0.0000000000000000
    Empirical Dispersion Energy =           0.0000000000000000
    PCM Polarization Energy =               0.0000000000000000
    EFP Energy =                            0.0000000000000000
    Total Energy =                       -527.7414088868272302
    Molecular point group: c1
  Basis Set: CC-PVTZ
  Basis Set:

  -Total Gradient:
     Atom            X                  Y                   Z
    ------   -----------------  -----------------  -----------------
       1       -0.000001501926     0.000000164871    -0.000000390767
       2        0.000009290434    -0.000013580293     0.000003979394
       3       -0.000021057627     0.000052941986    -0.000035437169
       4       -0.000004046971     0.000000786163    -0.000001316649
       5        0.000075744969    -0.000045862395    -0.000010411219
       6        0.000000832332    -0.000003152058     0.000010007597
       7        0.002734401365    -0.002749922592     0.000542604962
       8       -0.000866461218     0.001809727437    -0.002867544817
       9       -0.002221287952     0.002025596256     0.000139687013
      10        0.000012402156    -0.000012574698    -0.000005505727
      11        0.000317874750    -0.001107751608     0.002240942043
      12       -0.000028960363     0.000048685771    -0.000013979173
      13       -0.000007229940    -0.000005058846    -0.000002635485

  **** Optimization is complete! (in 8 steps) ****
    Final optimized geometry and variables:
    Molecular point group: c1

    Geometry (in Angstrom), charge = 0, multiplicity = 1:

    H           -3.896222994019     0.969021967502    -0.383826553383
    C           -3.202220943004     0.363793625109     0.162478988573
    C           -2.087951214785    -0.018170706567    -0.411962193938
    H           -3.439722439300     0.084563909329     1.170161362632
    O           -1.187031791713    -0.809455389468     0.214000873222
    H           -1.836065261605     0.263330865357    -1.418449844883
    C            0.043763059249    -1.013660183064    -0.385725871023
    C            1.047563442922     0.057635974101    -0.001844723263
    H           -0.037654514439    -1.018175620813    -1.466263855606
    H            0.427153946603    -1.962913520896    -0.046081543551
    F            2.256780652723    -0.322525070028    -0.362510955919
    F            0.793448751528     1.206452409753    -0.592403803227
    F            1.067161610104     0.271389750405     1.290888300255

  Mulliken Charges: (a.u.)
   Center  Symbol    Alpha    Beta     Spin     Total
       1     H     0.42512  0.42512  0.00000  0.14976
       2     C     3.19639  3.19639  0.00000 -0.39279
       3     C     2.96069  2.96069  0.00000  0.07862
       4     H     0.42448  0.42448  0.00000  0.15104
       5     O     4.14371  4.14371  0.00000 -0.28742
       6     H     0.43443  0.43443  0.00000  0.13113
       7     C     3.01921  3.01921  0.00000 -0.03842
       8     C     2.67648  2.67648  0.00000  0.64705
       9     H     0.45555  0.45555  0.00000  0.08889
      10     H     0.43434  0.43434  0.00000  0.13131
      11     F     4.61211  4.61211  0.00000 -0.22422
      12     F     4.61134  4.61134  0.00000 -0.22268
      13     F     4.60614  4.60614  0.00000 -0.21228

   Total alpha = 32.00000, Total beta = 32.00000, Total charge = -0.00000
