                              Psi4 1.0.54 Driver

  ==> Input File <==

--------------------------------------------------------------------------
set {
	reference rhf
	basis cc-pvtz
}

set_num_threads( 4 )
memory 2 gb

molecule MOL {
0 1

O	 0.096893	 1.226027	 0.276514
C	 0.029490	 0.077183	 0.000078
C	 -1.232113	 -0.748027	 0.000015
O	 1.078560	 -0.646922	 -0.352564
C	 -2.501422	 0.088592	 -0.000052
H	 -1.188777	 -1.400384	 -0.865133
H	 -1.188857	 -1.400312	 0.865225
H	 -2.548170	 0.725504	 -0.873205
H	 -3.371613	 -0.556398	 -0.000040
H	 -2.548215	 0.725571	 0.873047
C	 2.332123	 0.004568	 -0.394783
H	 2.316313	 0.815808	 -1.107436
H	 3.046449	 -0.743462	 -0.698124
H	 2.591587	 0.395132	 0.578039

	symmetry c1
}
set optking {
	frozen_dihedral = ("
		4 2 3 6
	")
}

ee,wfn = optimize('scf', return_wfn=True)
oeprop( wfn, 'DIPOLE', 'QUADRUPOLE', 'MULLIKEN_CHARGES')
f=open( 'psi4out.xyz', 'w' )
f.write( "14  " )
f.write( str(ee) + "\n" )
f.write( MOL.save_string_xyz() )
f.close()
--------------------------------------------------------------------------

    Molecular point group: c1
  Charge       = 0
  Multiplicity = 1
  Basis Set: CC-PVTZ
  Basis Set:
  @DF-RHF Final Energy:  -305.98737371308243
    Total Energy =                       -305.9873737130825475
    Molecular point group: c1
  Basis Set: CC-PVTZ
  Basis Set:
  Basis Set: CC-PVTZ
  Basis Set:
  @DF-RHF Final Energy:  -305.98738712167835
    Total Energy =                       -305.9873871216782391
  Basis Set: CC-PVTZ
  Basis Set:
  Basis Set: CC-PVTZ
  Basis Set:
  @DF-RHF Final Energy:  -305.98736407287839
    Total Energy =                       -305.9873640728784494
  Basis Set: CC-PVTZ
  Basis Set:
  Basis Set: CC-PVTZ
  Basis Set:
  @DF-RHF Final Energy:  -305.98747197906363
    Total Energy =                       -305.9874719790635709
  Basis Set: CC-PVTZ
  Basis Set:
  Charge       = 0
  Multiplicity = 1
  Basis Set: CC-PVTZ
  Basis Set:

    Orbital Energies (a.u.)
    -----------------------

    Doubly Occupied:

       1A    -20.597650     2A    -20.534473     3A    -11.365222
       4A    -11.279166     5A    -11.237095     6A    -11.215428
       7A     -1.473232     8A     -1.366545     9A     -1.065438
      10A     -0.981326    11A     -0.879270    12A     -0.771427
      13A     -0.702742    14A     -0.685896    15A     -0.675507
      16A     -0.621287    17A     -0.604092    18A     -0.548085
      19A     -0.538736    20A     -0.522110    21A     -0.516162
      22A     -0.496841    23A     -0.461397    24A     -0.442232

  @DF-RHF Final Energy:  -305.98747284607305

   => Energetics <=

    Nuclear Repulsion Energy =            247.5597998693602904
    One-Electron Energy =                -907.9318283936206626
    Two-Electron Energy =                 354.3845556781871551
    DFT Exchange-Correlation Energy =       0.0000000000000000
    Empirical Dispersion Energy =           0.0000000000000000
    PCM Polarization Energy =               0.0000000000000000
    EFP Energy =                            0.0000000000000000
    Total Energy =                       -305.9874728460732172
    Molecular point group: c1
  Basis Set: CC-PVTZ
  Basis Set:

  -Total Gradient:
     Atom            X                  Y                   Z
    ------   -----------------  -----------------  -----------------
       1        0.000031190318     0.000008858455    -0.000008001438
       2        0.000199968445    -0.000420165752     0.000961320272
       3       -0.000511579920     0.000783173486    -0.000738287925
       4       -0.000156031892     0.000199156284    -0.000683028897
       5        0.000003661125     0.000001845949    -0.000029553310
       6        0.000384485777    -0.000554648671     0.000465981369
       7        0.000005470716    -0.000005870223    -0.000003737456
       8       -0.000002916882    -0.000005814163     0.000013524986
       9        0.000012999417     0.000005317749     0.000000424812
      10        0.000010477989    -0.000017910782    -0.000010548578
      11        0.000046688240     0.000015540361     0.000055644041
      12       -0.000024249599    -0.000016891789     0.000006884958
      13       -0.000006316440     0.000005609124    -0.000005393609
      14        0.000006152708     0.000001799972    -0.000025229225

  **** Optimization is complete! (in 5 steps) ****
    Final optimized geometry and variables:
    Molecular point group: c1

    Geometry (in Angstrom), charge = 0, multiplicity = 1:

    O            0.096612706796     1.217837802156     0.339496608685
    C            0.034598136434     0.068221947881     0.064115616242
    C           -1.223702620311    -0.761934795401     0.077877498199
    O            1.087862706438    -0.652074835736    -0.282658404732
    C           -2.495665273350     0.070825021986     0.108125159892
    H           -1.196177866853    -1.429988502881    -0.773425141750
    H           -1.159495123281    -1.398117016708     0.955796578309
    H           -2.574345841032     0.694699415719    -0.773127652954
    H           -3.363240448188    -0.576507223977     0.143959581312
    H           -2.514118176417     0.719257822367     0.972795279722
    C            2.342843690478    -0.001649313063    -0.294193300946
    H            2.339612208195     0.819104545709    -0.995819622812
    H            3.061216925039    -0.746561894377    -0.595567727472
    H            2.586147744846     0.375300728876     0.688118953550

  Mulliken Charges: (a.u.)
   Center  Symbol    Alpha    Beta     Spin     Total
       1     O     4.19735  4.19735  0.00000 -0.39471
       2     C     2.80386  2.80386  0.00000  0.39228
       3     C     3.09286  3.09286  0.00000 -0.18572
       4     O     4.14651  4.14651  0.00000 -0.29301
       5     C     3.14039  3.14039  0.00000 -0.28078
       6     H     0.43923  0.43923  0.00000  0.12153
       7     H     0.44381  0.44381  0.00000  0.11238
       8     H     0.45108  0.45108  0.00000  0.09784
       9     H     0.45020  0.45020  0.00000  0.09959
      10     H     0.44504  0.44504  0.00000  0.10992
      11     C     3.03566  3.03566  0.00000 -0.07133
      12     H     0.45415  0.45415  0.00000  0.09170
      13     H     0.44539  0.44539  0.00000  0.10922
      14     H     0.45446  0.45446  0.00000  0.09109

   Total alpha = 24.00000, Total beta = 24.00000, Total charge =  0.00000

*** Psi4 exiting successfully. Buy a developer a beer!
