  ==> Input File <==

--------------------------------------------------------------------------
set {
	reference rhf
	basis cc-pvtz
}

set_num_threads( 4 )
memory 2 gb

molecule MOL {
0 1

H	 0.417797	 -5.281204	 2.832076
C	 0.644048	 -4.474985	 2.144378
C	 -0.544431	 -3.531674	 1.994931
H	 1.514197	 -3.951098	 2.525721
H	 0.917504	 -4.919742	 1.193363
C	 -0.269998	 -2.382983	 1.035680
H	 -0.817430	 -3.119990	 2.960205
H	 -1.407010	 -4.092635	 1.642996
N	 -1.407051	 -1.493913	 0.933704
H	 0.575852	 -1.807057	 1.399018
H	 0.027026	 -2.786361	 0.062979
C	 -1.215959	 -0.382435	 0.027143
H	 -2.217218	 -2.012392	 0.665135
C	 -2.451944	 0.502410	 -0.038737
H	 -0.374716	 0.203240	 0.385572
H	 -0.953156	 -0.713423	 -0.982044
C	 -3.752217	 -0.292550	 0.005776
H	 -2.407325	 1.093801	 -0.946480
H	 -2.431979	 1.206234	 0.790023
H	 -3.817783	 -0.982946	 -0.828547
H	 -4.612613	 0.364348	 -0.042306
H	 -3.830160	 -0.871666	 0.919868

	symmetry c1
}
set optking {
	frozen_dihedral = ("
		15 12 14 18
	")
}

ee = optimize('scf')
oeprop('DIPOLE', 'QUADRUPOLE', 'MULLIKEN_CHARGES')
f=open( 'psi4out.xyz', 'w' )
f.write( "22  " )
f.write( str(ee) + "\n" )
f.write( MOL.save_string_xyz() )
f.close()
--------------------------------------------------------------------------

    Molecular point group: c1
  Charge       = 0
  Multiplicity = 1
  Basis Set: CC-PVTZ
  Basis Set:
  @DF-RHF Final Energy:  -290.48433950691327
    Total Energy =                       -290.4843395069133862
    Molecular point group: c1
  Basis Set: CC-PVTZ
  Basis Set:
  Basis Set: CC-PVTZ
  Basis Set:
  @DF-RHF Final Energy:  -290.48502880257575
    Total Energy =                       -290.4850288025756413
  Basis Set: CC-PVTZ
  Basis Set:
  Basis Set: CC-PVTZ
  Basis Set:
  @DF-RHF Final Energy:  -290.48624573721082
    Total Energy =                       -290.4862457372113340
  Basis Set: CC-PVTZ
  Basis Set:
  Basis Set: CC-PVTZ
  Basis Set:
  @DF-RHF Final Energy:  -290.48634320065389
    Total Energy =                       -290.4863432006535504
  Basis Set: CC-PVTZ
  Basis Set:
  Basis Set: CC-PVTZ
  Basis Set:
  @DF-RHF Final Energy:  -290.48635187690121
    Total Energy =                       -290.4863518769011534
  Basis Set: CC-PVTZ
  Basis Set:
  Charge       = 0
  Multiplicity = 1
  Basis Set: CC-PVTZ
  Basis Set:

    Orbital Energies (a.u.)
    -----------------------

    Doubly Occupied:

       1A    -15.527592     2A    -11.236814     3A    -11.236106
       4A    -11.212067     5A    -11.211908     6A    -11.207623
       7A    -11.206135     8A     -1.207145     9A     -1.058923
      10A     -1.023392    11A     -0.928589    12A     -0.881508
      13A     -0.805281    14A     -0.786486    15A     -0.670894
      16A     -0.633145    17A     -0.625529    18A     -0.590630
      19A     -0.575503    20A     -0.570715    21A     -0.540463
      22A     -0.529655    23A     -0.504912    24A     -0.486696
      25A     -0.481720    26A     -0.472723    27A     -0.466587
      28A     -0.451536    29A     -0.360699

  @DF-RHF Final Energy:  -290.48635282620586

   => Energetics <=

    Nuclear Repulsion Energy =            318.5826629462831647
    One-Electron Energy =               -1023.1560812105932428
    Two-Electron Energy =                 414.0870654381038776
    DFT Exchange-Correlation Energy =       0.0000000000000000
    Empirical Dispersion Energy =           0.0000000000000000
    PCM Polarization Energy =               0.0000000000000000
    EFP Energy =                            0.0000000000000000
    Total Energy =                       -290.4863528262061436
    Molecular point group: c1
  Basis Set: CC-PVTZ
  Basis Set:

  -Total Gradient:
     Atom            X                  Y                   Z
    ------   -----------------  -----------------  -----------------
       1       -0.000002376179     0.000001801735    -0.000000615752
       2        0.000002257515     0.000006882430    -0.000007253806
       3       -0.000017535875     0.000012286243    -0.000001488502
       4        0.000000128182    -0.000000547641    -0.000000265444
       5        0.000000685004    -0.000000101490     0.000000549901
       6        0.000002750869     0.000038138284    -0.000003359752
       7       -0.000001029178    -0.000000932266     0.000000353400
       8       -0.000001460291    -0.000000135466     0.000001324477
       9       -0.000033796987    -0.000008067705     0.000007243828
      10        0.000012355121    -0.000001305155    -0.000000703053
      11       -0.000002701352    -0.000000446501    -0.000004215676
      12        0.000825374968     0.000911888170    -0.007058926077
      13       -0.000008972322     0.000000940678     0.000011188050
      14        0.003407389322     0.004263190196     0.004601753862
      15       -0.001207574871    -0.001441492495     0.005254788107
      16        0.000017296389     0.000014727924    -0.000027149213
      17        0.000018998885    -0.000011137405    -0.000020095661
      18       -0.003002729883    -0.003798375692    -0.002749740696
      19        0.000003750236     0.000030032033     0.000006666496
      20       -0.000027785773    -0.000007209556    -0.000009915577
      21        0.000009826898     0.000000977089     0.000001644342
      22        0.000005149323    -0.000011113411    -0.000001783251

  **** Optimization is complete! (in 6 steps) ****
    Final optimized geometry and variables:
    Molecular point group: c1

    Geometry (in Angstrom), charge = 0, multiplicity = 1:

    H            1.793863389838    -3.532485690501     1.987061169726
    C            2.003989439821    -2.714980267642     1.307594588188
    C            0.779976858872    -1.824252607932     1.125973334277
    H            2.839064628108    -2.154585842147     1.714563457619
    H            2.323533222690    -3.144326078714     0.363900798952
    C            1.031670992415    -0.661000288960     0.178039145951
    H            0.461662497917    -1.428524346653     2.084065418759
    H           -0.046410584522    -2.421478986835     0.747836356888
    N           -0.139291679624     0.179799165679     0.048325615064
    H            1.843665799148    -0.053010524904     0.565332724312
    H            1.370433949274    -1.048375041386    -0.787677952660
    C            0.033318091661     1.288636515733    -0.870600595467
    H           -0.916834360515    -0.379758529851    -0.228940764967
    C           -1.157857448401     2.250091067298    -0.871278649551
    H            0.907285703155     1.828187202183    -0.523034074194
    H            0.236242712583     0.948257007855    -1.888813245216
    C           -2.526902279103     1.570153560742    -0.889078144268
    H           -1.092364773493     2.856337709365    -1.769568452937
    H           -1.096870745585     2.908856817185    -0.013207057402
    H           -2.618984072972     0.887092760827    -1.728984209254
    H           -3.313837709591     2.309015107781    -0.985084995175
    H           -2.710131807717     1.014318710998     0.021498758478

  Mulliken Charges: (a.u.)
   Center  Symbol    Alpha    Beta     Spin     Total
       1     H     0.44770  0.44770  0.00000  0.10460
       2     C     3.15356  3.15356  0.00000 -0.30712
       3     C     3.08138  3.08138  0.00000 -0.16276
       4     H     0.45466  0.45466  0.00000  0.09069
       5     H     0.45607  0.45607  0.00000  0.08787
       6     C     3.02106  3.02106  0.00000 -0.04212
       7     H     0.44903  0.44903  0.00000  0.10195
       8     H     0.45991  0.45991  0.00000  0.08018
       9     N     3.64462  3.64462  0.00000 -0.28923
      10     H     0.45919  0.45919  0.00000  0.08163
      11     H     0.47500  0.47500  0.00000  0.05000
      12     C     3.03513  3.03513  0.00000 -0.07026
      13     H     0.43991  0.43991  0.00000  0.12017
      14     C     3.07528  3.07528  0.00000 -0.15056
      15     H     0.45586  0.45586  0.00000  0.08829
      16     H     0.46873  0.46873  0.00000  0.06254
      17     C     3.16281  3.16281  0.00000 -0.32563
      18     H     0.45606  0.45606  0.00000  0.08788
      19     H     0.45283  0.45283  0.00000  0.09435
      20     H     0.45580  0.45580  0.00000  0.08839
      21     H     0.44573  0.44573  0.00000  0.10854
      22     H     0.44970  0.44970  0.00000  0.10060

   Total alpha = 29.00000, Total beta = 29.00000, Total charge = -0.00000
