                              Psi4 1.0.54 Driver

  ==> Input File <==

--------------------------------------------------------------------------
set {
	reference rhf
	basis cc-pvtz
}

set_num_threads( 4 )
memory 2 gb

molecule MOL {
0 1

O	 -1.278239	 1.034789	 -0.784693
C	 -1.204115	 0.062668	 -0.112312
C	 -2.386398	 -0.667698	 0.460323
O	 -0.068058	 -0.518372	 0.226882
H	 -2.382952	 -1.693172	 0.114333
H	 -3.296656	 -0.175702	 0.158400
H	 -2.312537	 -0.685191	 1.540100
C	 0.374986	 -0.454404	 1.586449
C	 1.885098	 -0.577234	 1.546600
C	 -0.288897	 -1.552767	 2.397291
H	 0.091684	 0.508958	 1.982379
H	 2.318293	 0.219496	 0.955573
H	 2.288792	 -0.517586	 2.550186
H	 2.182091	 -1.524865	 1.113327
H	 0.054783	 -1.513431	 3.424343
H	 -1.363493	 -1.434907	 2.396067
H	 -0.041360	 -2.527070	 1.991407

	symmetry c1
}
set optking {
	frozen_dihedral = ("
		8 4 2 1
	")
}

ee,wfn = optimize('scf', return_wfn=True)
oeprop( wfn, 'DIPOLE', 'QUADRUPOLE', 'MULLIKEN_CHARGES')
f=open( 'psi4out.xyz', 'w' )
f.write( "17  " )
f.write( str(ee) + "\n" )
f.write( MOL.save_string_xyz() )
f.close()
--------------------------------------------------------------------------

    Molecular point group: c1
  Charge       = 0
  Multiplicity = 1
  Basis Set: CC-PVTZ
  Basis Set:
  @DF-RHF Final Energy:  -345.00610477779964
    Total Energy =                       -345.0061047777999192
    Molecular point group: c1
  Basis Set: CC-PVTZ
  Basis Set:
  Basis Set: CC-PVTZ
  Basis Set:
  @DF-RHF Final Energy:  -345.01819480585647
    Total Energy =                       -345.0181948058567514
  Basis Set: CC-PVTZ
  Basis Set:
  Basis Set: CC-PVTZ
  Basis Set:
  @DF-RHF Final Energy:  -345.02099997072230
    Total Energy =                       -345.0209999707223005
  Basis Set: CC-PVTZ
  Basis Set:
  Basis Set: CC-PVTZ
  Basis Set:
  @DF-RHF Final Energy:  -345.02165304806761
    Total Energy =                       -345.0216530480675488
  Basis Set: CC-PVTZ
  Basis Set:
  @DF-RHF Final Energy:  -345.02178325429969
    Total Energy =                       -345.0217832542996348
  @DF-RHF Final Energy:  -345.02241897934351
    Total Energy =                       -345.0224189793432288
  @DF-RHF Final Energy:  -345.02257007377011
    Total Energy =                       -345.0225700737701118
  @DF-RHF Final Energy:  -345.02266831377091
    Total Energy =                       -345.0226683137714190
  @DF-RHF Final Energy:  -345.02288100556603
    Total Energy =                       -345.0228810055661484
  @DF-RHF Final Energy:  -345.02306046161738
    Total Energy =                       -345.0230604616174332
  @DF-RHF Final Energy:  -345.02332541455411
    Total Energy =                       -345.0233254145535966
  @DF-RHF Final Energy:  -345.02351736763615
    Total Energy =                       -345.0235173676362024
  @DF-RHF Final Energy:  -345.02356044212718
    Total Energy =                       -345.0235604421272910
  @DF-RHF Final Energy:  -345.02358126429078
    Total Energy =                       -345.0235812642909536
  @DF-RHF Final Energy:  -345.02364014494941
    Total Energy =                       -345.0236401449493542
  @DF-RHF Final Energy:  -345.02373793048145
    Total Energy =                       -345.0237379304815022
  @DF-RHF Final Energy:  -345.02386527771625
    Total Energy =                       -345.0238652777161974
  @DF-RHF Final Energy:  -345.02388155066171
    Total Energy =                       -345.0238815506617129
  @DF-RHF Final Energy:  -345.02398936386356
    Total Energy =                       -345.0239893638635067
  @DF-RHF Final Energy:  -345.02400713825415
    Total Energy =                       -345.0240071382540918
  @DF-RHF Final Energy:  -345.02402710706633
    Total Energy =                       -345.0240271070666722
  @DF-RHF Final Energy:  -345.02407416375553
    Total Energy =                       -345.0240741637554720
  @DF-RHF Final Energy:  -345.02410881468677
    Total Energy =                       -345.0241088146865422
  Basis Set: CC-PVTZ
  Basis Set:
  @DF-RHF Final Energy:  -345.02405581244722
    Total Energy =                       -345.0240558124470454
  Basis Set: CC-PVTZ
  Basis Set:
  Basis Set: CC-PVTZ
  Basis Set:
  @DF-RHF Final Energy:  -345.02412438731176
    Total Energy =                       -345.0241243873120993
  Basis Set: CC-PVTZ
  Basis Set:
  Basis Set: CC-PVTZ
  Basis Set:
  @DF-RHF Final Energy:  -345.02412566509150
    Total Energy =                       -345.0241256650918444
  Basis Set: CC-PVTZ
  Basis Set:
  Charge       = 0
  Multiplicity = 1
  Basis Set: CC-PVTZ
  Basis Set:

    Orbital Energies (a.u.)
    -----------------------

    Doubly Occupied:

       1A    -20.574683     2A    -20.540491     3A    -11.368520
       4A    -11.300549     5A    -11.235964     6A    -11.220895
       7A    -11.219344     8A     -1.458574     9A     -1.367787
      10A     -1.074827    11A     -1.012642    12A     -0.953732
      13A     -0.852670    14A     -0.767828    15A     -0.695261
      16A     -0.676597    17A     -0.658310    18A     -0.625263
      19A     -0.591183    20A     -0.587982    21A     -0.558070
      22A     -0.553188    23A     -0.542322    24A     -0.525412
      25A     -0.510719    26A     -0.480152    27A     -0.451142
      28A     -0.436774

  @DF-RHF Final Energy:  -345.02412647330010

   => Energetics <=

    Nuclear Repulsion Energy =            323.3156454943699032
    One-Electron Energy =               -1110.9977804684044713
    Two-Electron Energy =                 442.6580085007345815
    DFT Exchange-Correlation Energy =       0.0000000000000000
    Empirical Dispersion Energy =           0.0000000000000000
    PCM Polarization Energy =               0.0000000000000000
    EFP Energy =                            0.0000000000000000
    Total Energy =                       -345.0241264733000435
    Molecular point group: c1
  Basis Set: CC-PVTZ
  Basis Set:

  -Total Gradient:
     Atom            X                  Y                   Z
    ------   -----------------  -----------------  -----------------
       1        0.000724504186     0.000806223117     0.000757360912
       2       -0.000545526019    -0.001035098175    -0.001387569992
       3       -0.000008313288     0.000012205913    -0.000024360367
       4       -0.001126550765     0.000045590146     0.001055151437
       5       -0.000015610601     0.000027999189    -0.000019882134
       6       -0.000053062046     0.000019288598     0.000005809884
       7        0.000027159724    -0.000003181914    -0.000004772259
       8        0.000952257708     0.000098224863    -0.000450005230
       9        0.000003316703     0.000003709036     0.000020433359
      10        0.000057302834     0.000021074813     0.000030313223
      11        0.000010142104     0.000005135724     0.000035508569
      12       -0.000004860240     0.000015096663    -0.000013993653
      13        0.000011729424     0.000000887151     0.000004769160
      14        0.000002448740    -0.000001931382     0.000003866382
      15        0.000009275375    -0.000011236527     0.000003364814
      16       -0.000046470264     0.000001952713    -0.000016964139
      17        0.000002256426    -0.000005939930     0.000000970037

  **** Optimization is complete! (in 27 steps) ****
    Final optimized geometry and variables:
    Molecular point group: c1

    Geometry (in Angstrom), charge = 0, multiplicity = 1:

    O           -0.024340701538     0.934027116901    -1.890306796616
    C           -0.595318118181     0.519753115499    -0.948367524420
    C           -1.893109809648     1.094299300425    -0.442958180799
    O           -0.153493525900    -0.562604667324    -0.285597509683
    H           -2.647881901554     0.318074243652    -0.433792055038
    H           -2.201671820664     1.905882135476    -1.081603293028
    H           -1.783773449860     1.457140277211     0.571119081168
    C            0.398617953098    -0.437595079239     1.022890416476
    C            1.731020568267     0.290965034192     0.973098886375
    C            0.518628325618    -1.846891732617     1.565710853190
    H           -0.294216299001     0.119957147239     1.644839768001
    H            1.621810807059     1.291654504815     0.574383501459
    H            2.146687093999     0.368603468886     1.971090146574
    H            2.429655907621    -0.245875667830     0.343958118742
    H            0.912808029682    -1.827662874172     2.574629548260
    H           -0.448901741626    -2.331428484516     1.581548807661
    H            1.184666987558    -2.432811879229     0.944729966618

  Mulliken Charges: (a.u.)
   Center  Symbol    Alpha    Beta     Spin     Total
       1     O     4.17232  4.17232  0.00000 -0.34465
       2     C     2.80854  2.80854  0.00000  0.38292
       3     C     3.15228  3.15228  0.00000 -0.30455
       4     O     4.17008  4.17008  0.00000 -0.34016
       5     H     0.44257  0.44257  0.00000  0.11486
       6     H     0.43358  0.43358  0.00000  0.13284
       7     H     0.45079  0.45079  0.00000  0.09843
       8     C     2.94340  2.94340  0.00000  0.11321
       9     C     3.14149  3.14149  0.00000 -0.28297
      10     C     3.13737  3.13737  0.00000 -0.27475
      11     H     0.45466  0.45466  0.00000  0.09067
      12     H     0.44746  0.44746  0.00000  0.10508
      13     H     0.45037  0.45037  0.00000  0.09926
      14     H     0.44576  0.44576  0.00000  0.10848
      15     H     0.45596  0.45596  0.00000  0.08808
      16     H     0.44597  0.44597  0.00000  0.10807
      17     H     0.44740  0.44740  0.00000  0.10519

   Total alpha = 28.00000, Total beta = 28.00000, Total charge =  0.00000

*** Psi4 exiting successfully. Buy a developer a beer!
