  ==> Input File <==

--------------------------------------------------------------------------
set {
	reference rhf
	basis cc-pvtz
}

set_num_threads( 4 )
memory 2 gb

molecule MOL {
0 1

H	 -2.498963	 -0.741158	 -0.729149
O	 -2.346257	 -0.289210	 0.080372
C	 -1.183935	 0.486039	 -0.009831
C	 0.062853	 -0.375310	 0.027457
H	 -1.178881	 1.094526	 -0.908634
H	 -1.184406	 1.155156	 0.838676
O	 0.928086	 0.065260	 -0.966887
H	 -0.202731	 -1.421615	 -0.132565
H	 0.525589	 -0.302676	 1.009380
C	 2.135550	 -0.619820	 -1.029487
H	 1.982405	 -1.677280	 -1.233446
H	 2.717989	 -0.191518	 -1.831988
H	 2.694288	 -0.525715	 -0.101330

	symmetry c1
}
set optking {
	frozen_dihedral = ("
		8 4 3 5
	")
}

ee = optimize('scf')
oeprop('DIPOLE', 'QUADRUPOLE', 'MULLIKEN_CHARGES')
f=open( 'psi4out.xyz', 'w' )
f.write( "13  " )
f.write( str(ee) + "\n" )
f.write( MOL.save_string_xyz() )
f.close()
--------------------------------------------------------------------------

    Molecular point group: c1
  Charge       = 0
  Multiplicity = 1
  Basis Set: CC-PVTZ
  Basis Set:
  @DF-RHF Final Energy:  -268.05695279953113
    Total Energy =                       -268.0569527995310182
    Molecular point group: c1
  Basis Set: CC-PVTZ
  Basis Set:
  Basis Set: CC-PVTZ
  Basis Set:
  @DF-RHF Final Energy:  -268.05745651478674
    Total Energy =                       -268.0574565147867929
  Basis Set: CC-PVTZ
  Basis Set:
  Basis Set: CC-PVTZ
  Basis Set:
  @DF-RHF Final Energy:  -268.05763453087974
    Total Energy =                       -268.0576345308797386
  Basis Set: CC-PVTZ
  Basis Set:
  Basis Set: CC-PVTZ
  Basis Set:
  @DF-RHF Final Energy:  -268.05763734227639
    Total Energy =                       -268.0576373422765073
  Basis Set: CC-PVTZ
  Basis Set:
  Charge       = 0
  Multiplicity = 1
  Basis Set: CC-PVTZ
  Basis Set:

    Orbital Energies (a.u.)
    -----------------------

    Doubly Occupied:

       1A    -20.556557     2A    -20.550906     3A    -11.269870
       4A    -11.267997     5A    -11.267578     6A     -1.391805
       7A     -1.367524     8A     -1.017052     9A     -0.915393
      10A     -0.843587    11A     -0.708322    12A     -0.680279
      13A     -0.660323    14A     -0.631766    15A     -0.609963
      16A     -0.567009    17A     -0.540077    18A     -0.493567
      19A     -0.485358    20A     -0.440795    21A     -0.422472

  @DF-RHF Final Energy:  -268.05763772158429

   => Energetics <=

    Nuclear Repulsion Energy =            190.3812039356043897
    One-Electron Energy =                -743.5012876633380756
    Two-Electron Energy =                 285.0624460061494574
    DFT Exchange-Correlation Energy =       0.0000000000000000
    Empirical Dispersion Energy =           0.0000000000000000
    PCM Polarization Energy =               0.0000000000000000
    EFP Energy =                            0.0000000000000000
    Total Energy =                       -268.0576377215842285
    Molecular point group: c1
  Basis Set: CC-PVTZ
  Basis Set:

  -Total Gradient:
     Atom            X                  Y                   Z
    ------   -----------------  -----------------  -----------------
       1       -0.000009694834    -0.000000253936    -0.000002832929
       2        0.000002423649    -0.000019029352    -0.000010454094
       3       -0.001535947486    -0.002229437221    -0.000900567827
       4        0.000514525535     0.000803464643    -0.002730763648
       5        0.001227726265     0.001777054428     0.001220394067
       6        0.000006467146    -0.000008170884     0.000000661273
       7        0.000003849977    -0.000007747407     0.000002345427
       8       -0.000240325267    -0.000324899624     0.002451443479
       9        0.000002268098     0.000013539792    -0.000018452038
      10        0.000013149379    -0.000001860045    -0.000006195724
      11        0.000004086598     0.000000238107    -0.000004437324
      12        0.000004868365    -0.000003827257    -0.000001876741
      13        0.000006602570     0.000000928755     0.000000736078

  **** Optimization is complete! (in 5 steps) ****
    Final optimized geometry and variables:
    Molecular point group: c1

    Geometry (in Angstrom), charge = 0, multiplicity = 1:

    H           -2.428580398577    -0.582902285127    -0.293989922360
    O           -2.274152888953    -0.096917096584     0.495663381793
    C           -1.091661205732     0.642421009606     0.378034857627
    C            0.165154185850    -0.230228166289     0.387613678055
    H           -1.077578117328     1.247789411927    -0.521233824070
    H           -1.083845997577     1.321369675268     1.218730439710
    O            1.041681817500     0.215922961253    -0.597891022362
    H           -0.117995634159    -1.268386620217     0.222161079784
    H            0.650568383817    -0.192638512267     1.360918440079
    C            2.257579731097    -0.455946769236    -0.632276692171
    H            2.120038045092    -1.518285556304    -0.821779756271
    H            2.846834518395    -0.033004086301    -1.432714083124
    H            2.801914748546    -0.341680959534     0.302298774943

  Mulliken Charges: (a.u.)
   Center  Symbol    Alpha    Beta     Spin     Total
       1     H     0.39315  0.39315  0.00000  0.21369
       2     O     4.20274  4.20274  0.00000 -0.40549
       3     C     2.97121  2.97121  0.00000  0.05759
       4     C     2.97088  2.97088  0.00000  0.05825
       5     H     0.46326  0.46326  0.00000  0.07348
       6     H     0.45731  0.45731  0.00000  0.08537
       7     O     4.17391  4.17391  0.00000 -0.34782
       8     H     0.47550  0.47550  0.00000  0.04900
       9     H     0.47470  0.47470  0.00000  0.05059
      10     C     3.02932  3.02932  0.00000 -0.05863
      11     H     0.47147  0.47147  0.00000  0.05706
      12     H     0.44624  0.44624  0.00000  0.10752
      13     H     0.47031  0.47031  0.00000  0.05938

   Total alpha = 21.00000, Total beta = 21.00000, Total charge = -0.00000
