                              Psi4 1.0.54 Driver

  ==> Input File <==

--------------------------------------------------------------------------
set {
	reference rhf
	basis cc-pvtz
}

set_num_threads( 4 )
memory 2 gb

molecule MOL {
0 1

O	 -2.071633	 -1.227563	 -0.223463
C	 -1.652164	 -0.152425	 0.058082
C	 -0.327811	 0.006324	 0.778296
C	 -2.402515	 1.108629	 -0.298924
C	 0.843231	 -0.001575	 -0.211665
H	 -0.319484	 0.928173	 1.350354
H	 -0.227804	 -0.823091	 1.466705
C	 1.360692	 -1.407579	 -0.500834
H	 1.657014	 0.605832	 0.176288
H	 0.520116	 0.466215	 -1.135317
C	 2.517183	 -1.421418	 -1.494564
H	 1.677119	 -1.873394	 0.428366
H	 0.546499	 -2.014738	 -0.885526
H	 3.361155	 -0.850592	 -1.121866
H	 2.221128	 -0.990297	 -2.444751
H	 2.859199	 -2.432492	 -1.682063
H	 -3.240910	 0.874416	 -0.936711
H	 -1.747554	 1.818823	 -0.790984
H	 -2.760419	 1.579708	 0.610998

	symmetry c1
}
set optking {
	frozen_dihedral = ("
		9 5 3 2
	")
}

ee,wfn = optimize('scf', return_wfn=True)
oeprop( wfn, 'DIPOLE', 'QUADRUPOLE', 'MULLIKEN_CHARGES')
f=open( 'psi4out.xyz', 'w' )
f.write( "19  " )
f.write( str(ee) + "\n" )
f.write( MOL.save_string_xyz() )
f.close()
--------------------------------------------------------------------------

    Molecular point group: c1
  Charge       = 0
  Multiplicity = 1
  Basis Set: CC-PVTZ
  Basis Set:
  @DF-RHF Final Energy:  -309.17448873942692
    Total Energy =                       -309.1744887394269199
    Molecular point group: c1
  Basis Set: CC-PVTZ
  Basis Set:
  Basis Set: CC-PVTZ
  Basis Set:
  @DF-RHF Final Energy:  -309.17475881370626
    Total Energy =                       -309.1747588137067169
  Basis Set: CC-PVTZ
  Basis Set:
  Basis Set: CC-PVTZ
  Basis Set:
  @DF-RHF Final Energy:  -309.17482186021488
    Total Energy =                       -309.1748218602148199
  Basis Set: CC-PVTZ
  Basis Set:
  Basis Set: CC-PVTZ
  Basis Set:
  @DF-RHF Final Energy:  -309.17488873545051
    Total Energy =                       -309.1748887354507360
  Basis Set: CC-PVTZ
  Basis Set:
  @DF-RHF Final Energy:  -309.17491507447943
    Total Energy =                       -309.1749150744792587
  @DF-RHF Final Energy:  -309.17492136800070
    Total Energy =                       -309.1749213680009802
  Basis Set: CC-PVTZ
  Basis Set:
  @DF-RHF Final Energy:  -309.17492522243282
    Total Energy =                       -309.1749252224329325
  Basis Set: CC-PVTZ
  Basis Set:
  Basis Set: CC-PVTZ
  Basis Set:
  @DF-RHF Final Energy:  -309.17493187989720
    Total Energy =                       -309.1749318798968034
  Basis Set: CC-PVTZ
  Basis Set:
  Basis Set: CC-PVTZ
  Basis Set:
  @DF-RHF Final Energy:  -309.17493313056031
    Total Energy =                       -309.1749331305601345
  Basis Set: CC-PVTZ
  Basis Set:
  Charge       = 0
  Multiplicity = 1
  Basis Set: CC-PVTZ
  Basis Set:

    Orbital Energies (a.u.)
    -----------------------

    Doubly Occupied:

       1A    -20.537490     2A    -11.319885     3A    -11.230068
       4A    -11.228350     5A    -11.227113     6A    -11.216520
       7A    -11.209683     8A     -1.397248     9A     -1.090717
      10A     -1.029186    11A     -0.982477    12A     -0.890109
      13A     -0.807285    14A     -0.735521    15A     -0.662887
      16A     -0.643429    17A     -0.623518    18A     -0.609337
      19A     -0.586035    20A     -0.575027    21A     -0.552281
      22A     -0.534941    23A     -0.523158    24A     -0.499119
      25A     -0.478700    26A     -0.474043    27A     -0.464042
      28A     -0.399357

  @DF-RHF Final Energy:  -309.17493322792075

   => Energetics <=

    Nuclear Repulsion Energy =            306.6577794497138711
    One-Electron Energy =               -1026.6103803895375677
    Two-Electron Energy =                 410.7776677119027227
    DFT Exchange-Correlation Energy =       0.0000000000000000
    Empirical Dispersion Energy =           0.0000000000000000
    PCM Polarization Energy =               0.0000000000000000
    EFP Energy =                            0.0000000000000000
    Total Energy =                       -309.1749332279209739
    Molecular point group: c1
  Basis Set: CC-PVTZ
  Basis Set:

  -Total Gradient:
     Atom            X                  Y                   Z
    ------   -----------------  -----------------  -----------------
       1       -0.000002459729    -0.000002519765    -0.000002252800
       2       -0.000147942472     0.002120892163    -0.000159631552
       3       -0.000055211653    -0.002333673701    -0.000096238920
       4       -0.000026382522    -0.000003965596     0.000027611768
       5        0.001307470612    -0.002170841521     0.001545011335
       6       -0.000000511905    -0.000000396798     0.000001844003
       7        0.000001416370    -0.000002096402    -0.000001485506
       8        0.000016119627    -0.000001571881     0.000005098662
       9       -0.001108748698     0.002383470576    -0.001295040378
      10       -0.000000989327     0.000001076430    -0.000002079772
      11       -0.000004237745     0.000000669845    -0.000005167682
      12       -0.000000630715    -0.000000662714     0.000002133736
      13        0.000000505526     0.000000179987     0.000000975573
      14        0.000000078182    -0.000000587978     0.000001977082
      15        0.000001407754     0.000001234102    -0.000002305636
      16       -0.000000589236     0.000000201481    -0.000001115824
      17        0.000004282352    -0.000000567645    -0.000005831056
      18        0.000010228680    -0.000002073767    -0.000008444326
      19        0.000006194897     0.000011233184    -0.000005058708

  **** Optimization is complete! (in 10 steps) ****
    Final optimized geometry and variables:
    Molecular point group: c1

    Geometry (in Angstrom), charge = 0, multiplicity = 1:

    O           -1.892761755508    -0.775471873575     0.167116370628
    C           -1.404719006547     0.287822843664     0.376172099654
    C           -0.076254894615     0.426698319735     1.091161216899
    C           -2.079710050880     1.564782607446    -0.068663174979
    C            1.102249987487     0.430831607906     0.096348256219
    H           -0.076333265139     1.351813608871     1.656491937109
    H            0.023175882827    -0.394664612461     1.788083060124
    C            1.606477887877    -0.964870415200    -0.258365073419
    H            1.908542838277     1.028821090059     0.507399341288
    H            0.805103898640     0.943710549877    -0.815317892636
    C            2.727493755580    -0.942869937212    -1.291507369042
    H            1.957176241974    -1.453382007678     0.646097854764
    H            0.779931931812    -1.562233698726    -0.626718325412
    H            3.578146759884    -0.369504492945    -0.937459793258
    H            2.393841846126    -0.497324296908    -2.222807567497
    H            3.073872266227    -1.945698363404    -1.511838822464
    H           -2.901156414381     1.338021817649    -0.730758012629
    H           -1.377524596000     2.228925800619    -0.558525075874
    H           -2.456980619469     2.084835869491     0.806232933735

  Mulliken Charges: (a.u.)
   Center  Symbol    Alpha    Beta     Spin     Total
       1     O     4.17719  4.17719  0.00000 -0.35437
       2     C     2.85821  2.85821  0.00000  0.28358
       3     C     3.10781  3.10781  0.00000 -0.21562
       4     C     3.15430  3.15430  0.00000 -0.30859
       5     C     3.10152  3.10152  0.00000 -0.20305
       6     H     0.44062  0.44062  0.00000  0.11876
       7     H     0.43979  0.43979  0.00000  0.12043
       8     C     3.08138  3.08138  0.00000 -0.16276
       9     H     0.44527  0.44527  0.00000  0.10946
      10     H     0.45447  0.45447  0.00000  0.09106
      11     C     3.15072  3.15072  0.00000 -0.30144
      12     H     0.45424  0.45424  0.00000  0.09153
      13     H     0.44180  0.44180  0.00000  0.11640
      14     H     0.45627  0.45627  0.00000  0.08746
      15     H     0.45488  0.45488  0.00000  0.09023
      16     H     0.44645  0.44645  0.00000  0.10710
      17     H     0.43646  0.43646  0.00000  0.12708
      18     H     0.45073  0.45073  0.00000  0.09854
      19     H     0.44789  0.44789  0.00000  0.10421

   Total alpha = 28.00000, Total beta = 28.00000, Total charge =  0.00000

*** Psi4 exiting successfully. Buy a developer a beer!
