  ==> Input File <==

--------------------------------------------------------------------------
set {
	reference rhf
	basis 6-31G*
}

set_num_threads( 4 )
memory 2 gb

molecule MOL {
0 1

H	 -4.032636	 0.833330	 -0.952450
O	 -3.395279	 0.150681	 -0.798597
C	 -2.173731	 0.724094	 -0.409226
C	 -1.177863	 -0.397191	 -0.171080
H	 -1.801871	 1.395202	 -1.182299
H	 -2.298508	 1.311141	 0.499700
C	 0.198102	 0.111031	 0.262842
H	 -1.091350	 -0.977554	 -1.085641
H	 -1.586905	 -1.063169	 0.583661
C	 1.331804	 -0.827780	 -0.158768
H	 0.361943	 1.100838	 -0.156218
H	 0.217265	 0.229072	 1.345532
C	 2.723619	 -0.410569	 0.329459
H	 1.342964	 -0.912588	 -1.244120
H	 1.116806	 -1.824343	 0.220779
C	 3.243875	 0.895854	 -0.272975
H	 3.424222	 -1.207124	 0.091250
H	 2.714788	 -0.329854	 1.414619
H	 3.251977	 0.848779	 -1.358681
H	 2.637085	 1.747371	 0.016682
H	 4.259473	 1.094070	 0.055697

	symmetry c1
}
set optking {
	frozen_dihedral = ("
		8 4 7 10
	")
}

ee = optimize('scf')
oeprop('DIPOLE', 'QUADRUPOLE', 'MULLIKEN_CHARGES')
f=open( 'psi4out.xyz', 'w' )
f.write( "21  " )
f.write( str(ee) + "\n" )
f.write( MOL.save_string_xyz() )
f.close()
--------------------------------------------------------------------------

    Molecular point group: c1
  Charge       = 0
  Multiplicity = 1
  Basis Set: 6-31G*
  Basis Set:
  @DF-RHF Final Energy:  -310.21048909912827
    Total Energy =                       -310.2104890991284378
    Molecular point group: c1
  Basis Set: 6-31G*
  Basis Set:
  Basis Set: 6-31G*
  Basis Set:
  @DF-RHF Final Energy:  -310.21067463894690
    Total Energy =                       -310.2106746389471823
  Basis Set: 6-31G*
  Basis Set:
  Basis Set: 6-31G*
  Basis Set:
  @DF-RHF Final Energy:  -310.21072154041519
    Total Energy =                       -310.2107215404149656
  Basis Set: 6-31G*
  Basis Set:
  Basis Set: 6-31G*
  Basis Set:
  @DF-RHF Final Energy:  -310.21071515107053
    Total Energy =                       -310.2107151510705307
  Basis Set: 6-31G*
  Basis Set:
  Basis Set: 6-31G*
  Basis Set:
  @DF-RHF Final Energy:  -310.21072841012642
    Total Energy =                       -310.2107284101263076
  Basis Set: 6-31G*
  Basis Set:
  Charge       = 0
  Multiplicity = 1
  Basis Set: 6-31G*
  Basis Set:

    Orbital Energies (a.u.)
    -----------------------

    Doubly Occupied:

       1A    -20.552015     2A    -11.267487     3A    -11.215652
       4A    -11.215083     5A    -11.213811     6A    -11.210374
       7A    -11.208412     8A     -1.359013     9A     -1.085713
      10A     -1.032697    11A     -0.954479    12A     -0.875822
      13A     -0.808495    14A     -0.779022    15A     -0.693363
      16A     -0.655857    17A     -0.626507    18A     -0.606428
      19A     -0.582374    20A     -0.575871    21A     -0.530010
      22A     -0.524495    23A     -0.511300    24A     -0.484647
      25A     -0.480682    26A     -0.460676    27A     -0.454624
      28A     -0.443397    29A     -0.433362

  @DF-RHF Final Energy:  -310.21072905283694

   => Energetics <=

    Nuclear Repulsion Energy =            312.7185042361587080
    One-Electron Energy =               -1040.1751251463642802
    Two-Electron Energy =                 417.2458918573687470
    DFT Exchange-Correlation Energy =       0.0000000000000000
    Empirical Dispersion Energy =           0.0000000000000000
    PCM Polarization Energy =               0.0000000000000000
    EFP Energy =                            0.0000000000000000
    Total Energy =                       -310.2107290528368821
    Molecular point group: c1
  Basis Set: 6-31G*
  Basis Set:

  -Total Gradient:
     Atom            X                  Y                   Z
    ------   -----------------  -----------------  -----------------
       1        0.000011003988     0.000004303370     0.000003288024
       2        0.000014696023    -0.000016122283     0.000003246954
       3        0.000030628109     0.000015598330    -0.000016431225
       4       -0.000534411610     0.004343577809    -0.003521360543
       5       -0.000007486561     0.000010543562    -0.000001762659
       6        0.000001051505    -0.000011979865    -0.000002742684
       7       -0.000220417190    -0.002526617613     0.003782006672
       8        0.000530141787    -0.003068503362     0.002111908285
       9       -0.000002778867    -0.000011676243     0.000026339618
      10        0.000214559937     0.001260165109    -0.002359796892
      11       -0.000018740673     0.000014452288    -0.000010659939
      12       -0.000010316359    -0.000014453191     0.000004281068
      13       -0.000007708319    -0.000013593840    -0.000008313850
      14        0.000009768844     0.000022921794     0.000009703007
      15        0.000014656208    -0.000015341878    -0.000006496374
      16       -0.000005420294     0.000018659098    -0.000001281383
      17       -0.000019439601    -0.000018566140    -0.000001418370
      18       -0.000003190440     0.000002988716    -0.000006749058
      19        0.000012465181    -0.000001576790    -0.000002824838
      20       -0.000003146702     0.000003108152    -0.000008342078
      21       -0.000005914964     0.000002112978     0.000007406267

  **** Optimization is complete! (in 6 steps) ****
    Final optimized geometry and variables:
    Molecular point group: c1

    Geometry (in Angstrom), charge = 0, multiplicity = 1:

    H           -4.110713079503     0.753667710741    -0.678538714709
    O           -3.465721303266     0.076944888165    -0.530359003556
    C           -2.225451050848     0.663550012642    -0.232773161421
    C           -1.214561613511    -0.445436080084    -0.009409342648
    H           -1.897961547675     1.304830607102    -1.049956144611
    H           -2.298050634389     1.284623525076     0.659437312431
    C            0.169623845347     0.073897431202     0.405473137234
    H           -1.141306896397    -1.052628991434    -0.907283906996
    H           -1.604741136532    -1.109055243036     0.757440633437
    C            1.301648195646    -0.877101885359     0.006571398597
    H            0.343814766018     1.042799409540    -0.058066327392
    H            0.191061905106     0.245357467815     1.479392360703
    C            2.688035971241    -0.476609620143     0.522258680223
    H            1.329677456824    -0.956824354523    -1.078602110982
    H            1.069889335673    -1.873737089583     0.377479257984
    C            3.225203783605     0.835860105649    -0.051733330290
    H            3.387343860736    -1.273996824133     0.282962306859
    H            2.662551158994    -0.412079524959     1.608178767613
    H            3.249749361361     0.805831922701    -1.137856762060
    H            2.618955077773     1.686347046381     0.242185924867
    H            4.236767065322     1.022731745288     0.295426816305

  Mulliken Charges: (a.u.)
   Center  Symbol    Alpha    Beta     Spin     Total
       1     H     0.28113  0.28113  0.00000  0.43773
       2     O     4.37152  4.37152  0.00000 -0.74305
       3     C     2.99140  2.99140  0.00000  0.01721
       4     C     3.16027  3.16027  0.00000 -0.32055
       5     H     0.43252  0.43252  0.00000  0.13495
       6     H     0.43270  0.43270  0.00000  0.13460
       7     C     3.16254  3.16254  0.00000 -0.32508
       8     H     0.41410  0.41410  0.00000  0.17181
       9     H     0.41336  0.41336  0.00000  0.17327
      10     C     3.15334  3.15334  0.00000 -0.30669
      11     H     0.42286  0.42286  0.00000  0.15429
      12     H     0.42072  0.42072  0.00000  0.15856
      13     C     3.15277  3.15277  0.00000 -0.30554
      14     H     0.42296  0.42296  0.00000  0.15409
      15     H     0.42064  0.42064  0.00000  0.15872
      16     C     3.24138  3.24138  0.00000 -0.48277
      17     H     0.42066  0.42066  0.00000  0.15868
      18     H     0.42325  0.42325  0.00000  0.15350
      19     H     0.42225  0.42225  0.00000  0.15550
      20     H     0.42050  0.42050  0.00000  0.15900
      21     H     0.41912  0.41912  0.00000  0.16175

   Total alpha = 29.00000, Total beta = 29.00000, Total charge =  0.00000
