  ==> Input File <==

--------------------------------------------------------------------------
set {
	reference rhf
	basis 6-31G*
}

set_num_threads( 1 )
memory 2 gb

molecule MOL {
0 1

H	 -3.301617	 0.570527	 0.000000
C	 -2.250981	 0.344174	 0.000000
C	 -1.813665	 -0.976045	 0.000000
C	 -1.315303	 1.358057	 0.000000
H	 -2.528860	 -1.779366	 0.000000
C	 -0.467298	 -1.270142	 0.000000
H	 -1.635074	 2.385107	 0.000000
C	 0.047081	 1.078114	 0.000000
H	 -0.115948	 -2.285222	 0.000000
C	 0.472063	 -0.241155	 0.000000
H	 0.749976	 1.888426	 0.000000
O	 1.765256	 -0.628444	 0.000000
C	 2.549293	 -0.429893	 1.140586
H	 2.630079	 0.623302	 1.388754
H	 3.530217	 -0.813766	 0.903435
H	 2.152915	 -0.969992	 1.994113

	symmetry c1
}
set optking {
	frozen_dihedral = ("
		10 12 13 14
	")
}

ee = energy('scf')
oeprop('DIPOLE', 'QUADRUPOLE', 'MULLIKEN_CHARGES')
f=open( 'psi4out.xyz', 'w' )
f.write( "16  " )
f.write( str(ee) + "\n" )
f.write( MOL.save_string_xyz() )
f.close()
--------------------------------------------------------------------------

    Molecular point group: c1

    Geometry (in Angstrom), charge = 0, multiplicity = 1:

       Center              X                  Y                   Z               Mass
    ------------   -----------------  -----------------  -----------------  -----------------
           H         -3.268141135352     0.682305929481    -0.166641574825     1.007825032070
           C         -2.217505135352     0.455952929481    -0.166641574825    12.000000000000
           C         -1.780189135352    -0.864266070519    -0.166641574825    12.000000000000
           C         -1.281827135352     1.469835929481    -0.166641574825    12.000000000000
           H         -2.495384135352    -1.667587070519    -0.166641574825     1.007825032070
           C         -0.433822135352    -1.158363070519    -0.166641574825    12.000000000000
           H         -1.601598135352     2.496885929481    -0.166641574825     1.007825032070
           C          0.080556864648     1.189892929481    -0.166641574825    12.000000000000
           H         -0.082472135352    -2.173443070519    -0.166641574825     1.007825032070
           C          0.505538864648    -0.129376070519    -0.166641574825    12.000000000000
           H          0.783451864648     2.000204929481    -0.166641574825     1.007825032070
           O          1.798731864648    -0.516665070519    -0.166641574825    15.994914619560
           C          2.582768864648    -0.318114070519     0.973944425175    12.000000000000
           H          2.663554864648     0.735080929481     1.222112425175     1.007825032070
           H          3.563692864648    -0.701987070519     0.736793425175     1.007825032070
           H          2.186390864648    -0.858213070519     1.827471425175     1.007825032070

  Charge       = 0
  Multiplicity = 1
  Basis Set: 6-31G*
  Basis Set:

    Orbital Energies (a.u.)
    -----------------------

    Doubly Occupied:

       1A    -20.571616     2A    -11.287650     3A    -11.276712
       4A    -11.232775     5A    -11.231082     6A    -11.226463
       7A    -11.224469     8A    -11.221278     9A     -1.405634
      10A     -1.146428    11A     -1.018296    12A     -1.014843
      13A     -0.935407    14A     -0.832158    15A     -0.805844
      16A     -0.715280    17A     -0.667845    18A     -0.664003
      19A     -0.639748    20A     -0.612303    21A     -0.595997
      22A     -0.583628    23A     -0.530016    24A     -0.506824
      25A     -0.504119    26A     -0.480444    27A     -0.436845
      28A     -0.334264    29A     -0.316983

  @DF-RHF Final Energy:  -344.57878753610737

   => Energetics <=

    Nuclear Repulsion Energy =            347.7042173733774462
    One-Electron Energy =               -1156.5279159014332890
    Two-Electron Energy =                 464.2449109919485863
    DFT Exchange-Correlation Energy =       0.0000000000000000
    Empirical Dispersion Energy =           0.0000000000000000
    PCM Polarization Energy =               0.0000000000000000
    EFP Energy =                            0.0000000000000000
    Total Energy =                       -344.5787875361072565

  Mulliken Charges: (a.u.)
   Center  Symbol    Alpha    Beta     Spin     Total
       1     H     0.39973  0.39973  0.00000  0.20054
       2     C     3.10632  3.10632  0.00000 -0.21264
       3     C     3.09621  3.09621  0.00000 -0.19241
       4     C     3.09615  3.09615  0.00000 -0.19229
       5     H     0.39936  0.39936  0.00000  0.20129
       6     C     3.12050  3.12050  0.00000 -0.24100
       7     H     0.39931  0.39931  0.00000  0.20138
       8     C     3.12551  3.12551  0.00000 -0.25101
       9     H     0.39428  0.39428  0.00000  0.21144
      10     C     2.79713  2.79713  0.00000  0.40574
      11     H     0.39669  0.39669  0.00000  0.20662
      12     O     4.33172  4.33172  0.00000 -0.66345
      13     C     3.08066  3.08066  0.00000 -0.16132
      14     H     0.42425  0.42425  0.00000  0.15151
      15     H     0.40981  0.40981  0.00000  0.18037
      16     H     0.42238  0.42238  0.00000  0.15524

   Total alpha = 29.00000, Total beta = 29.00000, Total charge =  0.00000
