                              Psi4 1.0.54 Driver

  ==> Input File <==

--------------------------------------------------------------------------
set {
	reference rhf
	basis cc-pvtz
}

set_num_threads( 4 )
memory 2 gb

molecule MOL {
0 1

O	 0.749630	 1.305591	 -0.000460
C	 0.576499	 0.134701	 -0.003900
C	 -0.765656	 -0.550508	 -0.002152
O	 1.564816	 -0.744612	 -0.000631
C	 -1.945526	 0.411052	 0.000603
H	 -0.794329	 -1.203792	 -0.868145
H	 -0.791555	 -1.205429	 0.862701
C	 -3.282915	 -0.321280	 0.002596
H	 -1.880300	 1.059126	 -0.864925
H	 -1.877207	 1.057892	 0.866807
H	 -3.388495	 -0.952755	 -0.873419
H	 -4.107811	 0.380864	 0.004116
H	 -3.385717	 -0.953283	 0.878571
C	 1.406028	 -1.896395	 0.803230
H	 1.288139	 -1.623257	 1.841282
H	 2.304234	 -2.477206	 0.670661
H	 0.543973	 -2.465247	 0.488096

	symmetry c1
}
set optking {
	frozen_dihedral = ("
		14 4 2 1
	")
}

ee,wfn = optimize('scf', return_wfn=True)
oeprop( wfn, 'DIPOLE', 'QUADRUPOLE', 'MULLIKEN_CHARGES')
f=open( 'psi4out.xyz', 'w' )
f.write( "17  " )
f.write( str(ee) + "\n" )
f.write( MOL.save_string_xyz() )
f.close()
--------------------------------------------------------------------------

    Molecular point group: c1
  Charge       = 0
  Multiplicity = 1
  Basis Set: CC-PVTZ
  Basis Set:
  @DF-RHF Final Energy:  -345.01074538547545
    Total Energy =                       -345.0107453854753885
    Molecular point group: c1
  Basis Set: CC-PVTZ
  Basis Set:
  Basis Set: CC-PVTZ
  Basis Set:
  @DF-RHF Final Energy:  -344.99912260848316
    Total Energy =                       -344.9991226084833897
  Basis Set: CC-PVTZ
  Basis Set:
  Basis Set: CC-PVTZ
  Basis Set:
  @DF-RHF Final Energy:  -344.88511864334748
    Total Energy =                       -344.8851186433471980
  Basis Set: CC-PVTZ
  Basis Set:
  Basis Set: CC-PVTZ
  Basis Set:
  @DF-RHF Final Energy:  -344.98425105767592
    Total Energy =                       -344.9842510576760901
  Basis Set: CC-PVTZ
  Basis Set:
  @DF-RHF Final Energy:  -345.01664132604310
    Total Energy =                       -345.0166413260430431
  @DF-RHF Final Energy:  -345.01621362683437
    Total Energy =                       -345.0162136268347695
  @DF-RHF Final Energy:  -345.01678239327151
    Total Energy =                       -345.0167823932714555
  Basis Set: CC-PVTZ
  Basis Set:
  @DF-RHF Final Energy:  -345.01829881972992
    Total Energy =                       -345.0182988197297504
  Basis Set: CC-PVTZ
  Basis Set:
  Basis Set: CC-PVTZ
  Basis Set:
  @DF-RHF Final Energy:  -345.01833170203150
    Total Energy =                       -345.0183317020312757
  Basis Set: CC-PVTZ
  Basis Set:
  Basis Set: CC-PVTZ
  Basis Set:
  @DF-RHF Final Energy:  -345.01833747905090
    Total Energy =                       -345.0183374790506150
  Basis Set: CC-PVTZ
  Basis Set:
  Charge       = 0
  Multiplicity = 1
  Basis Set: CC-PVTZ
  Basis Set:

    Orbital Energies (a.u.)
    -----------------------

    Doubly Occupied:

       1A    -20.588365     2A    -20.535559     3A    -11.367068
       4A    -11.292904     5A    -11.242570     6A    -11.224372
       7A    -11.216718     8A     -1.464045     9A     -1.369752
      10A     -1.083510    11A     -0.989187    12A     -0.966546
      13A     -0.838940    14A     -0.767200    15A     -0.704277
      16A     -0.687196    17A     -0.676869    18A     -0.641591
      19A     -0.610623    20A     -0.581406    21A     -0.569404
      22A     -0.547865    23A     -0.524233    24A     -0.497694
      25A     -0.491845    26A     -0.484155    27A     -0.455377
      28A     -0.436350

  @DF-RHF Final Energy:  -345.01833780973783

   => Energetics <=

    Nuclear Repulsion Energy =            314.2301178615358026
    One-Electron Energy =               -1092.7856683843979226
    Two-Electron Energy =                 433.5372127131242905
    DFT Exchange-Correlation Energy =       0.0000000000000000
    Empirical Dispersion Energy =           0.0000000000000000
    PCM Polarization Energy =               0.0000000000000000
    EFP Energy =                            0.0000000000000000
    Total Energy =                       -345.0183378097378863
    Molecular point group: c1
  Basis Set: CC-PVTZ
  Basis Set:

  -Total Gradient:
     Atom            X                  Y                   Z
    ------   -----------------  -----------------  -----------------
       1       -0.001420148434    -0.000688827848     0.003567844682
       2        0.002012349232     0.001743622397    -0.003497012994
       3       -0.000012152174     0.000034174182     0.000037154382
       4       -0.000598696586    -0.002380711774    -0.003125312029
       5        0.000011012908    -0.000023962416    -0.000000998257
       6        0.000017811572    -0.000003816674    -0.000007992298
       7        0.000004260576    -0.000007429867    -0.000003733983
       8       -0.000005235974     0.000019967625     0.000006491134
       9        0.000001024797     0.000004226629    -0.000001690972
      10       -0.000005387021     0.000007730595     0.000008294215
      11        0.000003301495    -0.000006133561    -0.000006892105
      12        0.000006074554    -0.000007973684     0.000001819030
      13       -0.000002516477     0.000000038763    -0.000000049509
      14       -0.000007537983     0.001300439279     0.003011752005
      15       -0.000010408280     0.000020380154     0.000002346719
      16        0.000005115490    -0.000003168426     0.000006036199
      17        0.000001132302    -0.000008555368     0.000001943784

  **** Optimization is complete! (in 11 steps) ****
    Final optimized geometry and variables:
    Molecular point group: c1

    Geometry (in Angstrom), charge = 0, multiplicity = 1:

    O            0.578607878432     1.600965410690     0.507535408126
    C            0.644315879864     0.444758409789     0.295930098368
    C           -0.471434357815    -0.359580046544    -0.333409576465
    O            1.767370725158    -0.220310057942     0.593507327671
    C           -1.621821551468     0.499893873763    -0.841064175701
    H           -0.044351730980    -0.950167477956    -1.138080388200
    H           -0.834577605922    -1.071730899726     0.401591938759
    C           -2.730037472017    -0.337567663637    -1.469809160659
    H           -1.241883582911     1.212604102994    -1.562821654603
    H           -2.017674718938     1.084360136981    -0.020461652568
    H           -2.362669715830    -0.910303231705    -2.315129306157
    H           -3.535324807503     0.293658953616    -1.825229622301
    H           -3.151051666745    -1.037367738583    -0.755087058554
    C            1.722499929936    -1.508237591322     1.156644058978
    H            1.111341152220    -1.520962684946     2.050725828833
    H            2.737285858694    -1.753946068529     1.423830630557
    H            1.355381553404    -2.246815396539     0.455786052461

  Mulliken Charges: (a.u.)
   Center  Symbol    Alpha    Beta     Spin     Total
       1     O     4.17301  4.17301  0.00000 -0.34602
       2     C     2.80248  2.80248  0.00000  0.39504
       3     C     3.12595  3.12595  0.00000 -0.25189
       4     O     4.14052  4.14052  0.00000 -0.28104
       5     C     3.08103  3.08103  0.00000 -0.16206
       6     H     0.43802  0.43802  0.00000  0.12397
       7     H     0.44399  0.44399  0.00000  0.11203
       8     C     3.15018  3.15018  0.00000 -0.30037
       9     H     0.44481  0.44481  0.00000  0.11037
      10     H     0.44335  0.44335  0.00000  0.11330
      11     H     0.45602  0.45602  0.00000  0.08796
      12     H     0.44429  0.44429  0.00000  0.11141
      13     H     0.45663  0.45663  0.00000  0.08675
      14     C     3.04646  3.04646  0.00000 -0.09293
      15     H     0.45792  0.45792  0.00000  0.08415
      16     H     0.43466  0.43466  0.00000  0.13068
      17     H     0.46068  0.46068  0.00000  0.07864

   Total alpha = 28.00000, Total beta = 28.00000, Total charge = -0.00000

*** Psi4 exiting successfully. Buy a developer a beer!
