  ==> Input File <==

--------------------------------------------------------------------------
set {
	reference rhf
	basis 6-31G*
}

set_num_threads( 4 )
memory 2 gb

molecule MOL {
0 1

H	 -1.495763	 -0.503179	 -1.137670
O	 -1.422729	 -0.573567	 -0.196946
C	 -0.731407	 0.539437	 0.309156
C	 0.680193	 0.672443	 -0.251532
H	 -1.319765	 1.404033	 0.030086
H	 -0.700012	 0.506517	 1.397677
C	 1.599139	 -0.492137	 0.118598
H	 0.616402	 0.758534	 -1.332349
H	 1.107032	 1.602637	 0.117369
H	 1.239738	 -1.428634	 -0.297334
H	 2.601428	 -0.335055	 -0.265730
H	 1.674954	 -0.608418	 1.197020

	symmetry c1
}
set optking {
	frozen_dihedral = ("
		1 2 3 4
	")
}

ee = optimize('scf')
oeprop('DIPOLE', 'QUADRUPOLE', 'MULLIKEN_CHARGES')
f=open( 'psi4out.xyz', 'w' )
f.write( "12  " )
f.write( str(ee) + "\n" )
f.write( MOL.save_string_xyz() )
f.close()
--------------------------------------------------------------------------

    Molecular point group: c1
  Charge       = 0
  Multiplicity = 1
  Basis Set: 6-31G*
  Basis Set:
  @DF-RHF Final Energy:  -193.10847995017917
    Total Energy =                       -193.1084799501791736
    Molecular point group: c1
  Basis Set: 6-31G*
  Basis Set:
  Basis Set: 6-31G*
  Basis Set:
  @DF-RHF Final Energy:  -193.10997154922083
    Total Energy =                       -193.1099715492208020
  Basis Set: 6-31G*
  Basis Set:
  Basis Set: 6-31G*
  Basis Set:
  @DF-RHF Final Energy:  -193.11043174618163
    Total Energy =                       -193.1104317461816038
  Basis Set: 6-31G*
  Basis Set:
  Basis Set: 6-31G*
  Basis Set:
  @DF-RHF Final Energy:  -193.11043681088717
    Total Energy =                       -193.1104368108871938
  Basis Set: 6-31G*
  Basis Set:
  Basis Set: 6-31G*
  Basis Set:
  @DF-RHF Final Energy:  -193.11044213450722
    Total Energy =                       -193.1104421345071671
  Basis Set: 6-31G*
  Basis Set:
  Charge       = 0
  Multiplicity = 1
  Basis Set: 6-31G*
  Basis Set:

    Orbital Energies (a.u.)
    -----------------------

    Doubly Occupied:

       1A    -20.554081     2A    -11.268208     3A    -11.221179
       4A    -11.208885     5A     -1.360894     6A     -1.049503
       7A     -0.921685     8A     -0.815108     9A     -0.677125
      10A     -0.638564    11A     -0.627503    12A     -0.566867
      13A     -0.531297    14A     -0.518173    15A     -0.485868
      16A     -0.467610    17A     -0.430393

  @DF-RHF Final Energy:  -193.11044231949151

   => Energetics <=

    Nuclear Repulsion Energy =            133.1389586890055341
    One-Electron Energy =                -525.8129165693114828
    Two-Electron Energy =                 199.5635155608144942
    DFT Exchange-Correlation Energy =       0.0000000000000000
    Empirical Dispersion Energy =           0.0000000000000000
    PCM Polarization Energy =               0.0000000000000000
    EFP Energy =                            0.0000000000000000
    Total Energy =                       -193.1104423194914261
    Molecular point group: c1
  Basis Set: 6-31G*
  Basis Set:

  -Total Gradient:
     Atom            X                  Y                   Z
    ------   -----------------  -----------------  -----------------
       1        0.000512964000    -0.000294564096    -0.000034043596
       2       -0.000649321639     0.000474026286    -0.000105728556
       3        0.000309162527    -0.000383091674     0.000410463165
       4       -0.000154787845     0.000183998457    -0.000216063790
       5       -0.000021356931    -0.000032242003    -0.000037251578
       6        0.000016801167     0.000035372126     0.000011283948
       7        0.000026259419     0.000008486015    -0.000029948161
       8       -0.000026764998     0.000002931097     0.000015628691
       9        0.000021671978     0.000013815236    -0.000002513738
      10       -0.000037066368    -0.000011856200    -0.000031041473
      11       -0.000005216684    -0.000019315406     0.000009775474
      12        0.000007655377     0.000022440162     0.000009439614

  **** Optimization is complete! (in 6 steps) ****
    Final optimized geometry and variables:
    Molecular point group: c1

    Geometry (in Angstrom), charge = 0, multiplicity = 1:

    H           -1.449813806288    -0.563639261604    -1.109187811306
    O           -1.395145787227    -0.606164420596    -0.164329112944
    C           -0.731237559768     0.535264305638     0.314121774736
    C            0.687278200727     0.671731821093    -0.227825269256
    H           -1.303983298111     1.431698663071     0.082461570733
    H           -0.711551154450     0.433548506076     1.392176778003
    C            1.589048188288    -0.505367605858     0.139867457400
    H            0.644049442400     0.778301050291    -1.311471526411
    H            1.111828547313     1.598801526607     0.151057592328
    H            1.179863477325    -1.438719347591    -0.228492817663
    H            2.582644792147    -0.381608871221    -0.279225272779
    H            1.691830084383    -0.592283625728     1.217808199779

  Mulliken Charges: (a.u.)
   Center  Symbol    Alpha    Beta     Spin     Total
       1     H     0.28345  0.28345  0.00000  0.43310
       2     O     4.36820  4.36820  0.00000 -0.73640
       3     C     2.99413  2.99413  0.00000  0.01174
       4     C     3.16943  3.16943  0.00000 -0.33886
       5     H     0.42847  0.42847  0.00000  0.14306
       6     H     0.41658  0.41658  0.00000  0.16684
       7     C     3.23920  3.23920  0.00000 -0.47840
       8     H     0.42739  0.42739  0.00000  0.14521
       9     H     0.42087  0.42087  0.00000  0.15826
      10     H     0.41145  0.41145  0.00000  0.17710
      11     H     0.42002  0.42002  0.00000  0.15995
      12     H     0.42080  0.42080  0.00000  0.15839

   Total alpha = 17.00000, Total beta = 17.00000, Total charge =  0.00000
