                              Psi4 1.0.54 Driver

  ==> Input File <==

--------------------------------------------------------------------------
set {
	reference rhf
	basis cc-pvtz
}

set_num_threads( 4 )
memory 2 gb

molecule MOL {
0 1

H	 -2.528369	 -0.436055	 -0.497007
N	 -1.851927	 0.161443	 -0.071573
C	 -0.561396	 -0.500007	 0.035200
H	 -2.202096	 0.407544	 0.830731
C	 0.575129	 0.507849	 -0.048832
H	 -0.478089	 -1.200753	 -0.788956
H	 -0.456191	 -1.081816	 0.952176
C	 1.951750	 -0.141983	 0.035101
H	 0.478254	 1.061643	 -0.975981
H	 0.467676	 1.231891	 0.755499
H	 2.101550	 -0.848142	 -0.774949
H	 2.738260	 0.600794	 -0.026526
H	 2.078939	 -0.679792	 0.968824

	symmetry c1
}
set optking {
	frozen_dihedral = ("
		1 2 3 6
	")
}

ee,wfn = optimize('scf', return_wfn=True)
oeprop( wfn, 'DIPOLE', 'QUADRUPOLE', 'MULLIKEN_CHARGES')
f=open( 'psi4out.xyz', 'w' )
f.write( "13  " )
f.write( str(ee) + "\n" )
f.write( MOL.save_string_xyz() )
f.close()
--------------------------------------------------------------------------

    Molecular point group: c1
  Charge       = 0
  Multiplicity = 1
  Basis Set: CC-PVTZ
  Basis Set:
  @DF-RHF Final Energy:  -173.35117147631112
    Total Energy =                       -173.3511714763109808
    Molecular point group: c1
  Basis Set: CC-PVTZ
  Basis Set:
  Basis Set: CC-PVTZ
  Basis Set:
  @DF-RHF Final Energy:  -173.35133507241017
    Total Energy =                       -173.3513350724102224
  Basis Set: CC-PVTZ
  Basis Set:
  Basis Set: CC-PVTZ
  Basis Set:
  @DF-RHF Final Energy:  -173.35139240240360
    Total Energy =                       -173.3513924024036328
  Basis Set: CC-PVTZ
  Basis Set:
  Basis Set: CC-PVTZ
  Basis Set:
  @DF-RHF Final Energy:  -173.35139476303453
    Total Energy =                       -173.3513947630346479
  Basis Set: CC-PVTZ
  Basis Set:
  Charge       = 0
  Multiplicity = 1
  Basis Set: CC-PVTZ
  Basis Set:

    Orbital Energies (a.u.)
    -----------------------

    Doubly Occupied:

       1A    -15.525341     2A    -11.238739     3A    -11.206627
       4A    -11.205157     5A     -1.176351     6A     -1.034792
       7A     -0.899075     8A     -0.797084     9A     -0.672925
      10A     -0.619879    11A     -0.604177    12A     -0.571013
      13A     -0.522907    14A     -0.491409    15A     -0.483078
      16A     -0.465525    17A     -0.380427

  @DF-RHF Final Energy:  -173.35139501736148

   => Energetics <=

    Nuclear Repulsion Energy =            131.7678824227908763
    One-Electron Energy =                -494.4495415450639939
    Two-Electron Energy =                 189.3302641049116346
    DFT Exchange-Correlation Energy =       0.0000000000000000
    Empirical Dispersion Energy =           0.0000000000000000
    PCM Polarization Energy =               0.0000000000000000
    EFP Energy =                            0.0000000000000000
    Total Energy =                       -173.3513950173614830
    Molecular point group: c1
  Basis Set: CC-PVTZ
  Basis Set:

  -Total Gradient:
     Atom            X                  Y                   Z
    ------   -----------------  -----------------  -----------------
       1        0.000513545080     0.000830638976    -0.002259983627
       2       -0.000873341553    -0.001397668935     0.003131403683
       3        0.001146354241     0.002151952184    -0.002205463989
       4        0.000011114171     0.000007712354     0.000001208679
       5       -0.000034392091    -0.000042736992     0.000021817613
       6       -0.000799057111    -0.001579984220     0.001303340236
       7        0.000006258702     0.000002730203     0.000013609753
       8        0.000014181133     0.000022311315    -0.000009516346
       9        0.000004924371     0.000002474133     0.000007039237
      10        0.000001097148     0.000005174025     0.000002368811
      11       -0.000002296434    -0.000000690164     0.000001770623
      12        0.000016447176    -0.000007751147    -0.000004540073
      13       -0.000004834830     0.000005838265    -0.000003054599

  **** Optimization is complete! (in 5 steps) ****
    Final optimized geometry and variables:
    Molecular point group: c1

    Geometry (in Angstrom), charge = 0, multiplicity = 1:

    H           -2.539682570984    -0.518123424177    -0.401365488346
    N           -1.861132569280     0.103939834389    -0.021988608759
    C           -0.542375195460    -0.507190870686     0.049919617948
    H           -2.181660391073     0.414512339102     0.868928195165
    C            0.564381103953     0.530299034219    -0.070675759099
    H           -0.459027957836    -1.228749648656    -0.755875819712
    H           -0.400304072302    -1.074635805807     0.970166531049
    C            1.960027611363    -0.078541452277     0.006774455122
    H            0.437724354497     1.062596961002    -1.006752886042
    H            0.442835459965     1.266989776373     0.719015322023
    H            2.118311908033    -0.799970719592    -0.788488065211
    H            2.724790584291     0.683714211058    -0.084403145388
    H            2.116506932538    -0.590475482685     0.950770328730

  Mulliken Charges: (a.u.)
   Center  Symbol    Alpha    Beta     Spin     Total
       1     H     0.42574  0.42574  0.00000  0.14852
       2     N     3.69581  3.69581  0.00000 -0.39163
       3     C     3.03123  3.03123  0.00000 -0.06246
       4     H     0.42858  0.42858  0.00000  0.14284
       5     C     3.06758  3.06758  0.00000 -0.13515
       6     H     0.45725  0.45725  0.00000  0.08550
       7     H     0.46613  0.46613  0.00000  0.06775
       8     C     3.15453  3.15453  0.00000 -0.30907
       9     H     0.45229  0.45229  0.00000  0.09542
      10     H     0.45964  0.45964  0.00000  0.08073
      11     H     0.45630  0.45630  0.00000  0.08740
      12     H     0.44772  0.44772  0.00000  0.10456
      13     H     0.45720  0.45720  0.00000  0.08559

   Total alpha = 17.00000, Total beta = 17.00000, Total charge = -0.00000

*** Psi4 exiting successfully. Buy a developer a beer!
