  ==> Input File <==

--------------------------------------------------------------------------
set {
	reference rhf
	basis 6-31G*
}

set_num_threads( 4 )
memory 2 gb

molecule MOL {
0 1

O	 -2.439739	 -0.935931	 -0.423848
C	 -1.921153	 0.064240	 -0.045697
C	 -2.624470	 1.379923	 0.150949
O	 -0.632575	 0.154573	 0.251549
H	 -2.168117	 2.136577	 -0.476876
H	 -3.669540	 1.273223	 -0.098610
H	 -2.519365	 1.700893	 1.180846
C	 0.160891	 -1.019931	 0.106212
C	 1.589627	 -0.672828	 0.480843
H	 0.089836	 -1.367806	 -0.916050
H	 -0.238459	 -1.792301	 0.749618
C	 1.836550	 0.825461	 0.666741
H	 2.235882	 -1.054380	 -0.307006
H	 1.854276	 -1.207730	 1.389193
C	 3.290153	 1.140971	 1.016729
H	 1.562439	 1.349832	 -0.246494
H	 1.184367	 1.202521	 1.447665
H	 3.439204	 2.208474	 1.144217
H	 3.965648	 0.803720	 0.235547
H	 3.585269	 0.653383	 1.941523

	symmetry c1
}
set optking {
	frozen_dihedral = ("
		12 9 8 10
	")
}

ee = optimize('scf')
oeprop('DIPOLE', 'QUADRUPOLE', 'MULLIKEN_CHARGES')
f=open( 'psi4out.xyz', 'w' )
f.write( "20  " )
f.write( str(ee) + "\n" )
f.write( MOL.save_string_xyz() )
f.close()
--------------------------------------------------------------------------

    Molecular point group: c1
  Charge       = 0
  Multiplicity = 1
  Basis Set: 6-31G*
  Basis Set:
  @DF-RHF Final Energy:  -383.93608861228478
    Total Energy =                       -383.9360886122847205
    Molecular point group: c1
  Basis Set: 6-31G*
  Basis Set:
  Basis Set: 6-31G*
  Basis Set:
  @DF-RHF Final Energy:  -383.93644918128149
    Total Energy =                       -383.9364491812813185
  Basis Set: 6-31G*
  Basis Set:
  Basis Set: 6-31G*
  Basis Set:
  @DF-RHF Final Energy:  -383.93748592929734
    Total Energy =                       -383.9374859292972815
  Basis Set: 6-31G*
  Basis Set:
  Basis Set: 6-31G*
  Basis Set:
  @DF-RHF Final Energy:  -383.93748853713015
    Total Energy =                       -383.9374885371300934
  Basis Set: 6-31G*
  Basis Set:
  Basis Set: 6-31G*
  Basis Set:
  @DF-RHF Final Energy:  -383.93760223452733
    Total Energy =                       -383.9376022345271622
  Basis Set: 6-31G*
  Basis Set:
  Basis Set: 6-31G*
  Basis Set:
  @DF-RHF Final Energy:  -383.93764107687082
    Total Energy =                       -383.9376410768710457
  Basis Set: 6-31G*
  Basis Set:
  Basis Set: 6-31G*
  Basis Set:
  @DF-RHF Final Energy:  -383.93764266744074
    Total Energy =                       -383.9376426674407412
  Basis Set: 6-31G*
  Basis Set:
  Charge       = 0
  Multiplicity = 1
  Basis Set: 6-31G*
  Basis Set:

    Orbital Energies (a.u.)
    -----------------------

    Doubly Occupied:

       1A    -20.602222     2A    -20.544436     3A    -11.374837
       4A    -11.282728     5A    -11.233634     6A    -11.226141
       7A    -11.219316     8A    -11.212160     9A     -1.468649
      10A     -1.362710    11A     -1.081485    12A     -1.027999
      13A     -0.979249    14A     -0.881276    15A     -0.818187
      16A     -0.761519    17A     -0.689947    18A     -0.689285
      19A     -0.667594    20A     -0.633929    21A     -0.594063
      22A     -0.592838    23A     -0.573608    24A     -0.546928
      25A     -0.545268    26A     -0.533344    27A     -0.506775
      28A     -0.482910    29A     -0.477166    30A     -0.468727
      31A     -0.443271    32A     -0.439069

  @DF-RHF Final Energy:  -383.93764311272412

   => Energetics <=

    Nuclear Repulsion Energy =            386.4189816782776461
    One-Electron Energy =               -1288.7907059054309684
    Two-Electron Energy =                 518.4340811144293184
    DFT Exchange-Correlation Energy =       0.0000000000000000
    Empirical Dispersion Energy =           0.0000000000000000
    PCM Polarization Energy =               0.0000000000000000
    EFP Energy =                            0.0000000000000000
    Total Energy =                       -383.9376431127240039
    Molecular point group: c1
  Basis Set: 6-31G*
  Basis Set:

  -Total Gradient:
     Atom            X                  Y                   Z
    ------   -----------------  -----------------  -----------------
       1        0.000005651271     0.000007052361    -0.000004490229
       2       -0.000010021064    -0.000009389288     0.000002493385
       3        0.000002283189    -0.000002737906     0.000004546846
       4        0.000007045997    -0.000020379181     0.000008081652
       5        0.000001876883     0.000000231019    -0.000003821032
       6       -0.000000054690     0.000000094778     0.000000551828
       7       -0.000000478521     0.000002339359    -0.000003733799
       8       -0.000790234096     0.003812466173    -0.000332702307
       9        0.000938580345    -0.000562061018    -0.003019840697
      10        0.000426017271    -0.003062812416     0.001050761358
      11       -0.000000958523    -0.000005863364     0.000009124695
      12       -0.000590201581    -0.000158682769     0.002356924131
      13       -0.000021076042    -0.000004514684    -0.000020677291
      14        0.000022862431     0.000005651236    -0.000007245199
      15       -0.000001159054    -0.000000613823    -0.000002036840
      16        0.000022520307    -0.000012478299    -0.000014159934
      17       -0.000013941077     0.000012417842    -0.000017650148
      18       -0.000003102246    -0.000001273259     0.000002751665
      19        0.000008555813     0.000004338830    -0.000002298577
      20       -0.000004166609    -0.000003785592    -0.000006579506

  **** Optimization is complete! (in 8 steps) ****
    Final optimized geometry and variables:
    Molecular point group: c1

    Geometry (in Angstrom), charge = 0, multiplicity = 1:

    O           -2.346675246670    -1.096320877327    -0.698279836403
    C           -1.862025134032    -0.076483089192    -0.327684367447
    C           -2.611164132734     1.214127775750    -0.132909180196
    O           -0.577438035661     0.061439166923    -0.032594510453
    H           -2.183165252677     1.984669834577    -0.763721315587
    H           -3.652210197441     1.069429052315    -0.380171585433
    H           -2.515804403624     1.541440004411     0.895975135638
    C            0.253234553565    -1.084828306032    -0.173709009455
    C            1.702889791302    -0.747400632384     0.218867883539
    H            0.190458522769    -1.443497941503    -1.191585930557
    H           -0.143942998797    -1.870175126169     0.454224046363
    C            2.019415610784     0.740212541207     0.402314175413
    H            2.365496109600    -1.163997163664    -0.534300242276
    H            1.943594849795    -1.260410428245     1.145902225164
    C            3.490360335426     0.966666147568     0.749925167677
    H            1.772377560678     1.284972609252    -0.504131254956
    H            1.391890166390     1.151075324188     1.184876051657
    H            3.699675990600     2.022879283718     0.887407428030
    H            4.143908572370     0.600309711018    -0.036852081626
    H            3.761823381398     0.454412141544     1.668876817173

  Mulliken Charges: (a.u.)
   Center  Symbol    Alpha    Beta     Spin     Total
       1     O     4.28346  4.28346  0.00000 -0.56691
       2     C     2.61867  2.61867  0.00000  0.76266
       3     C     3.28148  3.28148  0.00000 -0.56295
       4     O     4.30966  4.30966  0.00000 -0.61933
       5     H     0.40060  0.40060  0.00000  0.19881
       6     H     0.39684  0.39684  0.00000  0.20632
       7     H     0.40076  0.40076  0.00000  0.19848
       8     C     2.99836  2.99836  0.00000  0.00328
       9     C     3.17794  3.17794  0.00000 -0.35588
      10     H     0.40908  0.40908  0.00000  0.18183
      11     H     0.40854  0.40854  0.00000  0.18293
      12     C     3.14573  3.14573  0.00000 -0.29147
      13     H     0.41589  0.41589  0.00000  0.16823
      14     H     0.41640  0.41640  0.00000  0.16719
      15     C     3.24194  3.24194  0.00000 -0.48387
      16     H     0.41883  0.41883  0.00000  0.16235
      17     H     0.41455  0.41455  0.00000  0.17091
      18     H     0.41774  0.41774  0.00000  0.16453
      19     H     0.42181  0.42181  0.00000  0.15638
      20     H     0.42174  0.42174  0.00000  0.15652

   Total alpha = 32.00000, Total beta = 32.00000, Total charge =  0.00000
