                              Psi4 1.0.54 Driver

  ==> Input File <==

--------------------------------------------------------------------------
set {
	reference rhf
	basis cc-pvtz
}

set_num_threads( 4 )
memory 2 gb

molecule MOL {
0 1

O	 0.306416	 0.129651	 0.858136
C	 1.121787	 0.124983	 0.000110
C	 1.118663	 1.016209	 -1.215278
O	 2.167739	 -0.685178	 -0.000678
C	 -0.063498	 1.972912	 -1.271316
H	 2.060705	 1.554736	 -1.220478
H	 1.143146	 0.370200	 -2.086791
C	 -0.035201	 2.859718	 -2.512720
H	 -0.067776	 2.589536	 -0.379522
H	 -0.986153	 1.403986	 -1.247314
C	 -1.214427	 3.824123	 -2.577823
H	 0.893009	 3.424748	 -2.532939
H	 -0.030866	 2.236316	 -3.402994
H	 -1.226569	 4.484828	 -1.717645
H	 -1.168314	 4.440295	 -3.468263
H	 -2.157128	 3.287812	 -2.594142
C	 3.449556	 -0.089977	 -0.000570
H	 3.585694	 0.522473	 -0.879546
H	 4.155805	 -0.904274	 -0.001389
H	 3.586173	 0.521118	 0.879272

	symmetry c1
}
set optking {
	frozen_dihedral = ("
		1 2 4 17
	")
}

ee,wfn = optimize('scf', return_wfn=True)
oeprop( wfn, 'DIPOLE', 'QUADRUPOLE', 'MULLIKEN_CHARGES')
f=open( 'psi4out.xyz', 'w' )
f.write( "20  " )
f.write( str(ee) + "\n" )
f.write( MOL.save_string_xyz() )
f.close()
--------------------------------------------------------------------------

    Molecular point group: c1
  Charge       = 0
  Multiplicity = 1
  Basis Set: CC-PVTZ
  Basis Set:
  @DF-RHF Final Energy:  -384.05904231406527
    Total Energy =                       -384.0590423140657776
    Molecular point group: c1
  Basis Set: CC-PVTZ
  Basis Set:
  Basis Set: CC-PVTZ
  Basis Set:
  @DF-RHF Final Energy:  -384.05866167386768
    Total Energy =                       -384.0586616738678458
  Basis Set: CC-PVTZ
  Basis Set:
  Basis Set: CC-PVTZ
  Basis Set:
  @DF-RHF Final Energy:  -384.06272691986504
    Total Energy =                       -384.0627269198655540
  Basis Set: CC-PVTZ
  Basis Set:
  Basis Set: CC-PVTZ
  Basis Set:
  @DF-RHF Final Energy:  -384.06346109839865
    Total Energy =                       -384.0634610983986477
  Basis Set: CC-PVTZ
  Basis Set:
  @DF-RHF Final Energy:  -384.06360648503335
    Total Energy =                       -384.0636064850335742
  Basis Set: CC-PVTZ
  Basis Set:
  @DF-RHF Final Energy:  -384.06367416493185
    Total Energy =                       -384.0636741649318537
  Basis Set: CC-PVTZ
  Basis Set:
  Basis Set: CC-PVTZ
  Basis Set:
  @DF-RHF Final Energy:  -384.06367946622339
    Total Energy =                       -384.0636794662233342
  Basis Set: CC-PVTZ
  Basis Set:
  Basis Set: CC-PVTZ
  Basis Set:
  @DF-RHF Final Energy:  -384.06368250644351
    Total Energy =                       -384.0636825064435698
  Basis Set: CC-PVTZ
  Basis Set:
  Charge       = 0
  Multiplicity = 1
  Basis Set: CC-PVTZ
  Basis Set:

    Orbital Energies (a.u.)
    -----------------------

    Doubly Occupied:

       1A    -20.581779     2A    -20.541439     3A    -11.367368
       4A    -11.291610     5A    -11.240448     6A    -11.221981
       7A    -11.221187     8A    -11.211293     9A     -1.461882
      10A     -1.370123    11A     -1.092179    12A     -1.018480
      13A     -0.976466    14A     -0.900301    15A     -0.809774
      16A     -0.767112    17A     -0.699007    18A     -0.683060
      19A     -0.677483    20A     -0.648343    21A     -0.616456
      22A     -0.591413    23A     -0.590854    24A     -0.553481
      25A     -0.539357    26A     -0.518099    27A     -0.497041
      28A     -0.488162    29A     -0.481006    30A     -0.474140
      31A     -0.454848    32A     -0.436063

  @DF-RHF Final Energy:  -384.06368285378818

   => Energetics <=

    Nuclear Repulsion Energy =            382.6974205405805947
    One-Electron Energy =               -1281.4777411283355377
    Two-Electron Energy =                 514.7166377339669907
    DFT Exchange-Correlation Energy =       0.0000000000000000
    Empirical Dispersion Energy =           0.0000000000000000
    PCM Polarization Energy =               0.0000000000000000
    EFP Energy =                            0.0000000000000000
    Total Energy =                       -384.0636828537878955
    Molecular point group: c1
  Basis Set: CC-PVTZ
  Basis Set:

  -Total Gradient:
     Atom            X                  Y                   Z
    ------   -----------------  -----------------  -----------------
       1        0.001567471004     0.002058053829     0.001200589032
       2       -0.002374185683    -0.002591912764    -0.000481256274
       3       -0.000036613183    -0.000038726914    -0.000016275520
       4        0.000884192805     0.000301569143    -0.003128036323
       5        0.000022946743    -0.000014614109    -0.000006571396
       6       -0.000014263186    -0.000011691082    -0.000000140754
       7        0.000003007365    -0.000011040331     0.000002133879
       8       -0.000006163723     0.000009023960     0.000010427209
       9       -0.000002762538     0.000006429292     0.000004050216
      10       -0.000004420476    -0.000001022424     0.000002895621
      11        0.000001638259    -0.000004724095    -0.000006849118
      12        0.000002825257     0.000004070795    -0.000000053150
      13        0.000000278803    -0.000002724697    -0.000002165458
      14        0.000002375041     0.000003210787     0.000001794010
      15       -0.000001447704    -0.000000452976    -0.000000067013
      16       -0.000003198775    -0.000002028024    -0.000000314245
      17       -0.000048054477     0.000300726271     0.002411968984
      18        0.000011313132    -0.000004814517     0.000013543377
      19        0.000000327437     0.000006298720    -0.000002966676
      20       -0.000005266097    -0.000005630870    -0.000002706400

  **** Optimization is complete! (in 9 steps) ****
    Final optimized geometry and variables:
    Molecular point group: c1

    Geometry (in Angstrom), charge = 0, multiplicity = 1:

    O           -0.456329229567    -0.723479077622     1.788897727070
    C            0.343635555439    -0.809588481694     0.931233597733
    C            0.278723632245    -0.047624339194    -0.372002964331
    O            1.382595669472    -1.656711648693     1.054199961454
    C           -1.019418192675     0.724350636225    -0.565192319147
    H            1.126078958654     0.630775046414    -0.406417433469
    H            0.435447509889    -0.761672004916    -1.174176149932
    C           -1.053813285114     1.483642477783    -1.888351650913
    H           -1.150156902189     1.414685596642     0.259801253996
    H           -1.854775862202     0.034944032468    -0.515474713338
    C           -2.352729489803     2.255575122337    -2.093097021818
    H           -0.215059151720     2.173776722750    -1.932021511542
    H           -0.916838109076     0.786111090605    -2.710497340001
    H           -2.501489904270     2.985722505655    -1.304929134957
    H           -2.349178318969     2.784730887951    -3.038887699819
    H           -3.207947215631     1.588507864290    -2.089541535969
    C            2.695278993757    -1.149753882331     1.023745689364
    H            2.975301004844    -0.811209058749     0.033959059761
    H            3.342091244766    -1.962505287606     1.311332653568
    H            2.812615710558    -0.338846906062     1.732676540695

  Mulliken Charges: (a.u.)
   Center  Symbol    Alpha    Beta     Spin     Total
       1     O     4.16786  4.16786  0.00000 -0.33572
       2     C     2.79368  2.79368  0.00000  0.41264
       3     C     3.12932  3.12932  0.00000 -0.25863
       4     O     4.15420  4.15420  0.00000 -0.30840
       5     C     3.08204  3.08204  0.00000 -0.16408
       6     H     0.44532  0.44532  0.00000  0.10936
       7     H     0.43627  0.43627  0.00000  0.12745
       8     C     3.08518  3.08518  0.00000 -0.17035
       9     H     0.44425  0.44425  0.00000  0.11149
      10     H     0.44533  0.44533  0.00000  0.10934
      11     C     3.14974  3.14974  0.00000 -0.29949
      12     H     0.45599  0.45599  0.00000  0.08801
      13     H     0.45506  0.45506  0.00000  0.08987
      14     H     0.45350  0.45350  0.00000  0.09299
      15     H     0.44811  0.44811  0.00000  0.10379
      16     H     0.45319  0.45319  0.00000  0.09361
      17     C     3.04501  3.04501  0.00000 -0.09003
      18     H     0.46139  0.46139  0.00000  0.07722
      19     H     0.43676  0.43676  0.00000  0.12649
      20     H     0.45779  0.45779  0.00000  0.08443

   Total alpha = 32.00000, Total beta = 32.00000, Total charge =  0.00000

*** Psi4 exiting successfully. Buy a developer a beer!
