                              Psi4 1.0.54 Driver

  ==> Input File <==

--------------------------------------------------------------------------
set {
	reference rhf
	basis cc-pvtz
}

set_num_threads( 4 )
memory 2 gb

molecule MOL {
0 1

H	 2.552719	 0.224692	 -1.082704
O	 1.703358	 -0.187390	 -1.132799
C	 1.050374	 0.054877	 0.000135
C	 -0.318151	 -0.570512	 0.000144
O	 1.525347	 0.690405	 0.876761
C	 -1.454884	 0.441630	 -0.000560
H	 -0.371613	 -1.223646	 -0.864985
H	 -0.371920	 -1.222758	 0.865929
C	 -2.822577	 -0.232186	 0.000063
H	 -1.359760	 1.084704	 -0.867077
H	 -1.359641	 1.085996	 0.864983
H	 -2.954352	 -0.858985	 -0.875745
H	 -3.615886	 0.505352	 0.000019
H	 -2.953878	 -0.858359	 0.876394

	symmetry c1
}
set optking {
	frozen_dihedral = ("
		2 3 4 7
	")
}

ee,wfn = optimize('scf', return_wfn=True)
oeprop( wfn, 'DIPOLE', 'QUADRUPOLE', 'MULLIKEN_CHARGES')
f=open( 'psi4out.xyz', 'w' )
f.write( "14  " )
f.write( str(ee) + "\n" )
f.write( MOL.save_string_xyz() )
f.close()
--------------------------------------------------------------------------

    Molecular point group: c1
  Charge       = 0
  Multiplicity = 1
  Basis Set: CC-PVTZ
  Basis Set:
  @DF-RHF Final Energy:  -305.99862172944898
    Total Energy =                       -305.9986217294489848
    Molecular point group: c1
  Basis Set: CC-PVTZ
  Basis Set:
  Basis Set: CC-PVTZ
  Basis Set:
  @DF-RHF Final Energy:  -305.99920486583892
    Total Energy =                       -305.9992048658389194
  Basis Set: CC-PVTZ
  Basis Set:
  Basis Set: CC-PVTZ
  Basis Set:
  @DF-RHF Final Energy:  -305.99931140890897
    Total Energy =                       -305.9993114089094206
  Basis Set: CC-PVTZ
  Basis Set:
  Basis Set: CC-PVTZ
  Basis Set:
  @DF-RHF Final Energy:  -305.99937540203194
    Total Energy =                       -305.9993754020318875
  Basis Set: CC-PVTZ
  Basis Set:
  Basis Set: CC-PVTZ
  Basis Set:
  @DF-RHF Final Energy:  -305.99937890880426
    Total Energy =                       -305.9993789088041467
  Basis Set: CC-PVTZ
  Basis Set:
  Charge       = 0
  Multiplicity = 1
  Basis Set: CC-PVTZ
  Basis Set:

    Orbital Energies (a.u.)
    -----------------------

    Doubly Occupied:

       1A    -20.606548     2A    -20.538019     3A    -11.373336
       4A    -11.238183     5A    -11.231894     6A    -11.218221
       7A     -1.478244     8A     -1.368368     9A     -1.086330
      10A     -0.980435    11A     -0.856284    12A     -0.805209
      13A     -0.706332    14A     -0.690076    15A     -0.650931
      16A     -0.632708    17A     -0.596624    18A     -0.571804
      19A     -0.552281    20A     -0.515276    21A     -0.497697
      22A     -0.488777    23A     -0.474511    24A     -0.443538

  @DF-RHF Final Energy:  -305.99937934430972

   => Energetics <=

    Nuclear Repulsion Energy =            240.6060258766353286
    One-Electron Energy =                -894.0075592651335228
    Two-Electron Energy =                 347.4021540441884781
    DFT Exchange-Correlation Energy =       0.0000000000000000
    Empirical Dispersion Energy =           0.0000000000000000
    PCM Polarization Energy =               0.0000000000000000
    EFP Energy =                            0.0000000000000000
    Total Energy =                       -305.9993793443096592
    Molecular point group: c1
  Basis Set: CC-PVTZ
  Basis Set:

  -Total Gradient:
     Atom            X                  Y                   Z
    ------   -----------------  -----------------  -----------------
       1       -0.000001865826    -0.000001756171     0.000007748392
       2       -0.000021846050    -0.000059231253     0.000004236762
       3       -0.000004600864     0.000050331315    -0.000047305177
       4        0.000016837403    -0.000061889511     0.000025515980
       5        0.000000772023     0.000035042237     0.000051000524
       6        0.000009355479    -0.000005146878     0.000005243244
       7       -0.000018651041     0.000025172133    -0.000057883769
       8        0.000008936925     0.000011030412    -0.000004545074
       9        0.000009894326    -0.000003508417     0.000007723209
      10        0.000001487416    -0.000013898835     0.000005448594
      11       -0.000013262879     0.000019524507     0.000006270341
      12        0.000004397226     0.000000413053    -0.000004481923
      13        0.000008627495     0.000005655660     0.000001543580
      14       -0.000000081633    -0.000001738254    -0.000000514686

  **** Optimization is complete! (in 6 steps) ****
    Final optimized geometry and variables:
    Molecular point group: c1

    Geometry (in Angstrom), charge = 0, multiplicity = 1:

    H            2.577843257569     0.241820941808    -0.987855174925
    O            1.745249697114    -0.200206385812    -1.065516595344
    C            1.059833627861    -0.000591389964     0.054569768938
    C           -0.300870360845    -0.645608447878     0.039885711850
    O            1.493484736670     0.635441799112     0.953273808529
    C           -1.414242713660     0.406579098920     0.035366789746
    H           -0.386265693816    -1.296842350155    -0.818625220394
    H           -0.373954117904    -1.248800794467     0.936804493515
    C           -2.800712398265    -0.225001236638     0.069712488677
    H           -1.318577361760     1.025179295302    -0.851508337026
    H           -1.281942539099     1.059436746043     0.889005577167
    H           -2.962821116828    -0.866831786571    -0.789494719857
    H           -3.571224046169     0.536441457468     0.064367726785
    H           -2.934221308240    -0.825731095393     0.962853939712

  Mulliken Charges: (a.u.)
   Center  Symbol    Alpha    Beta     Spin     Total
       1     H     0.38027  0.38027  0.00000  0.23947
       2     O     4.15934  4.15934  0.00000 -0.31869
       3     C     2.80677  2.80677  0.00000  0.38647
       4     C     3.08859  3.08859  0.00000 -0.17717
       5     O     4.19957  4.19957  0.00000 -0.39914
       6     C     3.09095  3.09095  0.00000 -0.18191
       7     H     0.43983  0.43983  0.00000  0.12034
       8     H     0.44180  0.44180  0.00000  0.11640
       9     C     3.14996  3.14996  0.00000 -0.29992
      10     H     0.44980  0.44980  0.00000  0.10040
      11     H     0.44004  0.44004  0.00000  0.11992
      12     H     0.45434  0.45434  0.00000  0.09132
      13     H     0.44558  0.44558  0.00000  0.10883
      14     H     0.45316  0.45316  0.00000  0.09367

   Total alpha = 24.00000, Total beta = 24.00000, Total charge =  0.00000

*** Psi4 exiting successfully. Buy a developer a beer!
