                              Psi4 1.0.54 Driver

  ==> Input File <==

--------------------------------------------------------------------------
set {
	reference rhf
	basis cc-pvtz
}

set_num_threads( 4 )
memory 2 gb

molecule MOL {
0 1

H	 0.819888	 -1.861828	 -0.884347
C	 0.120014	 -1.051952	 -1.098182
N	 -0.537714	 -0.645117	 0.000000
O	 -0.011942	 -0.610928	 -2.195818
C	 -1.522613	 0.412524	 0.000000
H	 -0.327542	 -1.103165	 0.852058
H	 -2.150256	 0.356137	 -0.880771
H	 -1.005621	 1.357208	 0.000000
H	 -2.150256	 0.356137	 0.880771

	symmetry c1
}
set optking {
	frozen_dihedral = ("
		6 3 5 7
	")
}

ee,wfn = optimize('scf', return_wfn=True)
oeprop( wfn, 'DIPOLE', 'QUADRUPOLE', 'MULLIKEN_CHARGES')
f=open( 'psi4out.xyz', 'w' )
f.write( "9  " )
f.write( str(ee) + "\n" )
f.write( MOL.save_string_xyz() )
f.close()
--------------------------------------------------------------------------

    Molecular point group: c1
  Charge       = 0
  Multiplicity = 1
  Basis Set: CC-PVTZ
  Basis Set:
  @DF-RHF Final Energy:  -208.04291739856257
    Total Energy =                       -208.0429173985627074
    Molecular point group: c1
  Basis Set: CC-PVTZ
  Basis Set:
  Basis Set: CC-PVTZ
  Basis Set:
  @DF-RHF Final Energy:  -207.75952891114713
    Total Energy =                       -207.7595289111470152
  Basis Set: CC-PVTZ
  Basis Set:
  Basis Set: CC-PVTZ
  Basis Set:
  @DF-RHF Final Energy:  -207.92025547266232
    Total Energy =                       -207.9202554726622338
  Basis Set: CC-PVTZ
  Basis Set:
  Basis Set: CC-PVTZ
  Basis Set:
  @DF-RHF Final Energy:  -208.02870660571290
    Total Energy =                       -208.0287066057127561
  Basis Set: CC-PVTZ
  Basis Set:
  @DF-RHF Final Energy:  -208.03189892822090
    Total Energy =                       -208.0318989282209827
  @DF-RHF Final Energy:  -208.04158753393904
    Total Energy =                       -208.0415875339389800
  @DF-RHF Final Energy:  -208.04352843855165
    Total Energy =                       -208.0435284385517321
  @DF-RHF Final Energy:  -208.04281270511729
    Total Energy =                       -208.0428127051172282
  @DF-RHF Final Energy:  -208.04366066217020
    Total Energy =                       -208.0436606621701685
  Basis Set: CC-PVTZ
  Basis Set:
  @DF-RHF Final Energy:  -208.04367348659386
    Total Energy =                       -208.0436734865938320
  Basis Set: CC-PVTZ
  Basis Set:
  Basis Set: CC-PVTZ
  Basis Set:
  @DF-RHF Final Energy:  -208.04367731825428
    Total Energy =                       -208.0436773182542254
  Basis Set: CC-PVTZ
  Basis Set:
  Basis Set: CC-PVTZ
  Basis Set:
  @DF-RHF Final Energy:  -208.04368046766123
    Total Energy =                       -208.0436804676613178
  Basis Set: CC-PVTZ
  Basis Set:
  Charge       = 0
  Multiplicity = 1
  Basis Set: CC-PVTZ
  Basis Set:

    Orbital Energies (a.u.)
    -----------------------

    Doubly Occupied:

       1A    -20.516816     2A    -15.584436     3A    -11.336287
       4A    -11.260288     5A     -1.394141     6A     -1.239394
       7A     -0.969764     8A     -0.808996     9A     -0.748996
      10A     -0.646005    11A     -0.629934    12A     -0.596222
      13A     -0.558884    14A     -0.537734    15A     -0.428485
      16A     -0.396763

  @DF-RHF Final Energy:  -208.04368085708410

   => Energetics <=

    Nuclear Repulsion Energy =            122.9014834607385893
    One-Electron Energy =                -526.5840379108292382
    Two-Electron Energy =                 195.6388735930066218
    DFT Exchange-Correlation Energy =       0.0000000000000000
    Empirical Dispersion Energy =           0.0000000000000000
    PCM Polarization Energy =               0.0000000000000000
    EFP Energy =                            0.0000000000000000
    Total Energy =                       -208.0436808570840412
    Molecular point group: c1
  Basis Set: CC-PVTZ
  Basis Set:

  -Total Gradient:
     Atom            X                  Y                   Z
    ------   -----------------  -----------------  -----------------
       1        0.000010175724    -0.000003879034     0.000025840181
       2        0.000049302960    -0.000003672992    -0.000176591579
       3       -0.000042246600     0.000041780638     0.000093038764
       4       -0.000001212537    -0.000011719217     0.000072960979
       5        0.000002738676     0.000019668141    -0.000012138453
       6       -0.000008614354    -0.000020806091    -0.000012959424
       7       -0.000005118822    -0.000011511192     0.000019019088
       8       -0.000006067316    -0.000015929220     0.000003372916
       9        0.000001042270     0.000006068967    -0.000012542474

  **** Optimization is complete! (in 13 steps) ****
    Final optimized geometry and variables:
    Molecular point group: c1

    Geometry (in Angstrom), charge = 0, multiplicity = 1:

    H            1.698041811931    -0.914940232200    -0.040333958853
    C            0.783901405952    -0.359057068690    -0.257317921627
    N           -0.019138040574    -0.241246530557     0.811793318704
    O            0.549581875213     0.075336361543    -1.340389994069
    C           -1.262772813276     0.495075617893     0.767840372469
    H            0.310420878780    -0.583394497792     1.679601737757
    H           -1.827283998649     0.211912648305    -0.107565122191
    H           -1.095289020017     1.564663289984     0.733368701882
    H           -1.840402405703     0.258530297178     1.649846467408

  Mulliken Charges: (a.u.)
   Center  Symbol    Alpha    Beta     Spin     Total
       1     H     0.46421  0.46421  0.00000  0.07157
       2     C     2.87985  2.87985  0.00000  0.24030
       3     N     3.60590  3.60590  0.00000 -0.21180
       4     O     4.21406  4.21406  0.00000 -0.42812
       5     C     3.07605  3.07605  0.00000 -0.15210
       6     H     0.41031  0.41031  0.00000  0.17939
       7     H     0.44204  0.44204  0.00000  0.11592
       8     H     0.45332  0.45332  0.00000  0.09336
       9     H     0.45426  0.45426  0.00000  0.09149

   Total alpha = 16.00000, Total beta = 16.00000, Total charge =  0.00000

*** Psi4 exiting successfully. Buy a developer a beer!
