                              Psi4 1.0.54 Driver

  ==> Input File <==

--------------------------------------------------------------------------
set {
	reference rhf
	basis cc-pvtz
}

set_num_threads( 4 )
memory 2 gb

molecule MOL {
0 1

H	 1.346801	 -1.371155	 0.164348
C	 0.774336	 -0.442633	 0.204087
N	 -0.537714	 -0.645117	 0.000000
O	 1.296375	 0.607407	 0.408073
C	 -1.522613	 0.412524	 0.000000
H	 -0.835217	 -1.575924	 -0.158347
H	 -2.150256	 0.356137	 -0.880771
H	 -1.005621	 1.357208	 0.000000
H	 -2.150256	 0.356137	 0.880771

	symmetry c1
}
set optking {
	frozen_dihedral = ("
		6 3 5 7
	")
}

ee,wfn = optimize('scf', return_wfn=True)
oeprop( wfn, 'DIPOLE', 'QUADRUPOLE', 'MULLIKEN_CHARGES')
f=open( 'psi4out.xyz', 'w' )
f.write( "9  " )
f.write( str(ee) + "\n" )
f.write( MOL.save_string_xyz() )
f.close()
--------------------------------------------------------------------------

    Molecular point group: c1
  Charge       = 0
  Multiplicity = 1
  Basis Set: CC-PVTZ
  Basis Set:
  @DF-RHF Final Energy:  -208.04354439084685
    Total Energy =                       -208.0435443908467619
    Molecular point group: c1
  Basis Set: CC-PVTZ
  Basis Set:
  Basis Set: CC-PVTZ
  Basis Set:
  @DF-RHF Final Energy:  -208.04356740449492
    Total Energy =                       -208.0435674044947518
  Basis Set: CC-PVTZ
  Basis Set:
  Basis Set: CC-PVTZ
  Basis Set:
  @DF-RHF Final Energy:  -208.04357010376296
    Total Energy =                       -208.0435701037630452
  Basis Set: CC-PVTZ
  Basis Set:
  Basis Set: CC-PVTZ
  Basis Set:
  @DF-RHF Final Energy:  -208.04358027603789
    Total Energy =                       -208.0435802760379147
  Basis Set: CC-PVTZ
  Basis Set:
  Basis Set: CC-PVTZ
  Basis Set:
  @DF-RHF Final Energy:  -208.04358542552643
    Total Energy =                       -208.0435854255263166
  Basis Set: CC-PVTZ
  Basis Set:
  Basis Set: CC-PVTZ
  Basis Set:
  @DF-RHF Final Energy:  -208.04359329416394
    Total Energy =                       -208.0435932941638839
  Basis Set: CC-PVTZ
  Basis Set:
  Charge       = 0
  Multiplicity = 1
  Basis Set: CC-PVTZ
  Basis Set:

    Orbital Energies (a.u.)
    -----------------------

    Doubly Occupied:

       1A    -20.516170     2A    -15.585035     3A    -11.337491
       4A    -11.259280     5A     -1.393681     6A     -1.239874
       7A     -0.970369     8A     -0.808283     9A     -0.748797
      10A     -0.646366    11A     -0.629413    12A     -0.596820
      13A     -0.555366    14A     -0.541994    15A     -0.428287
      16A     -0.396014

  @DF-RHF Final Energy:  -208.04359409148259

   => Energetics <=

    Nuclear Repulsion Energy =            122.7201901392876238
    One-Electron Energy =                -526.2210939441920345
    Two-Electron Energy =                 195.4573097134217221
    DFT Exchange-Correlation Energy =       0.0000000000000000
    Empirical Dispersion Energy =           0.0000000000000000
    PCM Polarization Energy =               0.0000000000000000
    EFP Energy =                            0.0000000000000000
    Total Energy =                       -208.0435940914826745
    Molecular point group: c1
  Basis Set: CC-PVTZ
  Basis Set:

  -Total Gradient:
     Atom            X                  Y                   Z
    ------   -----------------  -----------------  -----------------
       1        0.000003489325     0.000005819263    -0.000004960956
       2       -0.000009512578    -0.000050346879    -0.000008806036
       3        0.000033358476     0.000054077019    -0.000181530215
       4       -0.000008082973     0.000025225529     0.000002375429
       5       -0.000071745872    -0.000092786136     0.000084470476
       6       -0.000005305301    -0.000009605084     0.000148921963
       7        0.000060878314     0.000076097268    -0.000062600637
       8        0.000001991694    -0.000001151183     0.000013193486
       9       -0.000005071085    -0.000007329797     0.000008936490

  **** Optimization is complete! (in 7 steps) ****
    Final optimized geometry and variables:
    Molecular point group: c1

    Geometry (in Angstrom), charge = 0, multiplicity = 1:

    H            1.361473958097    -1.359021052557     0.025387719505
    C            0.784231795183    -0.433231901496     0.064080118583
    N           -0.518103678714    -0.632374796496    -0.198918762464
    O            1.293174816702     0.614896176874     0.306629364656
    C           -1.506828624638     0.421442548126    -0.172325007875
    H           -0.818177986453    -1.566737278027    -0.329642694996
    H           -2.163888357259     0.336750469832    -1.027838511999
    H           -0.997756383765     1.369908945593    -0.214001036629
    H           -2.102723362459     0.387061103258     0.732364304888

  Mulliken Charges: (a.u.)
   Center  Symbol    Alpha    Beta     Spin     Total
       1     H     0.46295  0.46295  0.00000  0.07410
       2     C     2.88099  2.88099  0.00000  0.23802
       3     N     3.60779  3.60779  0.00000 -0.21558
       4     O     4.21484  4.21484  0.00000 -0.42968
       5     C     3.08060  3.08060  0.00000 -0.16121
       6     H     0.40976  0.40976  0.00000  0.18048
       7     H     0.45401  0.45401  0.00000  0.09197
       8     H     0.43371  0.43371  0.00000  0.13258
       9     H     0.45534  0.45534  0.00000  0.08932

   Total alpha = 16.00000, Total beta = 16.00000, Total charge = -0.00000

*** Psi4 exiting successfully. Buy a developer a beer!
