  ==> Input File <==

--------------------------------------------------------------------------
set {
	reference rhf
	basis cc-pvtz
}

set_num_threads( 4 )
memory 2 gb

molecule MOL {
0 1

H	 2.101330	 -0.693998	 0.936822
C	 1.955678	 -0.254241	 -0.058695
C	 0.690519	 0.540760	 -0.226458
O	 2.763084	 -0.426179	 -0.904961
C	 -0.554654	 -0.292621	 0.086567
H	 0.661095	 0.929618	 -1.235794
H	 0.742441	 1.383702	 0.459568
C	 -1.846385	 0.513195	 -0.016346
H	 -0.600270	 -1.136369	 -0.596036
H	 -0.470592	 -0.709737	 1.086877
C	 -3.089953	 -0.365049	 -0.098564
H	 -1.798267	 1.154820	 -0.891143
H	 -1.925398	 1.173265	 0.842889
H	 -3.055079	 -1.012299	 -0.968245
H	 -3.988403	 0.236438	 -0.170014
H	 -3.183055	 -0.995885	 0.779079

	symmetry c1
}
set optking {
	frozen_dihedral = ("
		9 5 8 12
	")
}

ee = optimize('scf')
oeprop('DIPOLE', 'QUADRUPOLE', 'MULLIKEN_CHARGES')
f=open( 'psi4out.xyz', 'w' )
f.write( "16  " )
f.write( str(ee) + "\n" )
f.write( MOL.save_string_xyz() )
f.close()
--------------------------------------------------------------------------

    Molecular point group: c1
  Charge       = 0
  Multiplicity = 1
  Basis Set: CC-PVTZ
  Basis Set:
  @DF-RHF Final Energy:  -270.11829437035811
    Total Energy =                       -270.1182943703580577
    Molecular point group: c1
  Basis Set: CC-PVTZ
  Basis Set:
  Basis Set: CC-PVTZ
  Basis Set:
  @DF-RHF Final Energy:  -270.11839987460121
    Total Energy =                       -270.1183998746013799
  Basis Set: CC-PVTZ
  Basis Set:
  Basis Set: CC-PVTZ
  Basis Set:
  @DF-RHF Final Energy:  -270.11828028755019
    Total Energy =                       -270.1182802875503057
  Basis Set: CC-PVTZ
  Basis Set:
  Basis Set: CC-PVTZ
  Basis Set:
  @DF-RHF Final Energy:  -270.11843724995754
    Total Energy =                       -270.1184372499573669
  Basis Set: CC-PVTZ
  Basis Set:
  Basis Set: CC-PVTZ
  Basis Set:
  @DF-RHF Final Energy:  -270.11843739883182
    Total Energy =                       -270.1184373988317020
  Basis Set: CC-PVTZ
  Basis Set:
  Basis Set: CC-PVTZ
  Basis Set:
  @DF-RHF Final Energy:  -270.11844263730171
    Total Energy =                       -270.1184426373015981
  Basis Set: CC-PVTZ
  Basis Set:
  Charge       = 0
  Multiplicity = 1
  Basis Set: CC-PVTZ
  Basis Set:

    Orbital Energies (a.u.)
    -----------------------

    Doubly Occupied:

       1A    -20.552189     2A    -11.321400     3A    -11.234724
       4A    -11.234106     5A    -11.227435     6A    -11.216848
       7A     -1.406971     8A     -1.097657     9A     -1.020317
      10A     -0.906992    11A     -0.813109    12A     -0.794444
      13A     -0.679519    14A     -0.650557    15A     -0.632757
      16A     -0.603354    17A     -0.584729    18A     -0.553785
      19A     -0.527242    20A     -0.512888    21A     -0.488876
      22A     -0.482750    23A     -0.478399    24A     -0.411690

  @DF-RHF Final Energy:  -270.11844272116508

   => Energetics <=

    Nuclear Repulsion Energy =            229.3498038236597836
    One-Electron Energy =                -820.0710142762975465
    Two-Electron Energy =                 320.6027677314726816
    DFT Exchange-Correlation Energy =       0.0000000000000000
    Empirical Dispersion Energy =           0.0000000000000000
    PCM Polarization Energy =               0.0000000000000000
    EFP Energy =                            0.0000000000000000
    Total Energy =                       -270.1184427211650245
    Molecular point group: c1
  Basis Set: CC-PVTZ
  Basis Set:

  -Total Gradient:
     Atom            X                  Y                   Z
    ------   -----------------  -----------------  -----------------
       1        0.000000634857     0.000001202980     0.000000909185
       2       -0.000007429511    -0.000006116783     0.000001920831
       3        0.000001328157     0.000008423116    -0.000005659599
       4       -0.000000947424     0.000002543010    -0.000000285732
       5        0.001729795507     0.002555861134    -0.002222277877
       6       -0.000001624094     0.000000114049    -0.000000963067
       7       -0.000001225089    -0.000002918456    -0.000000438930
       8       -0.001765862861    -0.003007572169    -0.001505925795
       9       -0.001170976729    -0.001658229133     0.002103353796
      10        0.000001267842     0.000003009529     0.000005794283
      11        0.000001522327    -0.000006478703    -0.000002713700
      12        0.001210617923     0.002102066025     0.001623156270
      13       -0.000002072005     0.000002300056     0.000005970532
      14       -0.000003419439     0.000002157460    -0.000002315576
      15        0.000004432493     0.000002563273     0.000002497154
      16        0.000003958050     0.000001074613    -0.000003021774

  **** Optimization is complete! (in 7 steps) ****
    Final optimized geometry and variables:
    Molecular point group: c1

    Geometry (in Angstrom), charge = 0, multiplicity = 1:

    H            2.095816116334    -0.626592305627     1.173267923237
    C            1.973030557102    -0.192661320396     0.172175905586
    C            0.707970086165     0.593970937960    -0.032044846989
    O            2.802621664843    -0.363563118942    -0.652537810396
    C           -0.539677840684    -0.244451877399     0.250094109407
    H            0.702879962535     0.980177837667    -1.042669475880
    H            0.735964190258     1.439035802139     0.653106801189
    C           -1.834502116568     0.562761927021     0.166116021841
    H           -0.585418931078    -1.084444052082    -0.436990766066
    H           -0.463546663108    -0.683169839628     1.242223295470
    C           -3.083820824969    -0.308106386635     0.124230480916
    H           -1.800992138253     1.213867718686    -0.702376317705
    H           -1.887118843679     1.227681953640     1.024160543259
    H           -3.089576722577    -0.941655114435    -0.755947404913
    H           -3.981854173100     0.297786580933     0.102716620782
    H           -3.140527521700    -0.952496185002     0.995307075907

  Mulliken Charges: (a.u.)
   Center  Symbol    Alpha    Beta     Spin     Total
       1     H     0.46528  0.46528  0.00000  0.06944
       2     C     2.90882  2.90882  0.00000  0.18237
       3     C     3.07703  3.07703  0.00000 -0.15406
       4     O     4.16398  4.16398  0.00000 -0.32795
       5     C     3.10273  3.10273  0.00000 -0.20546
       6     H     0.44229  0.44229  0.00000  0.11542
       7     H     0.44996  0.44996  0.00000  0.10008
       8     C     3.08488  3.08488  0.00000 -0.16977
       9     H     0.44638  0.44638  0.00000  0.10723
      10     H     0.45157  0.45157  0.00000  0.09685
      11     C     3.14839  3.14839  0.00000 -0.29678
      12     H     0.45180  0.45180  0.00000  0.09641
      13     H     0.45284  0.45284  0.00000  0.09431
      14     H     0.45296  0.45296  0.00000  0.09408
      15     H     0.44687  0.44687  0.00000  0.10627
      16     H     0.45422  0.45422  0.00000  0.09156

   Total alpha = 24.00000, Total beta = 24.00000, Total charge = -0.00000
