                              Psi4 1.0.54 Driver

  ==> Input File <==

--------------------------------------------------------------------------
set {
	reference rhf
	basis cc-pvtz
}

set_num_threads( 4 )
memory 2 gb

molecule MOL {
0 1

H	 -3.258660	 -0.290394	 1.471450
C	 -3.307964	 -0.275695	 0.374072
C	 -2.653809	 0.914422	 -0.273689
O	 -3.855140	 -1.148880	 -0.205112
C	 -1.182815	 1.071167	 0.122901
H	 -2.771186	 0.830580	 -1.346315
H	 -3.207999	 1.790566	 0.055781
C	 -0.282130	 -0.039920	 -0.412295
H	 -0.829366	 2.029148	 -0.242727
H	 -1.104928	 1.114507	 1.206529
C	 1.181996	 0.135720	 -0.018255
H	 -0.363813	 -0.071873	 -1.495538
H	 -0.635820	 -1.004064	 -0.056265
C	 2.082318	 -0.970488	 -0.565037
H	 1.526851	 1.103401	 -0.368990
H	 1.261420	 0.157473	 1.066418
C	 3.545655	 -0.882109	 -0.128305
H	 2.032899	 -0.968980	 -1.651471
H	 1.685360	 -1.930182	 -0.246108
C	 4.301128	 0.329962	 -0.667962
H	 4.055174	 -1.782916	 -0.455916
H	 3.596486	 -0.884450	 0.957382
H	 4.261699	 0.362204	 -1.752121
H	 3.894074	 1.261882	 -0.294441
H	 5.344818	 0.292332	 -0.377685

	symmetry c1
}
set optking {
	frozen_dihedral = ("
		6 3 2 4
	")
}

ee,wfn = optimize('scf', return_wfn=True)
oeprop( wfn, 'DIPOLE', 'QUADRUPOLE', 'MULLIKEN_CHARGES')
f=open( 'psi4out.xyz', 'w' )
f.write( "25  " )
f.write( str(ee) + "\n" )
f.write( MOL.save_string_xyz() )
f.close()
--------------------------------------------------------------------------

    Molecular point group: c1
  Charge       = 0
  Multiplicity = 1
  Basis Set: CC-PVTZ
  Basis Set:
  @DF-RHF Final Energy:  -387.26037978567928
    Total Energy =                       -387.2603797856792198
    Molecular point group: c1
  Basis Set: CC-PVTZ
  Basis Set:
  Basis Set: CC-PVTZ
  Basis Set:
  @DF-RHF Final Energy:  -387.26025716384686
    Total Energy =                       -387.2602571638468589
  Basis Set: CC-PVTZ
  Basis Set:
  Basis Set: CC-PVTZ
  Basis Set:
  @DF-RHF Final Energy:  -387.26038395324679
    Total Energy =                       -387.2603839532465599
  Basis Set: CC-PVTZ
  Basis Set:
  Basis Set: CC-PVTZ
  Basis Set:
  @DF-RHF Final Energy:  -387.26038287998222
    Total Energy =                       -387.2603828799822168
  Basis Set: CC-PVTZ
  Basis Set:
  Basis Set: CC-PVTZ
  Basis Set:
  @DF-RHF Final Energy:  -387.26038576392727
    Total Energy =                       -387.2603857639277294
  Basis Set: CC-PVTZ
  Basis Set:
  Charge       = 0
  Multiplicity = 1
  Basis Set: CC-PVTZ
  Basis Set:

    Orbital Energies (a.u.)
    -----------------------

    Doubly Occupied:

       1A    -20.551503     2A    -11.320923     3A    -11.233796
       4A    -11.233036     5A    -11.221091     6A    -11.217346
       7A    -11.215980     8A    -11.214684     9A    -11.208630
      10A     -1.406446    11A     -1.105005    12A     -1.070751
      13A     -1.014448    14A     -0.943460    15A     -0.875869
      16A     -0.820537    17A     -0.788481    18A     -0.781416
      19A     -0.668871    20A     -0.663816    21A     -0.635038
      22A     -0.626419    23A     -0.601803    24A     -0.595182
      25A     -0.577972    26A     -0.550336    27A     -0.536486
      28A     -0.527646    29A     -0.509002    30A     -0.497304
      31A     -0.491897    32A     -0.479508    33A     -0.464849
      34A     -0.459083    35A     -0.442477    36A     -0.411879

  @DF-RHF Final Energy:  -387.26038581203198

   => Energetics <=

    Nuclear Repulsion Energy =            440.0631102113151769
    One-Electron Energy =               -1396.7210465947537159
    Two-Electron Energy =                 569.3975505714065548
    DFT Exchange-Correlation Energy =       0.0000000000000000
    Empirical Dispersion Energy =           0.0000000000000000
    PCM Polarization Energy =               0.0000000000000000
    EFP Energy =                            0.0000000000000000
    Total Energy =                       -387.2603858120319273
    Molecular point group: c1
  Basis Set: CC-PVTZ
  Basis Set:

  -Total Gradient:
     Atom            X                  Y                   Z
    ------   -----------------  -----------------  -----------------
       1       -0.000000938846     0.000005361967    -0.000020422671
       2       -0.000553793895     0.000299808046     0.000044516493
       3        0.000540366218    -0.000307743369    -0.000032207440
       4        0.000334646104    -0.000178454512    -0.000014100898
       5       -0.000005368067     0.000000996698     0.000001416395
       6       -0.000314333121     0.000181161746     0.000019920422
       7       -0.000000447298    -0.000003755289    -0.000000155224
       8       -0.000003055788    -0.000007405052     0.000007442764
       9        0.000004038188    -0.000002945907     0.000000017090
      10        0.000001635849     0.000001480803     0.000002221771
      11        0.000001487588     0.000009398045    -0.000013359054
      12        0.000001735686     0.000003031282     0.000002684255
      13       -0.000005123323    -0.000003764831    -0.000001091762
      14       -0.000002144554     0.000000791386     0.000000942904
      15        0.000001077225    -0.000000223909    -0.000000206989
      16        0.000000571041    -0.000000866943    -0.000004030270
      17       -0.000001790020     0.000001638627     0.000007367572
      18       -0.000000717405     0.000004317138     0.000000950433
      19       -0.000002428078    -0.000001501071    -0.000001930803
      20        0.000000843710     0.000000365201    -0.000000526473
      21       -0.000001801839     0.000000015220     0.000000746860
      22        0.000002230451     0.000000618841     0.000001081985
      23        0.000000129848     0.000000128998    -0.000000236043
      24        0.000003471677    -0.000001852820    -0.000000721793
      25       -0.000000291351    -0.000000600294    -0.000000319527

  **** Optimization is complete! (in 6 steps) ****
    Final optimized geometry and variables:
    Molecular point group: c1

    Geometry (in Angstrom), charge = 0, multiplicity = 1:

    H           -3.235398977757    -0.187873393939     1.672964933955
    C           -3.293015536646    -0.172538270081     0.576036198837
    C           -2.640627110814     1.016279036752    -0.075129432706
    O           -3.839337866324    -1.048522760968     0.000181074283
    C           -1.168844725538     1.170573683506     0.322418586056
    H           -2.757469006818     0.930160305204    -1.147618789853
    H           -3.191568083194     1.894887221003     0.252692370721
    C           -0.268190611473     0.060080331531    -0.213915940705
    H           -0.815227198515     2.129014045798    -0.041813614552
    H           -1.091547162093     1.212592210418     1.406168758307
    C            1.195928509501     0.237165582495     0.179544503090
    H           -0.350421280326     0.028961389322    -1.297106636354
    H           -0.621093454770    -0.904314858701     0.141472662287
    C            2.096628668916    -0.868856241901    -0.366967569514
    H            1.540224565781     1.204890425181    -0.171697420781
    H            1.275796618519     0.259346885118     1.264192537227
    C            3.559377419295    -0.781175487139     0.071743432792
    H            2.048663769657    -0.866431756316    -1.453460130903
    H            1.698950815365    -1.828673682090    -0.049353100397
    C            4.315669047675     0.431417551533    -0.465606115398
    H            4.069191224065    -1.681696247343    -0.256215693541
    H            3.608781435205    -0.784723558318     1.157491950710
    H            4.276858019512     0.465298434853    -1.549737847755
    H            3.908806434822     1.362958731189    -0.090918275636
    H            5.359186988689     0.392897953898    -0.174799114470

  Mulliken Charges: (a.u.)
   Center  Symbol    Alpha    Beta     Spin     Total
       1     H     0.46445  0.46445  0.00000  0.07109
       2     C     2.90418  2.90418  0.00000  0.19165
       3     C     3.08915  3.08915  0.00000 -0.17831
       4     O     4.16654  4.16654  0.00000 -0.33308
       5     C     3.11581  3.11581  0.00000 -0.23162
       6     H     0.44318  0.44318  0.00000  0.11364
       7     H     0.44080  0.44080  0.00000  0.11839
       8     C     3.08946  3.08946  0.00000 -0.17893
       9     H     0.44320  0.44320  0.00000  0.11360
      10     H     0.44988  0.44988  0.00000  0.10024
      11     C     3.09302  3.09302  0.00000 -0.18604
      12     H     0.44993  0.44993  0.00000  0.10015
      13     H     0.44740  0.44740  0.00000  0.10520
      14     C     3.09564  3.09564  0.00000 -0.19127
      15     H     0.45159  0.45159  0.00000  0.09682
      16     H     0.45436  0.45436  0.00000  0.09129
      17     C     3.09074  3.09074  0.00000 -0.18148
      18     H     0.45296  0.45296  0.00000  0.09409
      19     H     0.44777  0.44777  0.00000  0.10445
      20     C     3.15268  3.15268  0.00000 -0.30537
      21     H     0.44766  0.44766  0.00000  0.10467
      22     H     0.45473  0.45473  0.00000  0.09054
      23     H     0.45454  0.45454  0.00000  0.09092
      24     H     0.45440  0.45440  0.00000  0.09119
      25     H     0.44592  0.44592  0.00000  0.10817

   Total alpha = 36.00000, Total beta = 36.00000, Total charge =  0.00000

*** Psi4 exiting successfully. Buy a developer a beer!
