  ==> Input File <==

--------------------------------------------------------------------------
set {
	reference rhf
	basis cc-pvtz
}

set_num_threads( 4 )
memory 2 gb

molecule MOL {
0 1

O	 -2.071633	 -1.227563	 -0.223463
C	 -1.652164	 -0.152425	 0.058082
C	 -0.327811	 0.006324	 0.778296
C	 -2.402515	 1.108629	 -0.298924
C	 0.843231	 -0.001575	 -0.211665
H	 -0.319484	 0.928173	 1.350354
H	 -0.227804	 -0.823091	 1.466705
C	 2.197693	 0.138030	 0.476937
H	 0.722944	 0.805202	 -0.930230
H	 0.813976	 -0.926978	 -0.776588
C	 2.776247	 1.544676	 0.368381
H	 2.098932	 -0.132191	 1.524672
H	 2.893519	 -0.573394	 0.041917
H	 2.118312	 2.275612	 0.826516
H	 2.916095	 1.830758	 -0.668425
H	 3.738418	 1.610677	 0.862621
H	 -3.240910	 0.874416	 -0.936711
H	 -1.747554	 1.818823	 -0.790984
H	 -2.760419	 1.579708	 0.610998

	symmetry c1
}
set optking {
	frozen_dihedral = ("
		11 8 5 9
	")
}

ee = optimize('scf')
oeprop('DIPOLE', 'QUADRUPOLE', 'MULLIKEN_CHARGES')
f=open( 'psi4out.xyz', 'w' )
f.write( "19  " )
f.write( str(ee) + "\n" )
f.write( MOL.save_string_xyz() )
f.close()
--------------------------------------------------------------------------

    Molecular point group: c1
  Charge       = 0
  Multiplicity = 1
  Basis Set: CC-PVTZ
  Basis Set:
  @DF-RHF Final Energy:  -309.17236363748901
    Total Energy =                       -309.1723636374890702
    Molecular point group: c1
  Basis Set: CC-PVTZ
  Basis Set:
  Basis Set: CC-PVTZ
  Basis Set:
  @DF-RHF Final Energy:  -309.17262913145237
    Total Energy =                       -309.1726291314525952
  Basis Set: CC-PVTZ
  Basis Set:
  Basis Set: CC-PVTZ
  Basis Set:
  @DF-RHF Final Energy:  -309.17272841140920
    Total Energy =                       -309.1727284114091390
  Basis Set: CC-PVTZ
  Basis Set:
  Basis Set: CC-PVTZ
  Basis Set:
  @DF-RHF Final Energy:  -309.17260358377911
    Total Energy =                       -309.1726035837788800
  Basis Set: CC-PVTZ
  Basis Set:
  Basis Set: CC-PVTZ
  Basis Set:
  @DF-RHF Final Energy:  -309.17272465145504
    Total Energy =                       -309.1727246514550416
  Basis Set: CC-PVTZ
  Basis Set:
  Basis Set: CC-PVTZ
  Basis Set:
  @DF-RHF Final Energy:  -309.17274360972658
    Total Energy =                       -309.1727436097265809
  Basis Set: CC-PVTZ
  Basis Set:
  Charge       = 0
  Multiplicity = 1
  Basis Set: CC-PVTZ
  Basis Set:

    Orbital Energies (a.u.)
    -----------------------

    Doubly Occupied:

       1A    -20.536920     2A    -11.319194     3A    -11.228958
       4A    -11.228041     5A    -11.226989     6A    -11.223205
       7A    -11.215600     8A     -1.396947     9A     -1.091693
      10A     -1.029568    11A     -0.984275    12A     -0.894234
      13A     -0.805913    14A     -0.736423    15A     -0.661705
      16A     -0.648700    17A     -0.619435    18A     -0.614054
      19A     -0.597283    20A     -0.569744    21A     -0.555955
      22A     -0.533151    23A     -0.522199    24A     -0.502801
      25A     -0.483986    26A     -0.471120    27A     -0.468093
      28A     -0.399012

  @DF-RHF Final Energy:  -309.17274433415696

   => Energetics <=

    Nuclear Repulsion Energy =            303.6971522740582259
    One-Electron Energy =               -1020.6093942368783019
    Two-Electron Energy =                 407.7394976286630595
    DFT Exchange-Correlation Energy =       0.0000000000000000
    Empirical Dispersion Energy =           0.0000000000000000
    PCM Polarization Energy =               0.0000000000000000
    EFP Energy =                            0.0000000000000000
    Total Energy =                       -309.1727443341570165
    Molecular point group: c1
  Basis Set: CC-PVTZ
  Basis Set:

  -Total Gradient:
     Atom            X                  Y                   Z
    ------   -----------------  -----------------  -----------------
       1       -0.000004791453    -0.000004887018     0.000015933406
       2        0.000022061371    -0.000006756987    -0.000053326827
       3       -0.000002323618    -0.000005060341     0.000012688789
       4       -0.000009862575    -0.000000114771     0.000044104240
       5        0.002192614636    -0.002504105723    -0.003712181293
       6       -0.000001037306    -0.000000245079     0.000010039580
       7       -0.000028089843    -0.000002889369     0.000003662394
       8       -0.001874297553     0.001256209652     0.003425319390
       9       -0.001437589453     0.001851262295     0.002325417915
      10        0.000011378005     0.000010399999     0.000013807763
      11        0.001114340400    -0.000587018967    -0.002076513410
      12        0.000011356033    -0.000014285833     0.000006317379
      13       -0.000012843520     0.000002784165    -0.000004940581
      14       -0.000003370353     0.000013883397    -0.000009514713
      15        0.000028376623     0.000001331818    -0.000003752438
      16       -0.000022886065    -0.000011828897     0.000011522407
      17        0.000009713662    -0.000009046224     0.000002391953
      18        0.000006536108    -0.000000692031    -0.000005710604
      19        0.000000714903     0.000011059912    -0.000005265351

  **** Optimization is complete! (in 7 steps) ****
    Final optimized geometry and variables:
    Molecular point group: c1

    Geometry (in Angstrom), charge = 0, multiplicity = 1:

    O           -2.004896591656    -1.427299535678    -0.359356793916
    C           -1.564531870774    -0.361778077895    -0.072751247371
    C           -0.237818511395    -0.233039607286     0.648467271430
    C           -2.290619949571     0.915159629674    -0.423723924552
    C            0.935249650812    -0.256309363713    -0.343682468328
    H           -0.212816713272     0.684779482293     1.227009984862
    H           -0.152420649123    -1.068743930385     1.330800661688
    C            2.298114831722    -0.071570010280     0.347096916019
    H            0.789474943759     0.540992385624    -1.066448027009
    H            0.903046444212    -1.192118120129    -0.885851377670
    C            2.848356613943     1.347644757642     0.236616991318
    H            2.221740389820    -0.356069435795     1.391233010699
    H            3.017221964950    -0.751907101303    -0.095855396873
    H            2.161475390756     2.075394245685     0.657592057467
    H            3.017609170888     1.615906734165    -0.800335812111
    H            3.790946559146     1.444223391940     0.762750075544
    H           -3.129085159315     0.700645601134    -1.068313308728
    H           -1.621293614146     1.618955374019    -0.905410172009
    H           -2.646449550777     1.383792395755     0.488324289295

  Mulliken Charges: (a.u.)
   Center  Symbol    Alpha    Beta     Spin     Total
       1     O     4.17698  4.17698  0.00000 -0.35395
       2     C     2.85892  2.85892  0.00000  0.28216
       3     C     3.09926  3.09926  0.00000 -0.19853
       4     C     3.15540  3.15540  0.00000 -0.31080
       5     C     3.10511  3.10511  0.00000 -0.21022
       6     H     0.44912  0.44912  0.00000  0.10175
       7     H     0.43858  0.43858  0.00000  0.12284
       8     C     3.09078  3.09078  0.00000 -0.18157
       9     H     0.45289  0.45289  0.00000  0.09422
      10     H     0.43414  0.43414  0.00000  0.13172
      11     C     3.14816  3.14816  0.00000 -0.29632
      12     H     0.45259  0.45259  0.00000  0.09482
      13     H     0.44612  0.44612  0.00000  0.10776
      14     H     0.45638  0.45638  0.00000  0.08725
      15     H     0.45347  0.45347  0.00000  0.09306
      16     H     0.44681  0.44681  0.00000  0.10639
      17     H     0.43591  0.43591  0.00000  0.12817
      18     H     0.45102  0.45102  0.00000  0.09797
      19     H     0.44835  0.44835  0.00000  0.10330

   Total alpha = 28.00000, Total beta = 28.00000, Total charge = -0.00000
