  ==> Input File <==

--------------------------------------------------------------------------
set {
	reference rhf
	basis 6-31G*
}

set_num_threads( 4 )
memory 2 gb

molecule MOL {
0 1

H	 -2.499100	 -0.730091	 -0.745082
O	 -2.347518	 -0.290803	 0.079804
C	 -1.184022	 0.487508	 -0.006784
C	 0.062599	 -0.378592	 0.031606
H	 -1.176523	 1.099369	 -0.904519
H	 -1.187323	 1.153111	 0.844927
O	 0.972868	 0.215920	 0.902093
H	 0.489628	 -0.465068	 -0.969468
H	 -0.199710	 -1.381984	 0.361730
C	 2.161946	 -0.490327	 1.064728
H	 2.695482	 -0.593699	 0.121710
H	 2.779315	 0.064470	 1.757519
H	 1.981543	 -1.483831	 1.469938

	symmetry c1
}
set optking {
	frozen_dihedral = ("
		8 4 3 5
	")
}

ee = optimize('scf')
oeprop('DIPOLE', 'QUADRUPOLE', 'MULLIKEN_CHARGES')
f=open( 'psi4out.xyz', 'w' )
f.write( "13  " )
f.write( str(ee) + "\n" )
f.write( MOL.save_string_xyz() )
f.close()
--------------------------------------------------------------------------

    Molecular point group: c1
  Charge       = 0
  Multiplicity = 1
  Basis Set: 6-31G*
  Basis Set:
  @DF-RHF Final Energy:  -267.94424135525094
    Total Energy =                       -267.9442413552510516
    Molecular point group: c1
  Basis Set: 6-31G*
  Basis Set:
  Basis Set: 6-31G*
  Basis Set:
  @DF-RHF Final Energy:  -267.94483966988116
    Total Energy =                       -267.9448396698811052
  Basis Set: 6-31G*
  Basis Set:
  Basis Set: 6-31G*
  Basis Set:
  @DF-RHF Final Energy:  -267.94502885168811
    Total Energy =                       -267.9450288516882779
  Basis Set: 6-31G*
  Basis Set:
  Basis Set: 6-31G*
  Basis Set:
  @DF-RHF Final Energy:  -267.94503253693517
    Total Energy =                       -267.9450325369351162
  Basis Set: 6-31G*
  Basis Set:
  Charge       = 0
  Multiplicity = 1
  Basis Set: 6-31G*
  Basis Set:

    Orbital Energies (a.u.)
    -----------------------

    Doubly Occupied:

       1A    -20.559664     2A    -20.557238     3A    -11.270332
       4A    -11.269264     5A    -11.268159     6A     -1.385471
       7A     -1.361756     8A     -1.015422     9A     -0.911590
      10A     -0.842152    11A     -0.705931    12A     -0.666295
      13A     -0.664151    14A     -0.641384    15A     -0.582074
      16A     -0.570456    17A     -0.546259    18A     -0.488980
      19A     -0.480343    20A     -0.437191    21A     -0.419367

  @DF-RHF Final Energy:  -267.94503296403695

   => Energetics <=

    Nuclear Repulsion Energy =            190.0388989725524596
    One-Electron Energy =                -742.6809030719196016
    Two-Electron Energy =                 284.6969711353301591
    DFT Exchange-Correlation Energy =       0.0000000000000000
    Empirical Dispersion Energy =           0.0000000000000000
    PCM Polarization Energy =               0.0000000000000000
    EFP Energy =                            0.0000000000000000
    Total Energy =                       -267.9450329640369546
    Molecular point group: c1
  Basis Set: 6-31G*
  Basis Set:

  -Total Gradient:
     Atom            X                  Y                   Z
    ------   -----------------  -----------------  -----------------
       1       -0.000003930171    -0.000013755805    -0.000007903597
       2        0.000024120149     0.000023350638    -0.000005439350
       3        0.003370621760     0.005088610742     0.003086057076
       4       -0.003755024315    -0.005471187453    -0.001628446540
       5       -0.002192321084    -0.003299671508    -0.002265445303
       6       -0.000004706587    -0.000004357452    -0.000002832563
       7       -0.000005363815     0.000009732309     0.000010285544
       8        0.002558598417     0.003670667893     0.000824185160
       9        0.000010304502     0.000014077916     0.000000032219
      10        0.000007969487    -0.000029002836    -0.000018493069
      11        0.000005298382     0.000002001653     0.000000195778
      12       -0.000022569419     0.000009555363    -0.000000630249
      13        0.000007002691    -0.000000021460     0.000008434895

  **** Optimization is complete! (in 5 steps) ****
    Final optimized geometry and variables:
    Molecular point group: c1

    Geometry (in Angstrom), charge = 0, multiplicity = 1:

    H           -2.431959370624    -0.568629203745    -1.215451454061
    O           -2.288148228413    -0.160371204495    -0.373685771249
    C           -1.098597875731     0.589419905423    -0.404325747305
    C            0.147436544079    -0.296949855698    -0.336511132152
    H           -1.084567406102     1.204966750924    -1.299246052520
    H           -1.111011947013     1.230247369525     0.463759990156
    O            1.067708327213     0.313319309817     0.521080642432
    H            0.609189266657    -0.406479382426    -1.317920992745
    H           -0.132187978440    -1.279545359011     0.035069428929
    C            2.271461605509    -0.373190602450     0.649836336745
    H            2.786308298928    -0.458828550970    -0.305678566191
    H            2.894629016552     0.185817693041     1.334147885669
    H            2.118277831658    -1.373820947970     1.049584065475

  Mulliken Charges: (a.u.)
   Center  Symbol    Alpha    Beta     Spin     Total
       1     H     0.28258  0.28258  0.00000  0.43483
       2     O     4.37072  4.37072  0.00000 -0.74145
       3     C     3.00937  3.00937  0.00000 -0.01874
       4     C     3.00192  3.00192  0.00000 -0.00384
       5     H     0.42628  0.42628  0.00000  0.14744
       6     H     0.39876  0.39876  0.00000  0.20248
       7     O     4.30754  4.30754  0.00000 -0.61508
       8     H     0.43330  0.43330  0.00000  0.13340
       9     H     0.41954  0.41954  0.00000  0.16092
      10     C     3.08039  3.08039  0.00000 -0.16078
      11     H     0.43043  0.43043  0.00000  0.13915
      12     H     0.41083  0.41083  0.00000  0.17834
      13     H     0.42834  0.42834  0.00000  0.14332

   Total alpha = 21.00000, Total beta = 21.00000, Total charge = -0.00000
