  ==> Input File <==

--------------------------------------------------------------------------
set {
	reference rhf
	basis cc-pvtz
}

set_num_threads( 4 )
memory 2 gb

molecule MOL {
0 1

H	 -3.202670	 -0.443512	 1.374857
C	 -3.267237	 -0.341681	 0.282911
C	 -2.653809	 0.914422	 -0.273689
O	 -3.798813	 -1.180053	 -0.358858
C	 -1.216901	 1.136108	 0.207794
H	 -2.711399	 0.876523	 -1.353773
H	 -3.275656	 1.739998	 0.065480
C	 -0.247837	 0.040196	 -0.230469
H	 -0.872882	 2.093195	 -0.169002
H	 -1.209325	 1.218376	 1.291938
C	 1.181757	 0.280428	 0.247371
H	 -0.259600	 -0.030819	 -1.314870
H	 -0.591284	 -0.923375	 0.136958
C	 2.151032	 -0.811012	 -0.202643
H	 1.515939	 1.247397	 -0.115449
H	 1.191514	 0.341223	 1.333422
C	 3.580021	 -0.656538	 0.320835
H	 2.170545	 -0.847575	 -1.289412
H	 1.766632	 -1.772905	 0.124928
C	 4.327657	 0.562694	 -0.213579
H	 4.138806	 -1.549270	 0.057813
H	 3.561991	 -0.620783	 1.406976
H	 4.355973	 0.557257	 -1.298551
H	 3.867136	 1.491650	 0.100501
H	 5.351524	 0.571613	 0.142204

	symmetry c1
}
set optking {
	frozen_dihedral = ("
		6 3 5 8
	")
}

ee = optimize('scf')
oeprop('DIPOLE', 'QUADRUPOLE', 'MULLIKEN_CHARGES')
f=open( 'psi4out.xyz', 'w' )
f.write( "25  " )
f.write( str(ee) + "\n" )
f.write( MOL.save_string_xyz() )
f.close()
--------------------------------------------------------------------------

    Molecular point group: c1
  Charge       = 0
  Multiplicity = 1
  Basis Set: CC-PVTZ
  Basis Set:
  @DF-RHF Final Energy:  -387.26030887118105
    Total Energy =                       -387.2603088711812234
    Molecular point group: c1
  Basis Set: CC-PVTZ
  Basis Set:
  Basis Set: CC-PVTZ
  Basis Set:
  @DF-RHF Final Energy:  -387.26031578617625
    Total Energy =                       -387.2603157861753971
  Basis Set: CC-PVTZ
  Basis Set:
  Basis Set: CC-PVTZ
  Basis Set:
  @DF-RHF Final Energy:  -387.26010405223707
    Total Energy =                       -387.2601040522373523
  Basis Set: CC-PVTZ
  Basis Set:
  Basis Set: CC-PVTZ
  Basis Set:
  @DF-RHF Final Energy:  -387.26032599758952
    Total Energy =                       -387.2603259975896890
  Basis Set: CC-PVTZ
  Basis Set:
  Basis Set: CC-PVTZ
  Basis Set:
  @DF-RHF Final Energy:  -387.26032703470008
    Total Energy =                       -387.2603270346999125
  Basis Set: CC-PVTZ
  Basis Set:
  Charge       = 0
  Multiplicity = 1
  Basis Set: CC-PVTZ
  Basis Set:

    Orbital Energies (a.u.)
    -----------------------

    Doubly Occupied:

       1A    -20.551216     2A    -11.321012     3A    -11.233778
       4A    -11.232851     5A    -11.221935     6A    -11.217859
       7A    -11.216340     8A    -11.215137     9A    -11.208895
      10A     -1.406265    11A     -1.105471    12A     -1.071075
      13A     -1.014672    14A     -0.943556    15A     -0.876201
      16A     -0.822181    17A     -0.787665    18A     -0.781997
      19A     -0.668495    20A     -0.662692    21A     -0.635364
      22A     -0.627709    23A     -0.602474    24A     -0.596925
      25A     -0.577128    26A     -0.549707    27A     -0.537977
      28A     -0.528213    29A     -0.507740    30A     -0.497702
      31A     -0.492967    32A     -0.479379    33A     -0.465220
      34A     -0.459548    35A     -0.442875    36A     -0.411856

  @DF-RHF Final Energy:  -387.26032705611556

   => Energetics <=

    Nuclear Repulsion Energy =            439.9741850623818209
    One-Electron Energy =               -1396.5248615065802369
    Two-Electron Energy =                 569.2903493880826318
    DFT Exchange-Correlation Energy =       0.0000000000000000
    Empirical Dispersion Energy =           0.0000000000000000
    PCM Polarization Energy =               0.0000000000000000
    EFP Energy =                            0.0000000000000000
    Total Energy =                       -387.2603270561157842
    Molecular point group: c1
  Basis Set: CC-PVTZ
  Basis Set:

  -Total Gradient:
     Atom            X                  Y                   Z
    ------   -----------------  -----------------  -----------------
       1        0.000014073985     0.000005659483    -0.000004144964
       2       -0.000024440000     0.000030842642    -0.000020853717
       3        0.000102091564    -0.001519431387     0.000295169532
       4        0.000020597505    -0.000010017360    -0.000000072254
       5        0.000206111507     0.000821209689    -0.000901135783
       6       -0.000150431214     0.001057287332    -0.000022896096
       7        0.000000690879     0.000004662805     0.000016042849
       8       -0.000164610381    -0.000392617916     0.000636821001
       9       -0.000010139915    -0.000006871458    -0.000011898652
      10        0.000007860786     0.000008024968     0.000005427673
      11        0.000011712429     0.000007900203    -0.000007068171
      12        0.000012049193     0.000002881381     0.000004228816
      13       -0.000015792228    -0.000000511062    -0.000002248861
      14       -0.000010680127    -0.000017004762     0.000026734491
      15        0.000025365317     0.000024391645     0.000002790581
      16       -0.000001977217    -0.000009319281    -0.000009719503
      17        0.000014246005    -0.000019707812    -0.000026488042
      18       -0.000000862287    -0.000009129619     0.000006143426
      19       -0.000008049703     0.000003970631     0.000008606636
      20       -0.000013985269     0.000005654526     0.000007020093
      21        0.000004303675     0.000004917351    -0.000008945507
      22        0.000004604072    -0.000010794602    -0.000002809053
      23        0.000003889343    -0.000006580516     0.000007002901
      24       -0.000025003014     0.000016869957    -0.000004921929
      25       -0.000001624914     0.000007713163     0.000007214533

  **** Optimization is complete! (in 6 steps) ****
    Final optimized geometry and variables:
    Molecular point group: c1

    Geometry (in Angstrom), charge = 0, multiplicity = 1:

    H           -3.222991372380    -0.431436059897     1.398258122658
    C           -3.288985219513    -0.325603761853     0.306773342784
    C           -2.659059417242     0.922586448496    -0.247655724332
    O           -3.836255286434    -1.153196359314    -0.335791404179
    C           -1.223755950962     1.137293665537     0.241412139106
    H           -2.712809829431     0.892104650491    -1.328216870498
    H           -3.275197972799     1.754281801458     0.088017840508
    C           -0.253156496049     0.043367076094    -0.198691920011
    H           -0.878446889835     2.098126256459    -0.124272756034
    H           -1.221240078224     1.208251232565     1.326357180380
    C            1.176928876144     0.288022853188     0.275415136460
    H           -0.267126503295    -0.030201600049    -1.282995968418
    H           -0.592748872993    -0.920446707752     0.171538447962
    C            2.147095803469    -0.804076943865    -0.170989172125
    H            1.508886509125     1.253753391407    -0.092663569372
    H            1.188504716239     0.354090997778     1.361152290975
    C            3.576685721169    -0.644433611280     0.349168418653
    H            2.164787991222    -0.845852529323    -1.257579616288
    H            1.764941931274    -1.765052514048     0.161920213519
    C            4.319059858301     0.576595677562    -0.188469676337
    H            4.137773048907    -1.535713703205     0.086125408877
    H            3.560829646743    -0.607251005030     1.435293910528
    H            4.345618479802     0.569399425198    -1.273465313491
    H            3.855721947356     1.504443674952     0.124787393403
    H            5.343462180730     0.589772308383     0.165636400354

  Mulliken Charges: (a.u.)
   Center  Symbol    Alpha    Beta     Spin     Total
       1     H     0.46358  0.46358  0.00000  0.07284
       2     C     2.90474  2.90474  0.00000  0.19052
       3     C     3.08972  3.08972  0.00000 -0.17943
       4     O     4.16665  4.16665  0.00000 -0.33330
       5     C     3.11571  3.11571  0.00000 -0.23142
       6     H     0.44236  0.44236  0.00000  0.11527
       7     H     0.44100  0.44100  0.00000  0.11800
       8     C     3.09049  3.09049  0.00000 -0.18097
       9     H     0.44297  0.44297  0.00000  0.11406
      10     H     0.44970  0.44970  0.00000  0.10060
      11     C     3.09328  3.09328  0.00000 -0.18656
      12     H     0.44931  0.44931  0.00000  0.10139
      13     H     0.44801  0.44801  0.00000  0.10399
      14     C     3.09558  3.09558  0.00000 -0.19115
      15     H     0.45126  0.45126  0.00000  0.09748
      16     H     0.45428  0.45428  0.00000  0.09143
      17     C     3.09079  3.09079  0.00000 -0.18159
      18     H     0.45283  0.45283  0.00000  0.09433
      19     H     0.44797  0.44797  0.00000  0.10407
      20     C     3.15272  3.15272  0.00000 -0.30544
      21     H     0.44763  0.44763  0.00000  0.10475
      22     H     0.45472  0.45472  0.00000  0.09057
      23     H     0.45447  0.45447  0.00000  0.09106
      24     H     0.45438  0.45438  0.00000  0.09123
      25     H     0.44587  0.44587  0.00000  0.10826

   Total alpha = 36.00000, Total beta = 36.00000, Total charge = -0.00000
