  ==> Input File <==

--------------------------------------------------------------------------
set {
	reference rhf
	basis 6-31G*
}

set_num_threads( 4 )
memory 2 gb

molecule MOL {
0 1

H	 -3.850184	 1.308296	 -0.644862
O	 -3.137457	 0.730549	 -0.877529
C	 -2.306886	 0.532354	 0.237577
C	 -1.177863	 -0.397191	 -0.171080
H	 -1.901128	 1.481004	 0.586477
H	 -2.869545	 0.095633	 1.061609
C	 0.198102	 0.111031	 0.262842
H	 -1.208843	 -0.518759	 -1.250427
H	 -1.368741	 -1.376554	 0.258909
C	 1.331804	 -0.827780	 -0.158768
H	 0.361943	 1.100838	 -0.156218
H	 0.217265	 0.229072	 1.345532
C	 2.723619	 -0.410569	 0.329459
H	 1.342964	 -0.912588	 -1.244120
H	 1.116806	 -1.824343	 0.220779
C	 3.243875	 0.895854	 -0.272975
H	 3.424222	 -1.207124	 0.091250
H	 2.714788	 -0.329854	 1.414619
H	 3.251977	 0.848779	 -1.358681
H	 2.637085	 1.747371	 0.016682
H	 4.259473	 1.094070	 0.055697

	symmetry c1
}
set optking {
	frozen_dihedral = ("
		2 3 4 8
	")
}

ee = optimize('scf')
oeprop('DIPOLE', 'QUADRUPOLE', 'MULLIKEN_CHARGES')
f=open( 'psi4out.xyz', 'w' )
f.write( "21  " )
f.write( str(ee) + "\n" )
f.write( MOL.save_string_xyz() )
f.close()
--------------------------------------------------------------------------

    Molecular point group: c1
  Charge       = 0
  Multiplicity = 1
  Basis Set: 6-31G*
  Basis Set:
  @DF-RHF Final Energy:  -310.20717463151300
    Total Energy =                       -310.2071746315131122
    Molecular point group: c1
  Basis Set: 6-31G*
  Basis Set:
  Basis Set: 6-31G*
  Basis Set:
  @DF-RHF Final Energy:  -310.20750207678657
    Total Energy =                       -310.2075020767862270
  Basis Set: 6-31G*
  Basis Set:
  Basis Set: 6-31G*
  Basis Set:
  @DF-RHF Final Energy:  -310.20761463458985
    Total Energy =                       -310.2076146345898451
  Basis Set: 6-31G*
  Basis Set:
  Basis Set: 6-31G*
  Basis Set:
  @DF-RHF Final Energy:  -310.20761565496565
    Total Energy =                       -310.2076156549655366
  Basis Set: 6-31G*
  Basis Set:
  Charge       = 0
  Multiplicity = 1
  Basis Set: 6-31G*
  Basis Set:

    Orbital Energies (a.u.)
    -----------------------

    Doubly Occupied:

       1A    -20.551321     2A    -11.267299     3A    -11.214470
       4A    -11.214374     5A    -11.212471     6A    -11.210456
       7A    -11.207091     8A     -1.357458     9A     -1.084618
      10A     -1.030782    11A     -0.952831    12A     -0.875601
      13A     -0.807525    14A     -0.778311    15A     -0.698674
      16A     -0.648096    17A     -0.621587    18A     -0.606527
      19A     -0.589004    20A     -0.563624    21A     -0.539794
      22A     -0.519581    23A     -0.506933    24A     -0.491455
      25A     -0.477509    26A     -0.459202    27A     -0.455476
      28A     -0.444101    29A     -0.427492

  @DF-RHF Final Energy:  -310.20761565173683

   => Energetics <=

    Nuclear Repulsion Energy =            312.7910998435655188
    One-Electron Energy =               -1040.3701025400621347
    Two-Electron Energy =                 417.3713870447600129
    DFT Exchange-Correlation Energy =       0.0000000000000000
    Empirical Dispersion Energy =           0.0000000000000000
    PCM Polarization Energy =               0.0000000000000000
    EFP Energy =                            0.0000000000000000
    Total Energy =                       -310.2076156517366599
    Molecular point group: c1
  Basis Set: 6-31G*
  Basis Set:

  -Total Gradient:
     Atom            X                  Y                   Z
    ------   -----------------  -----------------  -----------------
       1       -0.000066281437     0.000023877819    -0.000039874302
       2        0.001220168945     0.001762008680    -0.000442772193
       3       -0.001769704635    -0.002857577286     0.000794923218
       4        0.002447963265     0.003308781787    -0.000485000444
       5       -0.000014080839     0.000008921650    -0.000017739715
       6       -0.000050730202     0.000001908172    -0.000055264841
       7       -0.000055036633     0.000000259826    -0.000012563015
       8       -0.001687984610    -0.002270881168     0.000239262111
       9       -0.000051642045     0.000019343880     0.000036736277
      10       -0.000006197781     0.000025041747    -0.000021686255
      11       -0.000013091587    -0.000026650767     0.000006212510
      12       -0.000022935556    -0.000000795518    -0.000002059144
      13        0.000006500494     0.000005551544     0.000003673410
      14        0.000001789227     0.000015144160     0.000004724789
      15        0.000016122173    -0.000002621321    -0.000014116803
      16        0.000021149288    -0.000007707855    -0.000004633282
      17        0.000015531688    -0.000005479910     0.000021511910
      18       -0.000017760175     0.000018645640    -0.000004528215
      19       -0.000010309443     0.000004239196    -0.000006177322
      20        0.000033001017    -0.000011127314     0.000008600300
      21        0.000003528849    -0.000010882966    -0.000009228995

  **** Optimization is complete! (in 5 steps) ****
    Final optimized geometry and variables:
    Molecular point group: c1

    Geometry (in Angstrom), charge = 0, multiplicity = 1:

    H           -3.963440996471     1.151205525757    -0.501228326513
    O           -3.224877261350     0.619065372364    -0.761647141834
    C           -2.382537073639     0.409946371949     0.345331575587
    C           -1.229039370606    -0.505329774561    -0.080054509813
    H           -1.992578498319     1.364585386262     0.694968902549
    H           -2.939158196781    -0.030242184121     1.169567655265
    C            0.146646260611    -0.006252443182     0.364252759535
    H           -1.270797022141    -0.602626115364    -1.159733022653
    H           -1.393497031409    -1.505277635006     0.313790484786
    C            1.278880836793    -0.950610607698    -0.045915894953
    H            0.312616879339     0.982265619202    -0.055692604211
    H            0.156924573974     0.114524563366     1.447271554527
    C            2.670271963632    -0.534263646011     0.444826142222
    H            1.293639783266    -1.042551616699    -1.130712334756
    H            1.060400423309    -1.944573812497     0.339147040598
    C            3.200086851841     0.762100493786    -0.170836131464
    H            3.368448464205    -1.336955322655     0.220372151375
    H            2.655888575928    -0.440109976931     1.528900322441
    H            3.211957409592     0.702146653301    -1.255810725491
    H            2.596769642152     1.620175346812     0.106201375404
    H            4.215526706025     0.958520804949     0.159507175992

  Mulliken Charges: (a.u.)
   Center  Symbol    Alpha    Beta     Spin     Total
       1     H     0.28203  0.28203  0.00000  0.43594
       2     O     4.37145  4.37145  0.00000 -0.74290
       3     C     2.99421  2.99421  0.00000  0.01159
       4     C     3.16535  3.16535  0.00000 -0.33071
       5     H     0.42998  0.42998  0.00000  0.14004
       6     H     0.43044  0.43044  0.00000  0.13912
       7     C     3.16119  3.16119  0.00000 -0.32238
       8     H     0.40376  0.40376  0.00000  0.19248
       9     H     0.42037  0.42037  0.00000  0.15926
      10     C     3.15307  3.15307  0.00000 -0.30615
      11     H     0.41828  0.41828  0.00000  0.16345
      12     H     0.42554  0.42554  0.00000  0.14893
      13     C     3.15237  3.15237  0.00000 -0.30473
      14     H     0.42232  0.42232  0.00000  0.15535
      15     H     0.42225  0.42225  0.00000  0.15550
      16     C     3.24104  3.24104  0.00000 -0.48208
      17     H     0.42092  0.42092  0.00000  0.15815
      18     H     0.42394  0.42394  0.00000  0.15213
      19     H     0.42160  0.42160  0.00000  0.15679
      20     H     0.42032  0.42032  0.00000  0.15936
      21     H     0.41957  0.41957  0.00000  0.16085

   Total alpha = 29.00000, Total beta = 29.00000, Total charge =  0.00000
