  ==> Input File <==

--------------------------------------------------------------------------
set {
	reference rhf
	basis cc-pvtz
}

set_num_threads( 4 )
memory 2 gb

molecule MOL {
0 1

H	 2.190573	 -0.629143	 -0.208718
O	 1.355408	 -0.529451	 0.208662
C	 0.700177	 0.619554	 -0.266242
C	 -0.713111	 0.588314	 0.266177
H	 0.678680	 0.627133	 -1.351786
H	 1.199747	 1.521489	 0.077736
O	 -1.421673	 -0.521378	 -0.196983
H	 -1.244794	 1.469161	 -0.069059
H	 -0.685100	 0.604721	 1.352683
H	 -2.328205	 -0.414926	 0.033001

	symmetry c1
}
set optking {
	frozen_dihedral = ("
		10 7 4 3
	")
}

ee = optimize('scf')
oeprop('DIPOLE', 'QUADRUPOLE', 'MULLIKEN_CHARGES')
f=open( 'psi4out.xyz', 'w' )
f.write( "10  " )
f.write( str(ee) + "\n" )
f.write( MOL.save_string_xyz() )
f.close()
--------------------------------------------------------------------------

    Molecular point group: c1
  Charge       = 0
  Multiplicity = 1
  Basis Set: CC-PVTZ
  Basis Set:
  @DF-RHF Final Energy:  -229.02201867141622
    Total Energy =                       -229.0220186714163333
    Molecular point group: c1
  Basis Set: CC-PVTZ
  Basis Set:
  Basis Set: CC-PVTZ
  Basis Set:
  @DF-RHF Final Energy:  -229.02354114871926
    Total Energy =                       -229.0235411487190618
  Basis Set: CC-PVTZ
  Basis Set:
  Basis Set: CC-PVTZ
  Basis Set:
  @DF-RHF Final Energy:  -229.02375941871412
    Total Energy =                       -229.0237594187141212
  Basis Set: CC-PVTZ
  Basis Set:
  Basis Set: CC-PVTZ
  Basis Set:
  @DF-RHF Final Energy:  -229.02379458057396
    Total Energy =                       -229.0237945805739059
  Basis Set: CC-PVTZ
  Basis Set:
  Basis Set: CC-PVTZ
  Basis Set:
  @DF-RHF Final Energy:  -229.02379894992794
    Total Energy =                       -229.0237989499279365
  Basis Set: CC-PVTZ
  Basis Set:
  Basis Set: CC-PVTZ
  Basis Set:
  @DF-RHF Final Energy:  -229.02380024045760
    Total Energy =                       -229.0238002404575468
  Basis Set: CC-PVTZ
  Basis Set:
  Charge       = 0
  Multiplicity = 1
  Basis Set: CC-PVTZ
  Basis Set:

    Orbital Energies (a.u.)
    -----------------------

    Doubly Occupied:

       1A    -20.546147     2A    -20.545555     3A    -11.268602
       4A    -11.267920     5A     -1.375004     6A     -1.355245
       7A     -1.003952     8A     -0.831618     9A     -0.718866
      10A     -0.708469    11A     -0.618723    12A     -0.604209
      13A     -0.588517    14A     -0.527073    15A     -0.477915
      16A     -0.447239    17A     -0.439436

  @DF-RHF Final Energy:  -229.02380058119132

   => Energetics <=

    Nuclear Repulsion Energy =            133.4786040588681431
    One-Electron Energy =                -578.3558268295441849
    Two-Electron Energy =                 215.8534221894846894
    DFT Exchange-Correlation Energy =       0.0000000000000000
    Empirical Dispersion Energy =           0.0000000000000000
    PCM Polarization Energy =               0.0000000000000000
    EFP Energy =                            0.0000000000000000
    Total Energy =                       -229.0238005811913524
    Molecular point group: c1
  Basis Set: CC-PVTZ
  Basis Set:

  -Total Gradient:
     Atom            X                  Y                   Z
    ------   -----------------  -----------------  -----------------
       1        0.000003877314     0.000008600035    -0.000001160859
       2        0.000000309789    -0.000050427912     0.000020572791
       3       -0.000209062387     0.000495055097    -0.000589248657
       4        0.000276253479    -0.000397009411     0.000553575832
       5       -0.000008983143    -0.000006826097     0.000014407771
       6        0.000000476261    -0.000001069047    -0.000010665415
       7        0.000137828295    -0.000664071565     0.001041284028
       8       -0.000008624216    -0.000015568223     0.000005426424
       9        0.000004225225    -0.000013115888    -0.000013383145
      10       -0.000196300615     0.000644433008    -0.001020808769

  **** Optimization is complete! (in 7 steps) ****
    Final optimized geometry and variables:
    Molecular point group: c1

    Geometry (in Angstrom), charge = 0, multiplicity = 1:

    H            2.222384996925    -0.634973539978    -0.199694942941
    O            1.422220435061    -0.505377534205     0.274086010609
    C            0.700983965930     0.559386759911    -0.277038756842
    C           -0.699579204318     0.556544040555     0.282320502705
    H            0.644828204289     0.478177243899    -1.358210611801
    H            1.170360811465     1.509078094841    -0.029032855911
    O           -1.416565707905    -0.514535561360    -0.263081894799
    H           -1.168943001670     1.504083157731     0.027512830270
    H           -0.648885933450     0.481866887272     1.364751124533
    H           -2.326215956923    -0.438667748451    -0.042857690701

  Mulliken Charges: (a.u.)
   Center  Symbol    Alpha    Beta     Spin     Total
       1     H     0.39470  0.39470  0.00000  0.21059
       2     O     4.19528  4.19528  0.00000 -0.39056
       3     C     2.96145  2.96145  0.00000  0.07710
       4     C     2.96078  2.96078  0.00000  0.07844
       5     H     0.47105  0.47105  0.00000  0.05790
       6     H     0.47775  0.47775  0.00000  0.04451
       7     O     4.19391  4.19391  0.00000 -0.38782
       8     H     0.47833  0.47833  0.00000  0.04334
       9     H     0.47086  0.47086  0.00000  0.05828
      10     H     0.39590  0.39590  0.00000  0.20821

   Total alpha = 17.00000, Total beta = 17.00000, Total charge =  0.00000
