  ==> Input File <==

--------------------------------------------------------------------------
set {
	reference rhf
	basis 6-31G*
}

set_num_threads( 4 )
memory 2 gb

molecule MOL {
0 1

H	 -1.836216	 1.387520	 -0.000064
C	 -1.301823	 0.443321	 -0.000031
O	 -0.003969	 0.658512	 0.000451
O	 -1.829879	 -0.616434	 -0.000857
C	 0.850537	 -0.484732	 0.000380
C	 1.298058	 -0.717104	 1.427282
H	 1.687520	 -0.294274	 -0.657270
H	 0.302273	 -1.330275	 -0.391740
H	 1.838342	 0.142930	 1.806052
H	 1.952888	 -1.581091	 1.471517
H	 0.446491	 -0.898101	 2.073007

	symmetry c1
}
set optking {
	frozen_dihedral = ("
		7 5 3 2
	")
}

ee = optimize('scf')
oeprop('DIPOLE', 'QUADRUPOLE', 'MULLIKEN_CHARGES')
f=open( 'psi4out.xyz', 'w' )
f.write( "11  " )
f.write( str(ee) + "\n" )
f.write( MOL.save_string_xyz() )
f.close()
--------------------------------------------------------------------------

    Molecular point group: c1
  Charge       = 0
  Multiplicity = 1
  Basis Set: 6-31G*
  Basis Set:
  @DF-RHF Final Energy:  -266.82653525194598
    Total Energy =                       -266.8265352519459270
    Molecular point group: c1
  Basis Set: 6-31G*
  Basis Set:
  Basis Set: 6-31G*
  Basis Set:
  @DF-RHF Final Energy:  -266.82677980807819
    Total Energy =                       -266.8267798080780722
  Basis Set: 6-31G*
  Basis Set:
  Basis Set: 6-31G*
  Basis Set:
  @DF-RHF Final Energy:  -266.81967954209074
    Total Energy =                       -266.8196795420907392
  Basis Set: 6-31G*
  Basis Set:
  Basis Set: 6-31G*
  Basis Set:
  @DF-RHF Final Energy:  -266.82747634688167
    Total Energy =                       -266.8274763468818378
  Basis Set: 6-31G*
  Basis Set:
  Basis Set: 6-31G*
  Basis Set:
  @DF-RHF Final Energy:  -266.82767989932893
    Total Energy =                       -266.8276798993289276
  Basis Set: 6-31G*
  Basis Set:
  Basis Set: 6-31G*
  Basis Set:
  @DF-RHF Final Energy:  -266.82769055198929
    Total Energy =                       -266.8276905519891216
  Basis Set: 6-31G*
  Basis Set:
  Charge       = 0
  Multiplicity = 1
  Basis Set: 6-31G*
  Basis Set:

    Orbital Energies (a.u.)
    -----------------------

    Doubly Occupied:

       1A    -20.612341     2A    -20.556643     3A    -11.379651
       4A    -11.290868     5A    -11.225099     6A     -1.474646
       7A     -1.374210     8A     -1.049811     9A     -0.910269
      10A     -0.798272    11A     -0.745972    12A     -0.683619
      13A     -0.655677    14A     -0.620926    15A     -0.573528
      16A     -0.542842    17A     -0.538390    18A     -0.501190
      19A     -0.456814    20A     -0.454270

  @DF-RHF Final Energy:  -266.82769116868099

   => Energetics <=

    Nuclear Repulsion Energy =            180.9982989418726618
    One-Electron Energy =                -722.7619040893116562
    Two-Electron Energy =                 274.9359139787579238
    DFT Exchange-Correlation Energy =       0.0000000000000000
    Empirical Dispersion Energy =           0.0000000000000000
    PCM Polarization Energy =               0.0000000000000000
    EFP Energy =                            0.0000000000000000
    Total Energy =                       -266.8276911686810422
    Molecular point group: c1
  Basis Set: 6-31G*
  Basis Set:

  -Total Gradient:
     Atom            X                  Y                   Z
    ------   -----------------  -----------------  -----------------
       1       -0.000041859250     0.000008089039     0.000010381648
       2       -0.000007386887     0.000001428672    -0.001295661419
       3       -0.000190123097    -0.000093999060     0.001616323372
       4        0.000045590985     0.000015421994     0.000007576997
       5        0.000848695079     0.000683325167     0.000725041147
       6        0.000029370738    -0.000009707483    -0.000010020148
       7       -0.000695629608    -0.000594576209    -0.001051567139
       8       -0.000002544276    -0.000001354890    -0.000007414176
       9        0.000000560545    -0.000001820577     0.000005148067
      10        0.000011888374    -0.000010597555     0.000019332482
      11        0.000001437397     0.000003790899    -0.000019140829

  **** Optimization is complete! (in 7 steps) ****
    Final optimized geometry and variables:
    Molecular point group: c1

    Geometry (in Angstrom), charge = 0, multiplicity = 1:

    H           -1.613835985172     1.565853234643    -0.377753907796
    C           -1.108814077440     0.607571976095    -0.319018192515
    O            0.194722271448     0.792133563001    -0.309386332619
    O           -1.673236947693    -0.432203050281    -0.269930426642
    C            1.054175129325    -0.349004624812    -0.268073427345
    C            1.540479709826    -0.593157594091     1.146983814130
    H            1.869859665748    -0.112488311224    -0.936122367371
    H            0.525013051256    -1.204972715361    -0.655672620091
    H            2.041507756761     0.284953911099     1.538294341961
    H            2.240568868680    -1.422571426546     1.159606857384
    H            0.710336085450    -0.839224424273     1.799284626699

  Mulliken Charges: (a.u.)
   Center  Symbol    Alpha    Beta     Spin     Total
       1     H     0.41136  0.41136  0.00000  0.17729
       2     C     2.72664  2.72664  0.00000  0.54672
       3     O     4.29208  4.29208  0.00000 -0.58415
       4     O     4.26421  4.26421  0.00000 -0.52843
       5     C     3.01429  3.01429  0.00000 -0.02859
       6     C     3.25026  3.25026  0.00000 -0.50052
       7     H     0.40883  0.40883  0.00000  0.18234
       8     H     0.39717  0.39717  0.00000  0.20567
       9     H     0.41139  0.41139  0.00000  0.17721
      10     H     0.41612  0.41612  0.00000  0.16777
      11     H     0.40766  0.40766  0.00000  0.18469

   Total alpha = 20.00000, Total beta = 20.00000, Total charge = -0.00000
