  ==> Input File <==

--------------------------------------------------------------------------
set {
	reference rhf
	basis 6-31G*
}

set_num_threads( 1 )
memory 2 gb

molecule MOL {
0 1

H	 -1.989531	 0.519185	 -1.002011
N	 -1.852125	 0.165761	 -0.074816
C	 -0.563778	 -0.502042	 0.037919
H	 -2.598769	 -0.478953	 0.103015
C	 0.575259	 0.508231	 -0.048326
H	 -0.482092	 -1.204004	 -0.786564
H	 -0.460411	 -1.085169	 0.956626
C	 1.954651	 -0.143624	 0.035137
H	 0.475158	 1.060484	 -0.977307
H	 0.469181	 1.234488	 0.755973
H	 2.103292	 -0.853109	 -0.774172
H	 2.742821	 0.599562	 -0.030094
H	 2.083613	 -0.679371	 0.971560

	symmetry c1
}
set optking {
	frozen_dihedral = ("
		6 3 5 9
	")
}

ee = energy('scf')
oeprop('DIPOLE', 'QUADRUPOLE', 'MULLIKEN_CHARGES')
f=open( 'psi4out.xyz', 'w' )
f.write( "13  " )
f.write( str(ee) + "\n" )
f.write( MOL.save_string_xyz() )
f.close()
--------------------------------------------------------------------------

    Molecular point group: c1

    Geometry (in Angstrom), charge = 0, multiplicity = 1:

       Center              X                  Y                   Z               Mass
    ------------   -----------------  -----------------  -----------------  -----------------
           H         -1.989865137294     0.522941055960    -0.975941869174     1.007825032070
           N         -1.852459137294     0.169517055960    -0.048746869174    14.003074004780
           C         -0.564112137294    -0.498285944040     0.063988130826    12.000000000000
           H         -2.599103137294    -0.475196944040     0.129084130826     1.007825032070
           C          0.574924862706     0.511987055960    -0.022256869174    12.000000000000
           H         -0.482426137294    -1.200247944040    -0.760494869174     1.007825032070
           H         -0.460745137294    -1.081412944040     0.982695130826     1.007825032070
           C          1.954316862706    -0.139867944040     0.061206130826    12.000000000000
           H          0.474823862706     1.064240055960    -0.951237869174     1.007825032070
           H          0.468846862706     1.238244055960     0.782042130826     1.007825032070
           H          2.102957862706    -0.849352944040    -0.748102869174     1.007825032070
           H          2.742486862706     0.603318055960    -0.004024869174     1.007825032070
           H          2.083278862706    -0.675614944040     0.997629130826     1.007825032070

  Charge       = 0
  Multiplicity = 1
  Basis Set: 6-31G*
  Basis Set:

    Orbital Energies (a.u.)
    -----------------------

    Doubly Occupied:

       1A    -15.531395     2A    -11.240619     3A    -11.211371
       4A    -11.208898     5A     -1.176725     6A     -1.034772
       7A     -0.898336     8A     -0.798920     9A     -0.663510
      10A     -0.623639    11A     -0.604542    12A     -0.568332
      13A     -0.533024    14A     -0.491579    15A     -0.478585
      16A     -0.467599    17A     -0.377308

  @DF-RHF Final Energy:  -173.28006969486663

   => Energetics <=

    Nuclear Repulsion Energy =            131.7684633675701491
    One-Electron Energy =                -494.2787486145927573
    Two-Electron Energy =                 189.2302155521558404
    DFT Exchange-Correlation Energy =       0.0000000000000000
    Empirical Dispersion Energy =           0.0000000000000000
    PCM Polarization Energy =               0.0000000000000000
    EFP Energy =                            0.0000000000000000
    Total Energy =                       -173.2800696948667394

  Mulliken Charges: (a.u.)
   Center  Symbol    Alpha    Beta     Spin     Total
       1     H     0.33403  0.33403  0.00000  0.33194
       2     N     3.92206  3.92206  0.00000 -0.84412
       3     C     3.06178  3.06178  0.00000 -0.12355
       4     H     0.33287  0.33287  0.00000  0.33427
       5     C     3.14843  3.14843  0.00000 -0.29685
       6     H     0.43458  0.43458  0.00000  0.13083
       7     H     0.42054  0.42054  0.00000  0.15892
       8     C     3.24420  3.24420  0.00000 -0.48841
       9     H     0.42608  0.42608  0.00000  0.14784
      10     H     0.41392  0.41392  0.00000  0.17216
      11     H     0.42249  0.42249  0.00000  0.15502
      12     H     0.41764  0.41764  0.00000  0.16472
      13     H     0.42138  0.42138  0.00000  0.15723

   Total alpha = 17.00000, Total beta = 17.00000, Total charge =  0.00000
