  ==> Input File <==

--------------------------------------------------------------------------
set {
	reference rhf
	basis cc-pvtz
}

set_num_threads( 4 )
memory 2 gb

molecule MOL {
0 1

H	 1.043763	 0.573516	 -0.345546
C	 0.788096	 -0.429819	 0.000000
N	 -0.537714	 -0.645117	 0.000000
O	 1.623368	 -1.211168	 0.329441
C	 -1.522613	 0.412524	 0.000000
H	 -0.845894	 -1.585866	 0.000000
H	 -2.150256	 0.356137	 -0.880771
H	 -1.005621	 1.357208	 0.000000
H	 -2.150256	 0.356137	 0.880771

	symmetry c1
}
set optking {
	frozen_dihedral = ("
		1 2 3 6
	")
}

ee = optimize('scf')
oeprop('DIPOLE', 'QUADRUPOLE', 'MULLIKEN_CHARGES')
f=open( 'psi4out.xyz', 'w' )
f.write( "9  " )
f.write( str(ee) + "\n" )
f.write( MOL.save_string_xyz() )
f.close()
--------------------------------------------------------------------------

    Molecular point group: c1
  Charge       = 0
  Multiplicity = 1
  Basis Set: CC-PVTZ
  Basis Set:
  @DF-RHF Final Energy:  -208.03765094161508
    Total Energy =                       -208.0376509416150839
    Molecular point group: c1
  Basis Set: CC-PVTZ
  Basis Set:
  Basis Set: CC-PVTZ
  Basis Set:
  @DF-RHF Final Energy:  -208.03713578103270
    Total Energy =                       -208.0371357810327595
  Basis Set: CC-PVTZ
  Basis Set:
  Basis Set: CC-PVTZ
  Basis Set:
  @DF-RHF Final Energy:  -208.03980187151052
    Total Energy =                       -208.0398018715104627
  Basis Set: CC-PVTZ
  Basis Set:
  Basis Set: CC-PVTZ
  Basis Set:
  @DF-RHF Final Energy:  -208.04031252497026
    Total Energy =                       -208.0403125249703749
  Basis Set: CC-PVTZ
  Basis Set:
  @DF-RHF Final Energy:  -208.04040297818187
    Total Energy =                       -208.0404029781819872
  @DF-RHF Final Energy:  -208.04046132888826
    Total Energy =                       -208.0404613288881137
  Basis Set: CC-PVTZ
  Basis Set:
  @DF-RHF Final Energy:  -208.04053202422881
    Total Energy =                       -208.0405320242288383
  Basis Set: CC-PVTZ
  Basis Set:
  Basis Set: CC-PVTZ
  Basis Set:
  @DF-RHF Final Energy:  -208.04055364691041
    Total Energy =                       -208.0405536469104391
  Basis Set: CC-PVTZ
  Basis Set:
  Basis Set: CC-PVTZ
  Basis Set:
  @DF-RHF Final Energy:  -208.04055757028891
    Total Energy =                       -208.0405575702889678
  Basis Set: CC-PVTZ
  Basis Set:
  Charge       = 0
  Multiplicity = 1
  Basis Set: CC-PVTZ
  Basis Set:

    Orbital Energies (a.u.)
    -----------------------

    Doubly Occupied:

       1A    -20.520594     2A    -15.583393     3A    -11.339583
       4A    -11.273057     5A     -1.397251     6A     -1.242722
       7A     -0.964401     8A     -0.846315     9A     -0.693804
      10A     -0.679350    11A     -0.636635    12A     -0.595428
      13A     -0.569861    14A     -0.548717    15A     -0.431616
      16A     -0.397768

  @DF-RHF Final Energy:  -208.04055760514967

   => Energetics <=

    Nuclear Repulsion Energy =            120.6894073221099575
    One-Electron Energy =                -522.0189412273799690
    Two-Electron Energy =                 193.2889763001203107
    DFT Exchange-Correlation Energy =       0.0000000000000000
    Empirical Dispersion Energy =           0.0000000000000000
    PCM Polarization Energy =               0.0000000000000000
    EFP Energy =                            0.0000000000000000
    Total Energy =                       -208.0405576051497007
    Molecular point group: c1
  Basis Set: CC-PVTZ
  Basis Set:

  -Total Gradient:
     Atom            X                  Y                   Z
    ------   -----------------  -----------------  -----------------
       1       -0.000805209308    -0.001094549752    -0.004784483907
       2        0.000697875696     0.001648662969     0.004679059155
       3        0.001243663562    -0.001223235334     0.005472348423
       4       -0.000014180201    -0.000000883246    -0.000002098995
       5        0.000022060330    -0.000027026345    -0.000015851624
       6       -0.001147139467     0.000681303374    -0.005357529447
       7        0.000003701631     0.000000208178     0.000004781560
       8       -0.000004517816     0.000017217725     0.000002149720
       9        0.000003745574    -0.000001697570     0.000001625116

  **** Optimization is complete! (in 10 steps) ****
    Final optimized geometry and variables:
    Molecular point group: c1

    Geometry (in Angstrom), charge = 0, multiplicity = 1:

    H            0.959115625108     1.074327363464    -0.347261531696
    C            0.711581960677     0.047205902059    -0.070315046022
    N           -0.602089557598    -0.131711670861     0.189823681203
    O            1.534159781973    -0.809059254452    -0.036721661602
    C           -1.592221321350     0.890578948506    -0.056834472650
    H           -0.906621242854    -1.076645103051     0.135517771411
    H           -2.039060229841     0.810129272710    -1.042309281273
    H           -1.132573868482     1.865185665040     0.029517229093
    H           -2.377824130341     0.831364821343     0.683806050516

  Mulliken Charges: (a.u.)
   Center  Symbol    Alpha    Beta     Spin     Total
       1     H     0.47183  0.47183  0.00000  0.05634
       2     C     2.87818  2.87818  0.00000  0.24363
       3     N     3.59884  3.59884  0.00000 -0.19768
       4     O     4.20391  4.20391  0.00000 -0.40783
       5     C     3.07554  3.07554  0.00000 -0.15108
       6     H     0.41309  0.41309  0.00000  0.17383
       7     H     0.45684  0.45684  0.00000  0.08632
       8     H     0.45369  0.45369  0.00000  0.09261
       9     H     0.44807  0.44807  0.00000  0.10385

   Total alpha = 16.00000, Total beta = 16.00000, Total charge =  0.00000
