  ==> Input File <==

--------------------------------------------------------------------------
set {
	reference rhf
	basis 6-31G*
}

set_num_threads( 4 )
memory 2 gb

molecule MOL {
0 1

H	 -1.940684	 -0.409065	 -2.124794
C	 -1.379813	 -0.266662	 -1.222269
C	 -1.949407	 0.381065	 -0.076173
C	 -0.113429	 -0.692101	 -1.129053
H	 -2.964555	 0.734080	 -0.119769
C	 -1.228210	 0.547759	 1.041660
H	 0.385719	 -1.185864	 -1.941121
N	 0.640212	 -0.532897	 -0.000111
H	 -1.620491	 1.027000	 1.917331
C	 0.149794	 0.084677	 1.142855
C	 2.010177	 -1.032049	 0.000042
O	 0.831213	 0.215217	 2.129178
H	 2.187698	 -1.635381	 -0.882279
H	 2.677579	 -0.189247	 -0.001871
H	 2.188882	 -1.632203	 0.884288

	symmetry c1
}
set optking {
	frozen_dihedral = ("
		10 8 11 13
	")
}

ee = optimize('scf')
oeprop('DIPOLE', 'QUADRUPOLE', 'MULLIKEN_CHARGES')
f=open( 'psi4out.xyz', 'w' )
f.write( "15  " )
f.write( str(ee) + "\n" )
f.write( MOL.save_string_xyz() )
f.close()
--------------------------------------------------------------------------

    Molecular point group: c1
  Charge       = 0
  Multiplicity = 1
  Basis Set: 6-31G*
  Basis Set:
  @DF-RHF Final Energy:  -360.59579305061862
    Total Energy =                       -360.5957930506187381
    Molecular point group: c1
  Basis Set: 6-31G*
  Basis Set:
  Basis Set: 6-31G*
  Basis Set:
  @DF-RHF Final Energy:  -360.59660698930878
    Total Energy =                       -360.5966069893086114
  Basis Set: 6-31G*
  Basis Set:
  Basis Set: 6-31G*
  Basis Set:
  @DF-RHF Final Energy:  -360.59670414626385
    Total Energy =                       -360.5967041462640168
  Basis Set: 6-31G*
  Basis Set:
  Basis Set: 6-31G*
  Basis Set:
  @DF-RHF Final Energy:  -360.59666839940570
    Total Energy =                       -360.5966683994056439
  Basis Set: 6-31G*
  Basis Set:
  Charge       = 0
  Multiplicity = 1
  Basis Set: 6-31G*
  Basis Set:

    Orbital Energies (a.u.)
    -----------------------

    Doubly Occupied:

       1A    -20.508902     2A    -15.622481     3A    -11.341488
       4A    -11.298123     5A    -11.266827     6A    -11.260395
       7A    -11.232779     8A    -11.228787     9A     -1.385231
      10A     -1.281061    11A     -1.114894    12A     -1.026371
      13A     -0.970298    14A     -0.872946    15A     -0.835769
      16A     -0.716065    17A     -0.697414    18A     -0.661408
      19A     -0.648744    20A     -0.622924    21A     -0.606520
      22A     -0.573412    23A     -0.548488    24A     -0.547144
      25A     -0.527989    26A     -0.477996    27A     -0.413907
      28A     -0.405871    29A     -0.304443

  @DF-RHF Final Energy:  -360.59671288010827

   => Energetics <=

    Nuclear Repulsion Energy =            358.0043926061644015
    One-Electron Energy =               -1199.2048609186335852
    Two-Electron Energy =                 480.6037554323607424
    DFT Exchange-Correlation Energy =       0.0000000000000000
    Empirical Dispersion Energy =           0.0000000000000000
    PCM Polarization Energy =               0.0000000000000000
    EFP Energy =                            0.0000000000000000
    Total Energy =                       -360.5967128801084414
    Molecular point group: c1
  Basis Set: 6-31G*
  Basis Set:

  -Total Gradient:
     Atom            X                  Y                   Z
    ------   -----------------  -----------------  -----------------
       1       -0.000001860788     0.000004078209    -0.000005275269
       2        0.000238578921    -0.000069537924    -0.000029519727
       3       -0.000051310203     0.000083207409     0.000206069574
       4       -0.000286809239    -0.000046170430    -0.000215935135
       5        0.000008447314    -0.000002136915    -0.000008931855
       6       -0.000196355944     0.000054408383    -0.000090269688
       7        0.000026541228     0.000016820387     0.000019075727
       8        0.000257667947     0.000614933048     0.000120613950
       9        0.000017082466     0.000005099366     0.000019007216
      10        0.000063862908    -0.000657874204    -0.000067042119
      11        0.000107544793     0.000338628094    -0.000273682466
      12       -0.000037763859     0.000077949159     0.000065997252
      13       -0.000151381979    -0.000464813345     0.000266383892
      14        0.000002729282     0.000021812593     0.000010838695
      15        0.000003027148     0.000023596168    -0.000017330049

  **** Optimization is complete! (in 5 steps) ****
    Final optimized geometry and variables:
    Molecular point group: c1

    Geometry (in Angstrom), charge = 0, multiplicity = 1:

    H           -1.898752243511    -0.221532611450    -2.379080135215
    C           -1.330045567975    -0.085067702257    -1.480634038267
    C           -1.889941402414     0.556573815344    -0.327424616919
    C           -0.063398357377    -0.516697021350    -1.402143468941
    H           -2.905220757753     0.910053640158    -0.362759888710
    C           -1.161119131392     0.717792876917     0.787352383921
    H            0.424424695959    -1.007358427168    -2.221763781985
    N            0.694655125768    -0.365218617204    -0.276971514450
    H           -1.545879285817     1.193567029513     1.668399361426
    C            0.216575854070     0.255531397448     0.867154208573
    C            2.070879430543    -0.842410236026    -0.232937313903
    O            0.927061051932     0.382552112713     1.833529739404
    H            2.260462743707    -1.453248442850    -1.103964404182
    H            2.760835562123    -0.009434623289    -0.214345966510
    H            2.222830990004    -1.429641437001     0.659351397034

  Mulliken Charges: (a.u.)
   Center  Symbol    Alpha    Beta     Spin     Total
       1     H     0.39310  0.39310  0.00000  0.21379
       2     C     3.16243  3.16243  0.00000 -0.32486
       3     C     3.05822  3.05822  0.00000 -0.11644
       4     C     2.92164  2.92164  0.00000  0.15672
       5     H     0.39091  0.39091  0.00000  0.21818
       6     C     3.16970  3.16970  0.00000 -0.33939
       7     H     0.38739  0.38739  0.00000  0.22522
       8     N     3.86311  3.86311  0.00000 -0.72621
       9     H     0.38647  0.38647  0.00000  0.22705
      10     C     2.59709  2.59709  0.00000  0.80582
      11     C     3.13957  3.13957  0.00000 -0.27913
      12     O     4.32157  4.32157  0.00000 -0.64314
      13     H     0.41583  0.41583  0.00000  0.16833
      14     H     0.40052  0.40052  0.00000  0.19897
      15     H     0.39245  0.39245  0.00000  0.21509

   Total alpha = 29.00000, Total beta = 29.00000, Total charge = -0.00000
