                              Psi4 1.0.54 Driver

  ==> Input File <==

--------------------------------------------------------------------------
set {
	reference rhf
	basis cc-pvtz
}

set_num_threads( 4 )
memory 2 gb

molecule MOL {
0 1

H	 -0.929141	 -2.300151	 0.918696
N	 -0.167875	 -1.663851	 0.813014
C	 -0.561396	 -0.500007	 0.035200
H	 0.571270	 -2.161024	 0.361551
C	 0.575129	 0.507849	 -0.048832
H	 -1.409653	 -0.040171	 0.531415
H	 -0.889400	 -0.753894	 -0.973942
C	 1.951750	 -0.141983	 0.035101
H	 0.478254	 1.061643	 -0.975981
H	 0.467676	 1.231891	 0.755499
H	 2.101550	 -0.848142	 -0.774949
H	 2.738260	 0.600794	 -0.026526
H	 2.078939	 -0.679792	 0.968824

	symmetry c1
}
set optking {
	frozen_dihedral = ("
		6 3 5 9
	")
}

ee,wfn = optimize('scf', return_wfn=True)
oeprop( wfn, 'DIPOLE', 'QUADRUPOLE', 'MULLIKEN_CHARGES')
f=open( 'psi4out.xyz', 'w' )
f.write( "13  " )
f.write( str(ee) + "\n" )
f.write( MOL.save_string_xyz() )
f.close()
--------------------------------------------------------------------------

    Molecular point group: c1
  Charge       = 0
  Multiplicity = 1
  Basis Set: CC-PVTZ
  Basis Set:
  @DF-RHF Final Energy:  -173.34481026789558
    Total Energy =                       -173.3448102678956957
    Molecular point group: c1
  Basis Set: CC-PVTZ
  Basis Set:
  Basis Set: CC-PVTZ
  Basis Set:
  @DF-RHF Final Energy:  -173.33603315824334
    Total Energy =                       -173.3360331582433957
  Basis Set: CC-PVTZ
  Basis Set:
  Basis Set: CC-PVTZ
  Basis Set:
  @DF-RHF Final Energy:  -173.34656996081227
    Total Energy =                       -173.3465699608123316
  Basis Set: CC-PVTZ
  Basis Set:
  Basis Set: CC-PVTZ
  Basis Set:
  @DF-RHF Final Energy:  -173.34696467320910
    Total Energy =                       -173.3469646732090723
  Basis Set: CC-PVTZ
  Basis Set:
  Basis Set: CC-PVTZ
  Basis Set:
  @DF-RHF Final Energy:  -173.34699045880757
    Total Energy =                       -173.3469904588075110
  Basis Set: CC-PVTZ
  Basis Set:
  Basis Set: CC-PVTZ
  Basis Set:
  @DF-RHF Final Energy:  -173.34699508060635
    Total Energy =                       -173.3469950806063480
  Basis Set: CC-PVTZ
  Basis Set:
  Charge       = 0
  Multiplicity = 1
  Basis Set: CC-PVTZ
  Basis Set:

    Orbital Energies (a.u.)
    -----------------------

    Doubly Occupied:

       1A    -15.526050     2A    -11.239290     3A    -11.210771
       4A    -11.203175     5A     -1.177440     6A     -1.028900
       7A     -0.908330     8A     -0.785624     9A     -0.670347
      10A     -0.641934    11A     -0.579319    12A     -0.561861
      13A     -0.546804    14A     -0.485285    15A     -0.477393
      16A     -0.466483    17A     -0.382262

  @DF-RHF Final Energy:  -173.34699625641812

   => Energetics <=

    Nuclear Repulsion Energy =            134.2480677614164222
    One-Electron Energy =                -499.4075942285605265
    Two-Electron Energy =                 191.8125302107260666
    DFT Exchange-Correlation Energy =       0.0000000000000000
    Empirical Dispersion Energy =           0.0000000000000000
    PCM Polarization Energy =               0.0000000000000000
    EFP Energy =                            0.0000000000000000
    Total Energy =                       -173.3469962564180662
    Molecular point group: c1
  Basis Set: CC-PVTZ
  Basis Set:

  -Total Gradient:
     Atom            X                  Y                   Z
    ------   -----------------  -----------------  -----------------
       1        0.000027293109     0.000005603673    -0.000008811577
       2        0.000009163803    -0.000040105688    -0.000002096633
       3       -0.002694091455     0.001633527516    -0.007706833404
       4        0.000001987225    -0.000027068876     0.000025015586
       5       -0.003294240630     0.005416410790     0.005357274828
       6        0.002733328200    -0.002148319945     0.005708167050
       7        0.000008722504     0.000010692796    -0.000005345829
       8       -0.000015044217     0.000007420573     0.000001053115
       9        0.003191138219    -0.004835825458    -0.003347621238
      10       -0.000006182885    -0.000000666838     0.000002503657
      11        0.000011335815    -0.000017464879    -0.000032005838
      12        0.000026601240     0.000011451597    -0.000005984437
      13       -0.000000010927    -0.000015655260     0.000014684720

  **** Optimization is complete! (in 7 steps) ****
    Final optimized geometry and variables:
    Molecular point group: c1

    Geometry (in Angstrom), charge = 0, multiplicity = 1:

    H           -1.499484874971    -1.619076885553     1.016292699865
    N           -0.674703076294    -1.123921418112     0.752312552875
    C           -1.015342940231     0.033879307445    -0.066871415722
    H           -0.093913182923    -1.766831606230     0.257828360852
    C            0.180859378016     0.973718192127    -0.283615318525
    H           -1.771581324867     0.566496825964     0.496923890270
    H           -1.441550780712    -0.245342354951    -1.028948713629
    C            1.530866343192     0.268069005124    -0.416691978967
    H            0.019400626695     1.512247142663    -1.212225320343
    H            0.235684869807     1.695015159836     0.522755032897
    H            1.522975327363    -0.452737119243    -1.229803185072
    H            2.310685057245     0.988968829281    -0.633522507050
    H            1.800634680147    -0.251724663375     0.492471129323

  Mulliken Charges: (a.u.)
   Center  Symbol    Alpha    Beta     Spin     Total
       1     H     0.42915  0.42915  0.00000  0.14170
       2     N     3.69275  3.69275  0.00000 -0.38551
       3     C     3.03282  3.03282  0.00000 -0.06564
       4     H     0.42745  0.42745  0.00000  0.14510
       5     C     3.07315  3.07315  0.00000 -0.14630
       6     H     0.45566  0.45566  0.00000  0.08867
       7     H     0.46411  0.46411  0.00000  0.07178
       8     C     3.16177  3.16177  0.00000 -0.32355
       9     H     0.45711  0.45711  0.00000  0.08579
      10     H     0.45411  0.45411  0.00000  0.09178
      11     H     0.45816  0.45816  0.00000  0.08368
      12     H     0.44763  0.44763  0.00000  0.10474
      13     H     0.44612  0.44612  0.00000  0.10776

   Total alpha = 17.00000, Total beta = 17.00000, Total charge = -0.00000

*** Psi4 exiting successfully. Buy a developer a beer!
