  ==> Input File <==

--------------------------------------------------------------------------
set {
	reference rhf
	basis 6-31G*
}

set_num_threads( 1 )
memory 2 gb

molecule MOL {
0 1

O	 -2.042549	 -1.228399	 -0.269030
C	 -1.653912	 -0.146171	 0.050137
C	 -0.332303	 0.024011	 0.778412
C	 -2.438579	 1.106236	 -0.272369
C	 0.437602	 1.241104	 0.241938
H	 -0.497097	 0.132251	 1.846827
H	 0.251420	 -0.875180	 0.615179
C	 1.790942	 1.431204	 0.928496
H	 -0.160166	 2.141486	 0.372583
H	 0.581815	 1.115779	 -0.827005
C	 2.562643	 2.635559	 0.390709
H	 1.639984	 1.546843	 1.999601
H	 2.387626	 0.531441	 0.798255
H	 2.005510	 3.556485	 0.537508
H	 2.757064	 2.532887	 -0.672823
H	 3.518583	 2.743910	 0.893167
H	 -3.277823	 0.863061	 -0.908988
H	 -1.806773	 1.843019	 -0.759671
H	 -2.802853	 1.554979	 0.648059

	symmetry c1
}
set optking {
	frozen_dihedral = ("
		11 8 5 9,
		9 5 3 2
	")
}

ee = energy('scf')
oeprop('DIPOLE', 'QUADRUPOLE', 'MULLIKEN_CHARGES')
f=open( 'psi4out.xyz', 'w' )
f.write( "19  " )
f.write( str(ee) + "\n" )
f.write( MOL.save_string_xyz() )
f.close()
--------------------------------------------------------------------------

    Molecular point group: c1

    Geometry (in Angstrom), charge = 0, multiplicity = 1:

       Center              X                  Y                   Z               Mass
    ------------   -----------------  -----------------  -----------------  -----------------
           O         -1.806354606865    -1.964550596060    -0.525632127114    15.994914619560
           C         -1.417717606865    -0.882322596060    -0.206465127114    12.000000000000
           C         -0.096108606865    -0.712140596060     0.521809872886    12.000000000000
           C         -2.202384606865     0.370084403940    -0.528971127114    12.000000000000
           C          0.673796393135     0.504952403940    -0.014664127114    12.000000000000
           H         -0.260902606865    -0.603900596060     1.590224872886     1.007825032070
           H          0.487614393135    -1.611331596060     0.358576872886     1.007825032070
           C          2.027136393135     0.695052403940     0.671893872886    12.000000000000
           H          0.076028393135     1.405334403940     0.115980872886     1.007825032070
           H          0.818009393135     0.379627403940    -1.083607127114     1.007825032070
           C          2.798837393135     1.899407403940     0.134106872886    12.000000000000
           H          1.876178393135     0.810691403940     1.742998872886     1.007825032070
           H          2.623820393135    -0.204710596060     0.541652872886     1.007825032070
           H          2.241704393135     2.820333403940     0.280905872886     1.007825032070
           H          2.993258393135     1.796735403940    -0.929425127114     1.007825032070
           H          3.754777393135     2.007758403940     0.636564872886     1.007825032070
           H         -3.041628606865     0.126909403940    -1.165590127114     1.007825032070
           H         -1.570578606865     1.106867403940    -1.016273127114     1.007825032070
           H         -2.566658606865     0.818827403940     0.391456872886     1.007825032070

  Charge       = 0
  Multiplicity = 1
  Basis Set: 6-31G*
  Basis Set:

    Orbital Energies (a.u.)
    -----------------------

    Doubly Occupied:

       1A    -20.547548     2A    -11.324504     3A    -11.231721
       4A    -11.230208     5A    -11.226856     6A    -11.226587
       7A    -11.217071     8A     -1.392835     9A     -1.096559
      10A     -1.030413    11A     -0.980730    12A     -0.893868
      13A     -0.810540    14A     -0.733247    15A     -0.663967
      16A     -0.649723    17A     -0.627379    18A     -0.613337
      19A     -0.582384    20A     -0.577443    21A     -0.550692
      22A     -0.535480    23A     -0.516527    24A     -0.494023
      25A     -0.486452    26A     -0.477620    27A     -0.472135
      28A     -0.396910

  @DF-RHF Final Energy:  -309.06063623496931

   => Energetics <=

    Nuclear Repulsion Energy =            302.7723454489330948
    One-Electron Energy =               -1018.4922521437835030
    Two-Electron Energy =                 406.6592704598813839
    DFT Exchange-Correlation Energy =       0.0000000000000000
    Empirical Dispersion Energy =           0.0000000000000000
    PCM Polarization Energy =               0.0000000000000000
    EFP Energy =                            0.0000000000000000
    Total Energy =                       -309.0606362349689675

  Mulliken Charges: (a.u.)
   Center  Symbol    Alpha    Beta     Spin     Total
       1     O     4.26228  4.26228  0.00000 -0.52457
       2     C     2.73112  2.73112  0.00000  0.53777
       3     C     3.20348  3.20348  0.00000 -0.40696
       4     C     3.29457  3.29457  0.00000 -0.58913
       5     C     3.17023  3.17023  0.00000 -0.34045
       6     H     0.40663  0.40663  0.00000  0.18675
       7     H     0.39892  0.39892  0.00000  0.20215
       8     C     3.15070  3.15070  0.00000 -0.30140
       9     H     0.41857  0.41857  0.00000  0.16285
      10     H     0.41606  0.41606  0.00000  0.16789
      11     C     3.24009  3.24009  0.00000 -0.48018
      12     H     0.42133  0.42133  0.00000  0.15734
      13     H     0.41922  0.41922  0.00000  0.16156
      14     H     0.42137  0.42137  0.00000  0.15726
      15     H     0.42010  0.42010  0.00000  0.15981
      16     H     0.41682  0.41682  0.00000  0.16636
      17     H     0.39594  0.39594  0.00000  0.20812
      18     H     0.40492  0.40492  0.00000  0.19016
      19     H     0.40765  0.40765  0.00000  0.18469

   Total alpha = 28.00000, Total beta = 28.00000, Total charge =  0.00000
