                              Psi4 1.0.54 Driver

  ==> Input File <==

--------------------------------------------------------------------------
set {
	reference rhf
	basis cc-pvtz
}

set_num_threads( 4 )
memory 2 gb

molecule MOL {
0 1

H	 -4.230259	 0.539112	 0.036360
O	 -3.515113	 -0.019339	 -0.206321
C	 -2.302264	 0.528872	 0.237390
C	 -1.175688	 -0.398187	 -0.171891
H	 -2.148018	 1.514076	 -0.197759
H	 -2.310727	 0.646384	 1.319032
C	 0.196029	 0.106276	 0.266738
H	 -1.201873	 -0.515469	 -1.250677
H	 -1.365975	 -1.378728	 0.252664
C	 1.330220	 -0.826136	 -0.155230
H	 0.359542	 1.097229	 -0.145561
H	 0.212134	 0.218135	 1.348778
C	 2.719700	 -0.407669	 0.328325
H	 1.339388	 -0.911200	 -1.239363
H	 1.119001	 -1.821953	 0.224128
C	 3.848455	 -0.672882	 -0.665119
H	 2.935948	 -0.939683	 1.249686
H	 2.706762	 0.648337	 0.585456
H	 3.881448	 -1.720727	 -0.946177
H	 3.736517	 -0.090916	 -1.572022
H	 4.809065	 -0.417839	 -0.232274

	symmetry c1
}
set optking {
	frozen_dihedral = ("
		16 13 10 14
	")
}

ee,wfn = optimize('scf', return_wfn=True)
oeprop( wfn, 'DIPOLE', 'QUADRUPOLE', 'MULLIKEN_CHARGES')
f=open( 'psi4out.xyz', 'w' )
f.write( "21  " )
f.write( str(ee) + "\n" )
f.write( MOL.save_string_xyz() )
f.close()
--------------------------------------------------------------------------

    Molecular point group: c1
  Charge       = 0
  Multiplicity = 1
  Basis Set: CC-PVTZ
  Basis Set:
  @DF-RHF Final Energy:  -310.33054302267504
    Total Energy =                       -310.3305430226752151
    Molecular point group: c1
  Basis Set: CC-PVTZ
  Basis Set:
  Basis Set: CC-PVTZ
  Basis Set:
  @DF-RHF Final Energy:  -310.33098613282544
    Total Energy =                       -310.3309861328252168
  Basis Set: CC-PVTZ
  Basis Set:
  Basis Set: CC-PVTZ
  Basis Set:
  @DF-RHF Final Energy:  -310.33102936238168
    Total Energy =                       -310.3310293623813436
  Basis Set: CC-PVTZ
  Basis Set:
  Basis Set: CC-PVTZ
  Basis Set:
  @DF-RHF Final Energy:  -310.33103077827224
    Total Energy =                       -310.3310307782720088
  Basis Set: CC-PVTZ
  Basis Set:
  Basis Set: CC-PVTZ
  Basis Set:
  @DF-RHF Final Energy:  -310.33103201798480
    Total Energy =                       -310.3310320179850805
  Basis Set: CC-PVTZ
  Basis Set:
  Charge       = 0
  Multiplicity = 1
  Basis Set: CC-PVTZ
  Basis Set:

    Orbital Energies (a.u.)
    -----------------------

    Doubly Occupied:

       1A    -20.545471     2A    -11.265119     3A    -11.214196
       4A    -11.212515     5A    -11.210701     6A    -11.208977
       7A    -11.206345     8A     -1.363335     9A     -1.086555
      10A     -1.035227    11A     -0.957902    12A     -0.868215
      13A     -0.803240    14A     -0.791135    15A     -0.696101
      16A     -0.663710    17A     -0.629293    18A     -0.599411
      19A     -0.585159    20A     -0.565031    21A     -0.546804
      22A     -0.522076    23A     -0.508631    24A     -0.486392
      25A     -0.477895    26A     -0.462888    27A     -0.456371
      28A     -0.443990    29A     -0.437451

  @DF-RHF Final Energy:  -310.33103208985074

   => Energetics <=

    Nuclear Repulsion Energy =            309.5121734787060177
    One-Electron Energy =               -1033.9861484549517172
    Two-Electron Energy =                 414.1429428863947351
    DFT Exchange-Correlation Energy =       0.0000000000000000
    Empirical Dispersion Energy =           0.0000000000000000
    PCM Polarization Energy =               0.0000000000000000
    EFP Energy =                            0.0000000000000000
    Total Energy =                       -310.3310320898509644
    Molecular point group: c1
  Basis Set: CC-PVTZ
  Basis Set:

  -Total Gradient:
     Atom            X                  Y                   Z
    ------   -----------------  -----------------  -----------------
       1       -0.000000584169     0.000000143603    -0.000000021769
       2       -0.000000994177    -0.000001676807    -0.000000885304
       3        0.000005743873     0.000002170519    -0.000001468489
       4        0.000001668894     0.000002928272    -0.000003683690
       5       -0.000000381228    -0.000000500147     0.000000862287
       6        0.000000424875    -0.000000122347    -0.000001039368
       7       -0.000002073417    -0.000002616082     0.000001944840
       8       -0.000001780075    -0.000000793082    -0.000000031510
       9        0.000001622755     0.000001598032     0.000000319753
      10       -0.001516489029     0.005971139174    -0.001045145204
      11        0.000000403032    -0.000002726281     0.000002392745
      12        0.000001274807    -0.000004014544     0.000000592425
      13        0.000826577231    -0.004723498529     0.001870872439
      14        0.001089754116    -0.003961608804     0.000436935340
      15       -0.000002758619     0.000000303205     0.000005171170
      16       -0.000397537797     0.002714813172    -0.001274766031
      17        0.000000801378    -0.000000751149    -0.000000417210
      18        0.000006577499     0.000001921769    -0.000004229954
      19       -0.000004050149     0.000009529673     0.000004039748
      20        0.000005228689    -0.000000983802     0.000010639381
      21       -0.000013428490    -0.000005255846    -0.000002081599

  **** Optimization is complete! (in 6 steps) ****
    Final optimized geometry and variables:
    Molecular point group: c1

    Geometry (in Angstrom), charge = 0, multiplicity = 1:

    H           -4.307290193235     0.819803070162     0.062122203078
    O           -3.599053105965     0.250460273622    -0.175295965632
    C           -2.381093150254     0.780357832488     0.276424999223
    C           -1.265855395302    -0.163773173688    -0.124830073350
    H           -2.208930152152     1.762878920805    -0.158031201204
    H           -2.395025903689     0.898496778715     1.357926585282
    C            0.109588602549     0.320114197777     0.322285704162
    H           -1.286438032523    -0.281740043841    -1.203641848129
    H           -1.473324140626    -1.140933927430     0.299423738233
    C            1.239451791494    -0.617907354588    -0.088938974783
    H            0.300337390716     1.307715829047    -0.091089586848
    H            0.120469530591     0.436405553063     1.403814311111
    C            2.625542244394    -0.179002891843     0.408613411539
    H            1.256924234246    -0.732598011894    -1.169137819635
    H            1.025227773965    -1.613527558321     0.291321871019
    C            3.748067825409    -0.477066946158    -0.580446335030
    H            2.839511345905    -0.647767961598     1.363412783840
    H            2.615652624160     0.890994927361     0.597073255804
    H            3.803054437007    -1.536668714104    -0.809308574251
    H            3.589240753305     0.052604805832    -1.513500678972
    H            4.711490385604    -0.174734599111    -0.185760015680

  Mulliken Charges: (a.u.)
   Center  Symbol    Alpha    Beta     Spin     Total
       1     H     0.39759  0.39759  0.00000  0.20482
       2     O     4.19431  4.19431  0.00000 -0.38862
       3     C     2.96330  2.96330  0.00000  0.07339
       4     C     3.08532  3.08532  0.00000 -0.17063
       5     H     0.47486  0.47486  0.00000  0.05028
       6     H     0.47499  0.47499  0.00000  0.05003
       7     C     3.10032  3.10032  0.00000 -0.20063
       8     H     0.45072  0.45072  0.00000  0.09856
       9     H     0.45088  0.45088  0.00000  0.09823
      10     C     3.09028  3.09028  0.00000 -0.18056
      11     H     0.45527  0.45527  0.00000  0.08946
      12     H     0.45425  0.45425  0.00000  0.09149
      13     C     3.08553  3.08553  0.00000 -0.17106
      14     H     0.45346  0.45346  0.00000  0.09308
      15     H     0.45284  0.45284  0.00000  0.09433
      16     C     3.14840  3.14840  0.00000 -0.29681
      17     H     0.45175  0.45175  0.00000  0.09650
      18     H     0.45651  0.45651  0.00000  0.08697
      19     H     0.45447  0.45447  0.00000  0.09106
      20     H     0.45534  0.45534  0.00000  0.08931
      21     H     0.44961  0.44961  0.00000  0.10079

   Total alpha = 29.00000, Total beta = 29.00000, Total charge = -0.00000

*** Psi4 exiting successfully. Buy a developer a beer!
