  ==> Input File <==

--------------------------------------------------------------------------
set {
	reference rhf
	basis 6-31G*
}

set_num_threads( 4 )
memory 2 gb

molecule MOL {
0 1

H	 2.652209	 0.763231	 0.000000
O	 2.263154	 -0.100023	 0.000000
C	 0.912879	 -0.015685	 0.000000
C	 0.341129	 1.089662	 -0.616353
C	 0.107981	 -0.979817	 0.584528
H	 0.983162	 1.825617	 -1.063538
C	 -1.033754	 1.220211	 -0.642096
H	 0.552247	 -1.836980	 1.062460
C	 -1.271413	 -0.836003	 0.551305
H	 -1.471687	 2.078052	 -1.120645
C	 -1.851327	 0.260419	 -0.059611
H	 -1.889137	 -1.589024	 1.007449
H	 -2.920176	 0.368814	 -0.083603

	symmetry c1
}
set optking {
	frozen_dihedral = ("
		4 3 2 1
	")
}

ee = optimize('scf')
oeprop('DIPOLE', 'QUADRUPOLE', 'MULLIKEN_CHARGES')
f=open( 'psi4out.xyz', 'w' )
f.write( "13  " )
f.write( str(ee) + "\n" )
f.write( MOL.save_string_xyz() )
f.close()
--------------------------------------------------------------------------

    Molecular point group: c1
  Charge       = 0
  Multiplicity = 1
  Basis Set: 6-31G*
  Basis Set:
  @DF-RHF Final Energy:  -305.55458294133246
    Total Energy =                       -305.5545829413322849
    Molecular point group: c1
  Basis Set: 6-31G*
  Basis Set:
  Basis Set: 6-31G*
  Basis Set:
  @DF-RHF Final Energy:  -305.55634893257547
    Total Energy =                       -305.5563489325753039
  Basis Set: 6-31G*
  Basis Set:
  Basis Set: 6-31G*
  Basis Set:
  @DF-RHF Final Energy:  -305.55649368335150
    Total Energy =                       -305.5564936833513343
  Basis Set: 6-31G*
  Basis Set:
  Basis Set: 6-31G*
  Basis Set:
  @DF-RHF Final Energy:  -305.55651152315079
    Total Energy =                       -305.5565115231507889
  Basis Set: 6-31G*
  Basis Set:
  Basis Set: 6-31G*
  Basis Set:
  @DF-RHF Final Energy:  -305.55651482054054
    Total Energy =                       -305.5565148205405421
  Basis Set: 6-31G*
  Basis Set:
  Charge       = 0
  Multiplicity = 1
  Basis Set: 6-31G*
  Basis Set:

    Orbital Energies (a.u.)
    -----------------------

    Doubly Occupied:

       1A    -20.587226     2A    -11.295899     3A    -11.236500
       4A    -11.234610     5A    -11.228002     6A    -11.223064
       7A    -11.222562     8A     -1.404883     9A     -1.147327
      10A     -1.018422    11A     -1.003925    12A     -0.843840
      13A     -0.822211    14A     -0.735071    15A     -0.682962
      16A     -0.648784    17A     -0.613733    18A     -0.592679
      19A     -0.588296    20A     -0.548312    21A     -0.513780
      22A     -0.490437    23A     -0.476655    24A     -0.337714
      25A     -0.312341

  @DF-RHF Final Energy:  -305.55651519969587

   => Energetics <=

    Nuclear Repulsion Energy =            273.0245126504858604
    One-Electron Energy =                -955.5435845320957924
    Two-Electron Energy =                 376.9625566819142932
    DFT Exchange-Correlation Energy =       0.0000000000000000
    Empirical Dispersion Energy =           0.0000000000000000
    PCM Polarization Energy =               0.0000000000000000
    EFP Energy =                            0.0000000000000000
    Total Energy =                       -305.5565151996956956
    Molecular point group: c1
  Basis Set: 6-31G*
  Basis Set:

  -Total Gradient:
     Atom            X                  Y                   Z
    ------   -----------------  -----------------  -----------------
       1       -0.000022580490     0.000043945768     0.002254120187
       2        0.000062396291    -0.000522679862    -0.003619307182
       3        0.000105436913     0.001364621231     0.002870517854
       4       -0.000066364849    -0.000852838254    -0.001481772424
       5       -0.000071674092    -0.000018133575    -0.000021564594
       6       -0.000003582361    -0.000004891149     0.000000286531
       7       -0.000006927385    -0.000002962536    -0.000027349757
       8        0.000007849649     0.000008446792    -0.000003305475
       9        0.000002128130    -0.000009804191    -0.000009473328
      10       -0.000012773212     0.000000706231     0.000007549430
      11        0.000007610860    -0.000015577233     0.000026043454
      12       -0.000002294857     0.000001912557     0.000007179007
      13        0.000000775395     0.000007254222    -0.000002923703

  **** Optimization is complete! (in 6 steps) ****
    Final optimized geometry and variables:
    Molecular point group: c1

    Geometry (in Angstrom), charge = 0, multiplicity = 1:

    H            2.701007978164     0.578999923804     0.039715115789
    O            2.253375952648    -0.255300248362     0.053405689241
    C            0.908042563372    -0.075642819231     0.027193776345
    C            0.324442386919     1.015238489910    -0.597360174315
    C            0.114349924739    -1.054455586373     0.606462217698
    H            0.944095258897     1.762185882979    -1.063809900288
    C           -1.056505321574     1.134982215799    -0.621597427917
    H            0.587363196854    -1.895073942762     1.079060301246
    C           -1.262340082946    -0.929737960108     0.565778409824
    H           -1.503105462746     1.986886066301    -1.102756592978
    C           -1.857478265137     0.165750238383    -0.043414258381
    H           -1.873974838200    -1.690441299295     1.017410534917
    H           -2.927859396081     0.259493032554    -0.067820987231

  Mulliken Charges: (a.u.)
   Center  Symbol    Alpha    Beta     Spin     Total
       1     H     0.27231  0.27231  0.00000  0.45539
       2     O     4.38043  4.38043  0.00000 -0.76085
       3     C     2.80018  2.80018  0.00000  0.39964
       4     C     3.13859  3.13859  0.00000 -0.27719
       5     C     3.12184  3.12184  0.00000 -0.24369
       6     H     0.40271  0.40271  0.00000  0.19458
       7     C     3.09178  3.09178  0.00000 -0.18357
       8     H     0.39179  0.39179  0.00000  0.21641
       9     C     3.09231  3.09231  0.00000 -0.18462
      10     H     0.39833  0.39833  0.00000  0.20334
      11     C     3.11138  3.11138  0.00000 -0.22276
      12     H     0.39801  0.39801  0.00000  0.20398
      13     H     0.40033  0.40033  0.00000  0.19933

   Total alpha = 25.00000, Total beta = 25.00000, Total charge = -0.00000
