  ==> Input File <==

--------------------------------------------------------------------------
set {
	reference rhf
	basis 6-31G*
}

set_num_threads( 4 )
memory 2 gb

molecule MOL {
0 1

H	 -2.502533	 -0.734268	 -0.718982
O	 -2.347141	 -0.288243	 0.101568
C	 -1.183760	 0.488866	 0.003406
C	 0.062707	 -0.377382	 0.043431
H	 -1.180018	 1.093289	 -0.899377
H	 -1.183050	 1.161481	 0.849596
O	 1.171513	 0.459272	 -0.058250
H	 0.046881	 -1.094809	 -0.779386
H	 0.082728	 -0.946066	 0.971214
C	 2.397842	 -0.198080	 -0.002151
H	 2.508049	 -0.905315	 -0.822092
H	 3.173794	 0.550865	 -0.078850
H	 2.517602	 -0.735921	 0.936026

	symmetry c1
}
set optking {
	frozen_dihedral = ("
		4 7 10 13
	")
}

ee = optimize('scf')
oeprop('DIPOLE', 'QUADRUPOLE', 'MULLIKEN_CHARGES')
f=open( 'psi4out.xyz', 'w' )
f.write( "13  " )
f.write( str(ee) + "\n" )
f.write( MOL.save_string_xyz() )
f.close()
--------------------------------------------------------------------------

    Molecular point group: c1
  Charge       = 0
  Multiplicity = 1
  Basis Set: 6-31G*
  Basis Set:

    Orbital Energies (a.u.)
    -----------------------

    Doubly Occupied:

       1A    -20.562516     2A    -20.560192     3A    -11.270917
       4A    -11.270343     5A    -11.269017     6A     -1.388988
       7A     -1.365258     8A     -1.018613     9A     -0.913404
      10A     -0.841946    11A     -0.709600    12A     -0.674233
      13A     -0.660721    14A     -0.637360    15A     -0.595943
      16A     -0.569539    17A     -0.545436    18A     -0.489405
      19A     -0.481987    20A     -0.438502    21A     -0.422223

  @DF-RHF Final Energy:  -267.95064127069929

   => Energetics <=

    Nuclear Repulsion Energy =            190.2459918178828673
    One-Electron Energy =                -743.0209829971706768
    Two-Electron Energy =                 284.8243499085885446
    DFT Exchange-Correlation Energy =       0.0000000000000000
    Empirical Dispersion Energy =           0.0000000000000000
    PCM Polarization Energy =               0.0000000000000000
    EFP Energy =                            0.0000000000000000
    Total Energy =                       -267.9506412706992364
    Molecular point group: c1
  Basis Set: 6-31G*
  Basis Set:

  -Total Gradient:
     Atom            X                  Y                   Z
    ------   -----------------  -----------------  -----------------
       1        0.000022593599     0.000010848844    -0.000003770647
       2        0.000089300307     0.000024609668     0.000063819876
       3       -0.000000819843    -0.000018974507    -0.000126547899
       4        0.000134596688     0.000143251614     0.000148859889
       5       -0.000006904379     0.000052805387    -0.000018211191
       6       -0.000029737258    -0.000017478919     0.000015281309
       7       -0.000143619384    -0.000116612472    -0.000071288847
       8       -0.000001179091     0.000000617085     0.000001927922
       9       -0.000004080018    -0.000083433396     0.000015359014
      10       -0.000117916765     0.000056246506    -0.000040236884
      11        0.000086438440    -0.000007933437     0.000011301175
      12       -0.000014057668    -0.000021406643     0.000031739193
      13       -0.000014614620    -0.000022539729    -0.000028232908

  **** Optimization is complete! (in 1 steps) ****
    Final optimized geometry and variables:
    Molecular point group: c1

    Geometry (in Angstrom), charge = 0, multiplicity = 1:

    H           -2.502637574522    -0.735229101828    -0.727962761227
    O           -2.347245574522    -0.289204101828     0.092587238773
    C           -1.183864574522     0.487904898172    -0.005574761227
    C            0.062602425478    -0.378343101828     0.034450238773
    H           -1.180122574522     1.092327898172    -0.908357761227
    H           -1.183154574522     1.160519898172     0.840615238773
    O            1.171408425478     0.458310898172    -0.067230761227
    H            0.046776425478    -1.095770101828    -0.788366761227
    H            0.082623425478    -0.947027101828     0.962233238773
    C            2.397737425478    -0.199041101828    -0.011131761227
    H            2.507944425478    -0.906276101828    -0.831072761227
    H            3.173689425478     0.549903898172    -0.087830761227
    H            2.517497425478    -0.736882101828     0.927045238773

  Mulliken Charges: (a.u.)
   Center  Symbol    Alpha    Beta     Spin     Total
       1     H     0.28126  0.28126  0.00000  0.43748
       2     O     4.37085  4.37085  0.00000 -0.74171
       3     C     3.00466  3.00466  0.00000 -0.00932
       4     C     2.99660  2.99660  0.00000  0.00680
       5     H     0.42228  0.42228  0.00000  0.15545
       6     H     0.40842  0.40842  0.00000  0.18316
       7     O     4.30743  4.30743  0.00000 -0.61485
       8     H     0.43757  0.43757  0.00000  0.12485
       9     H     0.42327  0.42327  0.00000  0.15347
      10     C     3.08002  3.08002  0.00000 -0.16004
      11     H     0.42922  0.42922  0.00000  0.14157
      12     H     0.41070  0.41070  0.00000  0.17861
      13     H     0.42773  0.42773  0.00000  0.14454

   Total alpha = 21.00000, Total beta = 21.00000, Total charge = -0.00000
