                              Psi4 1.0.54 Driver

  ==> Input File <==

--------------------------------------------------------------------------
set {
	reference rhf
	basis cc-pvtz
}

set_num_threads( 4 )
memory 2 gb

molecule MOL {
0 1

H	 -2.677889	 -1.434451	 -0.492593
N	 -1.756550	 -1.331857	 -0.124249
C	 -1.426741	 0.067733	 0.072009
H	 -1.123206	 -1.743896	 -0.776243
C	 -0.025496	 0.210181	 0.620525
H	 -1.501652	 0.662272	 -0.837637
H	 -2.117626	 0.489288	 0.793826
O	 0.881195	 -0.248324	 -0.336237
H	 0.174963	 1.254564	 0.855586
H	 0.069351	 -0.369556	 1.535859
C	 2.208068	 -0.234417	 0.074171
H	 2.725499	 -1.027054	 -0.446768
H	 2.688377	 0.712084	 -0.164856
H	 2.295137	 -0.403407	 1.144883

	symmetry c1
}
set optking {
	frozen_dihedral = ("
		5 8 11 13
	")
}

ee,wfn = optimize('scf', return_wfn=True)
oeprop( wfn, 'DIPOLE', 'QUADRUPOLE', 'MULLIKEN_CHARGES')
f=open( 'psi4out.xyz', 'w' )
f.write( "14  " )
f.write( str(ee) + "\n" )
f.write( MOL.save_string_xyz() )
f.close()
--------------------------------------------------------------------------

    Molecular point group: c1
  Charge       = 0
  Multiplicity = 1
  Basis Set: CC-PVTZ
  Basis Set:
  @DF-RHF Final Energy:  -248.22436334479156
    Total Energy =                       -248.2243633447916977
    Molecular point group: c1
  Basis Set: CC-PVTZ
  Basis Set:
  Basis Set: CC-PVTZ
  Basis Set:
  @DF-RHF Final Energy:  -248.22445764989712
    Total Energy =                       -248.2244576498972037
  Basis Set: CC-PVTZ
  Basis Set:
  Basis Set: CC-PVTZ
  Basis Set:
  @DF-RHF Final Energy:  -248.22447629134095
    Total Energy =                       -248.2244762913408636
  Basis Set: CC-PVTZ
  Basis Set:
  Charge       = 0
  Multiplicity = 1
  Basis Set: CC-PVTZ
  Basis Set:

    Orbital Energies (a.u.)
    -----------------------

    Doubly Occupied:

       1A    -20.549233     2A    -15.523281     3A    -11.264224
       4A    -11.263364     5A    -11.239642     6A     -1.382328
       7A     -1.175757     8A     -1.000646     9A     -0.907779
      10A     -0.815500    11A     -0.684241    12A     -0.675150
      13A     -0.646654    14A     -0.611181    15A     -0.608281
      16A     -0.541272    17A     -0.532958    18A     -0.497696
      19A     -0.473939    20A     -0.417642    21A     -0.383652

  @DF-RHF Final Energy:  -248.22447654867310

   => Energetics <=

    Nuclear Repulsion Energy =            194.5563514588391456
    One-Electron Energy =                -723.1728199279768887
    Two-Electron Energy =                 280.3919919204645907
    DFT Exchange-Correlation Energy =       0.0000000000000000
    Empirical Dispersion Energy =           0.0000000000000000
    PCM Polarization Energy =               0.0000000000000000
    EFP Energy =                            0.0000000000000000
    Total Energy =                       -248.2244765486731808
    Molecular point group: c1
  Basis Set: CC-PVTZ
  Basis Set:

  -Total Gradient:
     Atom            X                  Y                   Z
    ------   -----------------  -----------------  -----------------
       1        0.000005970612     0.000001352184    -0.000001324130
       2        0.000003830037     0.000003469234    -0.000014911060
       3       -0.000030504273    -0.000002361879     0.000064736910
       4       -0.000001793978    -0.000001463039    -0.000006050834
       5       -0.000257259638    -0.002049235244     0.000779815835
       6        0.000025744769    -0.000017693551     0.000019371095
       7       -0.000036171917     0.000005226641     0.000001646033
       8        0.000619358017     0.002692815187    -0.001861885283
       9        0.000003310841    -0.000006724516     0.000004586135
      10       -0.000002339975    -0.000000278028    -0.000025027429
      11       -0.001073670832     0.000444784746     0.003558167557
      12        0.000013747252    -0.000003967932     0.000001881882
      13        0.000742295424    -0.001061923097    -0.002512414153
      14       -0.000012516336    -0.000004000706    -0.000008592556

  **** Optimization is complete! (in 4 steps) ****
    Final optimized geometry and variables:
    Molecular point group: c1

    Geometry (in Angstrom), charge = 0, multiplicity = 1:

    H           -2.659990018987    -1.117912486338    -0.554705647075
    N           -1.741947496630    -1.012385405386    -0.179085884749
    C           -1.417415400889     0.388267002492     0.018023666743
    H           -1.102322278240    -1.423337938785    -0.825543577495
    C           -0.019891499119     0.534990067153     0.575118680230
    H           -1.488304026130     0.981731730077    -0.892590276191
    H           -2.113845222601     0.808878681304     0.735179555054
    O            0.891934567261     0.069495935669    -0.374316046844
    H            0.174619422541     1.581230683972     0.807613576900
    H            0.069746972430    -0.041208107237     1.492358823442
    C            2.225927357962     0.080780455621     0.021860882640
    H            2.742266972517    -0.706021378156    -0.511903644011
    H            2.702306172914     1.024417310649    -0.231175967442
    H            2.333133140076    -0.099194802855     1.086978370582

  Mulliken Charges: (a.u.)
   Center  Symbol    Alpha    Beta     Spin     Total
       1     H     0.43030  0.43030  0.00000  0.13941
       2     N     3.69422  3.69422  0.00000 -0.38844
       3     C     3.02294  3.02294  0.00000 -0.04587
       4     H     0.42232  0.42232  0.00000  0.15537
       5     C     2.96901  2.96901  0.00000  0.06198
       6     H     0.46460  0.46460  0.00000  0.07079
       7     H     0.45868  0.45868  0.00000  0.08264
       8     O     4.18227  4.18227  0.00000 -0.36454
       9     H     0.47091  0.47091  0.00000  0.05817
      10     H     0.46718  0.46718  0.00000  0.06564
      11     C     3.02980  3.02980  0.00000 -0.05959
      12     H     0.45082  0.45082  0.00000  0.09836
      13     H     0.46481  0.46481  0.00000  0.07038
      14     H     0.47215  0.47215  0.00000  0.05570

   Total alpha = 21.00000, Total beta = 21.00000, Total charge = -0.00000

*** Psi4 exiting successfully. Buy a developer a beer!
