  ==> Input File <==

--------------------------------------------------------------------------
set {
	reference rhf
	basis cc-pvtz
}

set_num_threads( 4 )
memory 2 gb

molecule MOL {
0 1

H	 -3.470074	 -0.400431	 0.762012
O	 -3.106200	 -0.211208	 -0.084242
C	 -1.772961	 -0.078518	 -0.023690
C	 -1.071126	 -0.214303	 1.167707
C	 -1.103497	 0.202659	 -1.203071
H	 -1.597544	 -0.432474	 2.078593
C	 0.295747	 -0.068297	 1.173579
H	 -1.663680	 0.303385	 -2.110853
C	 0.265442	 0.345863	 -1.180148
H	 0.848746	 -0.170649	 2.086172
C	 0.981121	 0.213562	 0.000000
H	 0.785845	 0.564009	 -2.094539
C	 2.447402	 0.371303	 0.000000
O	 3.227427	 -0.521847	 0.000000
H	 2.796538	 1.409525	 0.000000

	symmetry c1
}
set optking {
	frozen_dihedral = ("
		7 11 13 14
	")
}

ee = optimize('scf')
oeprop('DIPOLE', 'QUADRUPOLE', 'MULLIKEN_CHARGES')
f=open( 'psi4out.xyz', 'w' )
f.write( "15  " )
f.write( str(ee) + "\n" )
f.write( MOL.save_string_xyz() )
f.close()
--------------------------------------------------------------------------

    Molecular point group: c1
  Charge       = 0
  Multiplicity = 1
  Basis Set: CC-PVTZ
  Basis Set:
  @DF-RHF Final Energy:  -418.42695345056728
    Total Energy =                       -418.4269534505674528
    Molecular point group: c1
  Basis Set: CC-PVTZ
  Basis Set:
  Basis Set: CC-PVTZ
  Basis Set:
  @DF-RHF Final Energy:  -418.42744437135553
    Total Energy =                       -418.4274443713552500
  Basis Set: CC-PVTZ
  Basis Set:
  Basis Set: CC-PVTZ
  Basis Set:
  @DF-RHF Final Energy:  -418.42665500088964
    Total Energy =                       -418.4266550008899230
  Basis Set: CC-PVTZ
  Basis Set:
  Basis Set: CC-PVTZ
  Basis Set:
  @DF-RHF Final Energy:  -418.42774838096852
    Total Energy =                       -418.4277483809687510
  Basis Set: CC-PVTZ
  Basis Set:
  Basis Set: CC-PVTZ
  Basis Set:
  @DF-RHF Final Energy:  -418.42775512196482
    Total Energy =                       -418.4277551219643101
  Basis Set: CC-PVTZ
  Basis Set:
  Basis Set: CC-PVTZ
  Basis Set:
  @DF-RHF Final Energy:  -418.42775644439558
    Total Energy =                       -418.4277564443955271
  Basis Set: CC-PVTZ
  Basis Set:
  Charge       = 0
  Multiplicity = 1
  Basis Set: CC-PVTZ
  Basis Set:

    Orbital Energies (a.u.)
    -----------------------

    Doubly Occupied:

       1A    -20.596666     2A    -20.561228     3A    -11.330517
       4A    -11.311671     5A    -11.252547     6A    -11.251570
       7A    -11.242374     8A    -11.240294     9A    -11.235553
      10A     -1.428383    11A     -1.415187    12A     -1.172761
      13A     -1.041334    14A     -1.039093    15A     -0.889836
      16A     -0.864518    17A     -0.802728    18A     -0.756789
      19A     -0.712555    20A     -0.678081    21A     -0.659986
      22A     -0.631158    23A     -0.607944    24A     -0.607521
      25A     -0.594602    26A     -0.565463    27A     -0.534697
      28A     -0.505433    29A     -0.498623    30A     -0.425387
      31A     -0.358719    32A     -0.328376

  @DF-RHF Final Energy:  -418.42775669356661

   => Energetics <=

    Nuclear Repulsion Energy =            401.0132012211865913
    One-Electron Energy =               -1364.5987242341466299
    Two-Electron Energy =                 545.1577663193934313
    DFT Exchange-Correlation Energy =       0.0000000000000000
    Empirical Dispersion Energy =           0.0000000000000000
    PCM Polarization Energy =               0.0000000000000000
    EFP Energy =                            0.0000000000000000
    Total Energy =                       -418.4277566935666073
    Molecular point group: c1
  Basis Set: CC-PVTZ
  Basis Set:

  -Total Gradient:
     Atom            X                  Y                   Z
    ------   -----------------  -----------------  -----------------
       1        0.000009059267     0.000005661623     0.000000221258
       2       -0.000030942924     0.000028280492    -0.000005289752
       3        0.000049300715    -0.000086112338    -0.000030187288
       4       -0.000002054660     0.000024009270     0.000011334084
       5       -0.000041883979     0.000020926137     0.000019322089
       6        0.000006718357     0.000000034153     0.000002123284
       7       -0.000406425213     0.003032285926     0.000469070810
       8        0.000006568419     0.000001055452    -0.000005993576
       9        0.000016061592    -0.000010196865     0.000009206440
      10       -0.000002532273    -0.000004085782     0.000006360136
      11        0.000560363559    -0.004470436205    -0.002369116015
      12       -0.000008960946    -0.000001593834    -0.000005970212
      13       -0.000189234935     0.001477590197     0.005671235510
      14        0.000010972364    -0.000031889856    -0.003771936977
      15        0.000022990660     0.000014471630    -0.000000379795

  **** Optimization is complete! (in 7 steps) ****
    Final optimized geometry and variables:
    Molecular point group: c1

    Geometry (in Angstrom), charge = 0, multiplicity = 1:

    H           -3.487056423087    -0.391003001725     0.766145931074
    O           -3.122742066493    -0.192304083868    -0.077528587504
    C           -1.783664322647    -0.069275273031    -0.011884945694
    C           -1.081288497209    -0.205892599863     1.170221548706
    C           -1.108202131245     0.211144988940    -1.188715282254
    H           -1.601531624373    -0.417601150822     2.086344666922
    C            0.294691215909    -0.072350792171     1.172375184850
    H           -1.665649128693     0.316813689131    -2.098110507198
    C            0.260632355488     0.353204565595    -1.171895726110
    H            0.831945935493    -0.188679266346     2.094523570740
    C            0.978891991177     0.193801297098     0.003687362798
    H            0.773838570064     0.579063845673    -2.088207306836
    C            2.464052232026     0.388974819411     0.012559004494
    O            3.251491289776    -0.491191603725     0.042493483910
    H            2.806094740791     1.428194812313    -0.042101652098

  Mulliken Charges: (a.u.)
   Center  Symbol    Alpha    Beta     Spin     Total
       1     H     0.38655  0.38655  0.00000  0.22691
       2     O     4.17046  4.17046  0.00000 -0.34093
       3     C     2.85715  2.85715  0.00000  0.28569
       4     C     3.12351  3.12351  0.00000 -0.24703
       5     C     3.09879  3.09879  0.00000 -0.19757
       6     H     0.43222  0.43222  0.00000  0.13556
       7     C     3.08912  3.08912  0.00000 -0.17823
       8     H     0.41697  0.41697  0.00000  0.16607
       9     C     3.07843  3.07843  0.00000 -0.15685
      10     H     0.41928  0.41928  0.00000  0.16143
      11     C     2.95481  2.95481  0.00000  0.09037
      12     H     0.42242  0.42242  0.00000  0.15515
      13     C     2.93391  2.93391  0.00000  0.13218
      14     O     4.15678  4.15678  0.00000 -0.31356
      15     H     0.45960  0.45960  0.00000  0.08079

   Total alpha = 32.00000, Total beta = 32.00000, Total charge = -0.00000
