  ==> Input File <==

--------------------------------------------------------------------------
set {
	reference rhf
	basis 6-31G*
}

set_num_threads( 1 )
memory 2 gb

molecule MOL {
0 1

O	 0.749854	 1.307668	 -0.000040
C	 0.576249	 0.131685	 -0.000108
C	 -0.766779	 -0.556801	 -0.000461
O	 1.568443	 -0.749345	 -0.000005
C	 -1.945214	 0.412366	 0.000161
H	 -0.796911	 -1.211249	 -0.867467
H	 -0.796854	 -1.212390	 0.865687
C	 -3.287791	 -0.317055	 0.000105
H	 -1.876087	 1.060580	 -0.866812
H	 -1.875822	 1.059691	 0.867761
H	 -3.394745	 -0.949193	 -0.877058
H	 -4.111778	 0.388953	 0.000015
H	 -3.394954	 -0.949187	 0.877259
C	 2.774488	 -0.358970	 0.631083
H	 3.188809	 0.515759	 0.150741
H	 3.446484	 -1.196477	 0.526823
H	 2.604096	 -0.143274	 1.676048

	symmetry c1
}
set optking {
	frozen_dihedral = ("
		1 2 3 6,
		9 5 3 6
	")
}

ee = energy('scf')
oeprop('DIPOLE', 'QUADRUPOLE', 'MULLIKEN_CHARGES')
f=open( 'psi4out.xyz', 'w' )
f.write( "17  " )
f.write( str(ee) + "\n" )
f.write( MOL.save_string_xyz() )
f.close()
--------------------------------------------------------------------------

    Molecular point group: c1

    Geometry (in Angstrom), charge = 0, multiplicity = 1:

       Center              X                  Y                   Z               Mass
    ------------   -----------------  -----------------  -----------------  -----------------
           O          0.767197320186     1.327188218626    -0.097426465472    15.994914619560
           C          0.593592320186     0.151205218626    -0.097494465472    12.000000000000
           C         -0.749435679814    -0.537280781374    -0.097847465472    12.000000000000
           O          1.585786320186    -0.729824781374    -0.097391465472    15.994914619560
           C         -1.927870679814     0.431886218626    -0.097225465472    12.000000000000
           H         -0.779567679814    -1.191728781374    -0.964853465472     1.007825032070
           H         -0.779510679814    -1.192869781374     0.768300534528     1.007825032070
           C         -3.270447679814    -0.297534781374    -0.097281465472    12.000000000000
           H         -1.858743679814     1.080100218626    -0.964198465472     1.007825032070
           H         -1.858478679814     1.079211218626     0.770374534528     1.007825032070
           H         -3.377401679814    -0.929672781374    -0.974444465472     1.007825032070
           H         -4.094434679814     0.408473218626    -0.097371465472     1.007825032070
           H         -3.377610679814    -0.929666781374     0.779872534528     1.007825032070
           C          2.791831320186    -0.339449781374     0.533696534528    12.000000000000
           H          3.206152320186     0.535279218626     0.053354534528     1.007825032070
           H          3.463827320186    -1.176956781374     0.429436534528     1.007825032070
           H          2.621439320186    -0.123753781374     1.578661534528     1.007825032070

  Charge       = 0
  Multiplicity = 1
  Basis Set: 6-31G*
  Basis Set:

    Orbital Energies (a.u.)
    -----------------------

    Doubly Occupied:

       1A    -20.599405     2A    -20.547658     3A    -11.373122
       4A    -11.283490     5A    -11.236221     6A    -11.221932
       7A    -11.214679     8A     -1.468357     9A     -1.363688
      10A     -1.080428    11A     -1.000644    12A     -0.941725
      13A     -0.828140    14A     -0.767505    15A     -0.700321
      16A     -0.682186    17A     -0.672448    18A     -0.636569
      19A     -0.599817    20A     -0.575361    21A     -0.568235
      22A     -0.530858    23A     -0.520271    24A     -0.497974
      25A     -0.487793    26A     -0.479006    27A     -0.454998
      28A     -0.436343

  @DF-RHF Final Energy:  -344.90159854319819

   => Energetics <=

    Nuclear Repulsion Energy =            312.5215292343993383
    One-Electron Energy =               -1089.3080247348157172
    Two-Electron Energy =                 431.8848969572168812
    DFT Exchange-Correlation Energy =       0.0000000000000000
    Empirical Dispersion Energy =           0.0000000000000000
    PCM Polarization Energy =               0.0000000000000000
    EFP Energy =                            0.0000000000000000
    Total Energy =                       -344.9015985431994409

  Mulliken Charges: (a.u.)
   Center  Symbol    Alpha    Beta     Spin     Total
       1     O     4.28076  4.28076  0.00000 -0.56153
       2     C     2.60575  2.60575  0.00000  0.78849
       3     C     3.20722  3.20722  0.00000 -0.41444
       4     O     4.30833  4.30833  0.00000 -0.61665
       5     C     3.15232  3.15232  0.00000 -0.30465
       6     H     0.39996  0.39996  0.00000  0.20008
       7     H     0.40292  0.40292  0.00000  0.19416
       8     C     3.24267  3.24267  0.00000 -0.48534
       9     H     0.41038  0.41038  0.00000  0.17924
      10     H     0.41154  0.41154  0.00000  0.17693
      11     H     0.42111  0.42111  0.00000  0.15778
      12     H     0.41514  0.41514  0.00000  0.16971
      13     H     0.42174  0.42174  0.00000  0.15653
      14     C     3.09451  3.09451  0.00000 -0.18902
      15     H     0.40316  0.40316  0.00000  0.19368
      16     H     0.40724  0.40724  0.00000  0.18553
      17     H     0.41524  0.41524  0.00000  0.16951

   Total alpha = 28.00000, Total beta = 28.00000, Total charge =  0.00000
