  ==> Input File <==

--------------------------------------------------------------------------
set {
	reference rhf
	basis 6-31G*
}

set_num_threads( 4 )
memory 2 gb

molecule MOL {
0 1

H	 -2.273092	 1.173159	 0.000295
O	 -1.438904	 1.618192	 0.000114
C	 -0.409536	 0.736003	 0.000030
C	 -0.212997	 0.009829	 1.164179
C	 0.418280	 0.556386	 -1.106043
H	 -0.874388	 0.179388	 1.993517
C	 0.816957	 -0.908445	 1.238195
C	 1.445798	 -0.373494	 -1.003483
C	 0.202282	 1.349775	 -2.375250
H	 0.964117	 -1.468673	 2.144276
C	 1.654198	 -1.105637	 0.151862
H	 2.094145	 -0.523967	 -1.849266
H	 0.295930	 2.420606	 -2.206450
H	 0.935661	 1.079966	 -3.124474
H	 -0.779411	 1.166578	 -2.807355
H	 2.457280	 -1.818173	 0.202360

	symmetry c1
}
set optking {
	frozen_dihedral = ("
		4 3 2 1
	")
}

ee = optimize('scf')
oeprop('DIPOLE', 'QUADRUPOLE', 'MULLIKEN_CHARGES')
f=open( 'psi4out.xyz', 'w' )
f.write( "16  " )
f.write( str(ee) + "\n" )
f.write( MOL.save_string_xyz() )
f.close()
--------------------------------------------------------------------------

    Molecular point group: c1
  Charge       = 0
  Multiplicity = 1
  Basis Set: 6-31G*
  Basis Set:
  @DF-RHF Final Energy:  -344.58966884658639
    Total Energy =                       -344.5896688465859370
    Molecular point group: c1
  Basis Set: 6-31G*
  Basis Set:
  Basis Set: 6-31G*
  Basis Set:
  @DF-RHF Final Energy:  -344.59117498273821
    Total Energy =                       -344.5911749827384938
  Basis Set: 6-31G*
  Basis Set:
  Basis Set: 6-31G*
  Basis Set:
  @DF-RHF Final Energy:  -344.59126489038874
    Total Energy =                       -344.5912648903886293
  Basis Set: 6-31G*
  Basis Set:
  Basis Set: 6-31G*
  Basis Set:
  @DF-RHF Final Energy:  -344.59127218968877
    Total Energy =                       -344.5912721896887092
  Basis Set: 6-31G*
  Basis Set:
  Basis Set: 6-31G*
  Basis Set:
  @DF-RHF Final Energy:  -344.59127350551870
    Total Energy =                       -344.5912735055182452
  Basis Set: 6-31G*
  Basis Set:
  Charge       = 0
  Multiplicity = 1
  Basis Set: 6-31G*
  Basis Set:

    Orbital Energies (a.u.)
    -----------------------

    Doubly Occupied:

       1A    -20.577000     2A    -11.284029     3A    -11.233190
       4A    -11.229710     5A    -11.227851     6A    -11.225493
       7A    -11.224580     8A    -11.215760     9A     -1.391674
      10A     -1.148196    11A     -1.043505    12A     -1.002645
      13A     -0.930314    14A     -0.832084    15A     -0.801695
      16A     -0.725680    17A     -0.665483    18A     -0.654122
      19A     -0.619975    20A     -0.590077    21A     -0.570908
      22A     -0.561888    23A     -0.541731    24A     -0.518855
      25A     -0.499197    26A     -0.481973    27A     -0.462896
      28A     -0.328778    29A     -0.315544

  @DF-RHF Final Energy:  -344.59127371473880

   => Energetics <=

    Nuclear Repulsion Energy =            349.6638247521403855
    One-Electron Energy =               -1160.7005315004030308
    Two-Electron Energy =                 466.4454330335237273
    DFT Exchange-Correlation Energy =       0.0000000000000000
    Empirical Dispersion Energy =           0.0000000000000000
    PCM Polarization Energy =               0.0000000000000000
    EFP Energy =                            0.0000000000000000
    Total Energy =                       -344.5912737147389180
    Molecular point group: c1
  Basis Set: 6-31G*
  Basis Set:

  -Total Gradient:
     Atom            X                  Y                   Z
    ------   -----------------  -----------------  -----------------
       1        0.000032609973    -0.000072136605    -0.001380177394
       2        0.000234571694     0.000507231055     0.001891020486
       3       -0.000906910286    -0.001172443130    -0.000876538298
       4        0.000628663315     0.000736804377     0.000367804726
       5       -0.000025659174     0.000015204722     0.000012740383
       6        0.000005652989    -0.000000398863    -0.000009848716
       7       -0.000004068407     0.000001191777     0.000014979023
       8        0.000001722002    -0.000004939921     0.000005033148
       9        0.000006851770    -0.000012083154     0.000002932380
      10        0.000004270628    -0.000008423579    -0.000001709801
      11        0.000009791868     0.000008949027    -0.000026373375
      12        0.000001813038     0.000000371648    -0.000007067596
      13        0.000005386415     0.000001107153     0.000002462865
      14        0.000003860643     0.000001921739    -0.000007556727
      15        0.000004819244    -0.000003435541     0.000009002456
      16       -0.000003375706     0.000001079293     0.000003296439

  **** Optimization is complete! (in 6 steps) ****
    Final optimized geometry and variables:
    Molecular point group: c1

    Geometry (in Angstrom), charge = 0, multiplicity = 1:

    H           -2.513100338418     0.940148296337     0.214288500559
    O           -1.664866592108     1.362808157090     0.207055754303
    C           -0.665728193565     0.425120244711     0.272316312173
    C           -0.461260579187    -0.288535156657     1.439410832011
    C            0.165137734506     0.257574858653    -0.831862135138
    H           -1.109102254212    -0.112165635729     2.279694248905
    C            0.571650071627    -1.208709741888     1.517664863310
    C            1.199865391559    -0.662556400854    -0.728176541043
    C           -0.063040252201     1.060532891562    -2.089261308463
    H            0.725692944404    -1.765304698898     2.424690869705
    C            1.405552163110    -1.396244600235     0.430181485218
    H            1.854203827033    -0.808875589957    -1.569832985717
    H           -0.001857706134     2.124558146341    -1.890261271657
    H            0.674794444109     0.811221487739    -2.842851182244
    H           -1.047148345804     0.870357373555    -2.505323920729
    H            2.213563481637    -2.103781571822     0.481145763191

  Mulliken Charges: (a.u.)
   Center  Symbol    Alpha    Beta     Spin     Total
       1     H     0.27200  0.27200  0.00000  0.45600
       2     O     4.38734  4.38734  0.00000 -0.77468
       3     C     2.83134  2.83134  0.00000  0.33732
       4     C     3.11785  3.11785  0.00000 -0.23571
       5     C     3.00114  3.00114  0.00000 -0.00228
       6     H     0.39744  0.39744  0.00000  0.20511
       7     C     3.10121  3.10121  0.00000 -0.20242
       8     C     3.11259  3.11259  0.00000 -0.22518
       9     C     3.24076  3.24076  0.00000 -0.48151
      10     H     0.39911  0.39911  0.00000  0.20177
      11     C     3.10123  3.10123  0.00000 -0.20246
      12     H     0.40092  0.40092  0.00000  0.19817
      13     H     0.40491  0.40491  0.00000  0.19018
      14     H     0.41734  0.41734  0.00000  0.16533
      15     H     0.41456  0.41456  0.00000  0.17087
      16     H     0.40026  0.40026  0.00000  0.19948

   Total alpha = 29.00000, Total beta = 29.00000, Total charge =  0.00000
