  ==> Input File <==

--------------------------------------------------------------------------
set {
	reference rhf
	basis 6-31G*
}

set_num_threads( 1 )
memory 2 gb

molecule MOL {
0 1

O	 0.625848	 1.349995	 -0.000749
C	 0.486307	 0.169203	 0.000779
C	 1.608116	 -0.841643	 0.000302
O	 -0.698257	 -0.426125	 0.001050
C	 2.990107	 -0.200498	 -0.000684
H	 1.468623	 -1.481519	 -0.865924
H	 1.469683	 -1.481289	 0.866878
H	 3.129736	 0.423364	 -0.875135
H	 3.757882	 -0.966877	 -0.001197
H	 3.130964	 0.423383	 0.873533
C	 -1.720680	 0.142919	 -0.810270
C	 -2.960904	 -0.708893	 -0.641234
H	 -1.385521	 0.161391	 -1.838332
H	 -1.891346	 1.164108	 -0.497800
H	 -2.771996	 -1.729717	 -0.953307
H	 -3.768880	 -0.308991	 -1.245305
H	 -3.280715	 -0.721532	 0.394535

	symmetry c1
}
set optking {
	frozen_dihedral = ("
		2 4 11 13,
		4 2 3 6
	")
}

ee = energy('scf')
oeprop('DIPOLE', 'QUADRUPOLE', 'MULLIKEN_CHARGES')
f=open( 'psi4out.xyz', 'w' )
f.write( "17  " )
f.write( str(ee) + "\n" )
f.write( MOL.save_string_xyz() )
f.close()
--------------------------------------------------------------------------

    Molecular point group: c1

    Geometry (in Angstrom), charge = 0, multiplicity = 1:

       Center              X                  Y                   Z               Mass
    ------------   -----------------  -----------------  -----------------  -----------------
           O          0.591219167433     1.418995536151     0.210707268494    15.994914619560
           C          0.451678167433     0.238203536151     0.212235268494    12.000000000000
           C          1.573487167433    -0.772642463849     0.211758268494    12.000000000000
           O         -0.732885832567    -0.357124463849     0.212506268494    15.994914619560
           C          2.955478167433    -0.131497463849     0.210772268494    12.000000000000
           H          1.433994167433    -1.412518463849    -0.654467731506     1.007825032070
           H          1.435054167433    -1.412288463849     1.078334268494     1.007825032070
           H          3.095107167433     0.492364536151    -0.663678731506     1.007825032070
           H          3.723253167433    -0.897876463849     0.210259268494     1.007825032070
           H          3.096335167433     0.492383536151     1.084989268494     1.007825032070
           C         -1.755308832567     0.211919536151    -0.598813731506    12.000000000000
           C         -2.995532832567    -0.639892463849    -0.429777731506    12.000000000000
           H         -1.420149832567     0.230391536151    -1.626875731506     1.007825032070
           H         -1.925974832567     1.233108536151    -0.286343731506     1.007825032070
           H         -2.806624832567    -1.660716463849    -0.741850731506     1.007825032070
           H         -3.803508832567    -0.239990463849    -1.033848731506     1.007825032070
           H         -3.315343832567    -0.652531463849     0.605991268494     1.007825032070

  Charge       = 0
  Multiplicity = 1
  Basis Set: 6-31G*
  Basis Set:

    Orbital Energies (a.u.)
    -----------------------

    Doubly Occupied:

       1A    -20.593277     2A    -20.547431     3A    -11.371804
       4A    -11.288907     5A    -11.237696     6A    -11.223717
       7A    -11.215609     8A     -1.465235     9A     -1.362697
      10A     -1.068876    11A     -1.033463    12A     -0.909197
      13A     -0.852404    14A     -0.772821    15A     -0.699111
      16A     -0.684501    17A     -0.662446    18A     -0.630828
      19A     -0.593547    20A     -0.564753    21A     -0.558466
      22A     -0.525043    23A     -0.519806    24A     -0.518413
      25A     -0.503958    26A     -0.492523    27A     -0.451103
      28A     -0.433400

  @DF-RHF Final Energy:  -344.90378700439589

   => Energetics <=

    Nuclear Repulsion Energy =            314.7130498633262050
    One-Electron Energy =               -1093.6717365501385757
    Two-Electron Energy =                 434.0548996824169876
    DFT Exchange-Correlation Energy =       0.0000000000000000
    Empirical Dispersion Energy =           0.0000000000000000
    PCM Polarization Energy =               0.0000000000000000
    EFP Energy =                            0.0000000000000000
    Total Energy =                       -344.9037870043953831

  Mulliken Charges: (a.u.)
   Center  Symbol    Alpha    Beta     Spin     Total
       1     O     4.27806  4.27806  0.00000 -0.55612
       2     C     2.60532  2.60532  0.00000  0.78937
       3     C     3.20644  3.20644  0.00000 -0.41289
       4     O     4.31550  4.31550  0.00000 -0.63099
       5     C     3.23946  3.23946  0.00000 -0.47891
       6     H     0.40378  0.40378  0.00000  0.19245
       7     H     0.39958  0.39958  0.00000  0.20084
       8     H     0.41079  0.41079  0.00000  0.17841
       9     H     0.41847  0.41847  0.00000  0.16307
      10     H     0.40936  0.40936  0.00000  0.18128
      11     C     3.00472  3.00472  0.00000 -0.00944
      12     C     3.24835  3.24835  0.00000 -0.49670
      13     H     0.41839  0.41839  0.00000  0.16322
      14     H     0.40377  0.40377  0.00000  0.19246
      15     H     0.41236  0.41236  0.00000  0.17527
      16     H     0.41658  0.41658  0.00000  0.16683
      17     H     0.40907  0.40907  0.00000  0.18186

   Total alpha = 28.00000, Total beta = 28.00000, Total charge = -0.00000
