  ==> Input File <==

--------------------------------------------------------------------------
set {
	reference rhf
	basis cc-pvtz
}

set_num_threads( 4 )
memory 2 gb

molecule MOL {
0 1

H	 -2.960880	 0.113703	 0.665863
O	 -2.346257	 -0.289210	 0.080372
C	 -1.183935	 0.486039	 -0.009831
C	 0.062853	 -0.375310	 0.027457
H	 -1.178881	 1.094526	 -0.908634
H	 -1.184406	 1.155156	 0.838676
O	 1.172093	 0.457955	 -0.054438
H	 0.052476	 -1.081302	 -0.804627
H	 0.076323	 -0.955658	 0.947560
C	 2.395478	 -0.199028	 -0.000366
H	 2.505946	 -0.901710	 -0.823354
H	 3.174616	 0.545641	 -0.071768
H	 2.513730	 -0.742241	 0.934223

	symmetry c1
}
set optking {
	frozen_dihedral = ("
		1 2 3 5
	")
}

ee = optimize('scf')
oeprop('DIPOLE', 'QUADRUPOLE', 'MULLIKEN_CHARGES')
f=open( 'psi4out.xyz', 'w' )
f.write( "13  " )
f.write( str(ee) + "\n" )
f.write( MOL.save_string_xyz() )
f.close()
--------------------------------------------------------------------------

    Molecular point group: c1
  Charge       = 0
  Multiplicity = 1
  Basis Set: CC-PVTZ
  Basis Set:
  @DF-RHF Final Energy:  -268.06041896825673
    Total Energy =                       -268.0604189682566698
    Molecular point group: c1
  Basis Set: CC-PVTZ
  Basis Set:
  Basis Set: CC-PVTZ
  Basis Set:
  @DF-RHF Final Energy:  -268.06157851488615
    Total Energy =                       -268.0615785148862074
  Basis Set: CC-PVTZ
  Basis Set:
  Basis Set: CC-PVTZ
  Basis Set:
  @DF-RHF Final Energy:  -268.06182393100278
    Total Energy =                       -268.0618239310027775
  Basis Set: CC-PVTZ
  Basis Set:
  Basis Set: CC-PVTZ
  Basis Set:
  @DF-RHF Final Energy:  -268.06182958780920
    Total Energy =                       -268.0618295878091430
  Basis Set: CC-PVTZ
  Basis Set:
  Charge       = 0
  Multiplicity = 1
  Basis Set: CC-PVTZ
  Basis Set:

    Orbital Energies (a.u.)
    -----------------------

    Doubly Occupied:

       1A    -20.552603     2A    -20.551436     3A    -11.267695
       4A    -11.264927     5A    -11.264825     6A     -1.388693
       7A     -1.367658     8A     -1.019420     9A     -0.912035
      10A     -0.833046    11A     -0.714810    12A     -0.682374
      13A     -0.644006    14A     -0.643066    15A     -0.612036
      16A     -0.553985    17A     -0.543791    18A     -0.495241
      19A     -0.475615    20A     -0.442235    21A     -0.421138

  @DF-RHF Final Energy:  -268.06183033110841

   => Energetics <=

    Nuclear Repulsion Energy =            190.5871050615834861
    One-Electron Energy =                -743.9966079030507444
    Two-Electron Energy =                 285.3476725103589615
    DFT Exchange-Correlation Energy =       0.0000000000000000
    Empirical Dispersion Energy =           0.0000000000000000
    PCM Polarization Energy =               0.0000000000000000
    EFP Energy =                            0.0000000000000000
    Total Energy =                       -268.0618303311082400
    Molecular point group: c1
  Basis Set: CC-PVTZ
  Basis Set:

  -Total Gradient:
     Atom            X                  Y                   Z
    ------   -----------------  -----------------  -----------------
       1        0.000407972581    -0.000532056980     0.000879316850
       2       -0.000345624385     0.000512878670    -0.001208556462
       3       -0.000587223200     0.000696849929     0.000775457662
       4       -0.000009308252    -0.000000002443    -0.000005864925
       5        0.000507586235    -0.000705822539    -0.000431120807
       6        0.000010867440    -0.000006829025    -0.000000010212
       7        0.000037341357     0.000017134476    -0.000013576056
       8        0.000005376415     0.000007131174     0.000000082899
       9       -0.000024677193     0.000004310618     0.000004441619
      10        0.000001073103     0.000006641918     0.000001044803
      11       -0.000003757063     0.000001515144     0.000000648251
      12        0.000002338473    -0.000000440861    -0.000001289871
      13       -0.000001965516    -0.000001310080    -0.000000573751

  **** Optimization is complete! (in 5 steps) ****
    Final optimized geometry and variables:
    Molecular point group: c1

    Geometry (in Angstrom), charge = 0, multiplicity = 1:

    H           -2.980891418809     0.038507700561     0.555816685028
    O           -2.307156425721    -0.334401900398     0.020872807238
    C           -1.179930211128     0.500594888109    -0.005644094675
    C            0.056377188274    -0.369774459842     0.042868072015
    H           -1.164260950382     1.087162950652    -0.917740945097
    H           -1.170247807534     1.185639685318     0.834891391173
    O            1.172510922481     0.454742046476    -0.053334761776
    H            0.027528897679    -1.083340794828    -0.778062846064
    H            0.070091514616    -0.936471566810     0.971745315130
    C            2.388212400694    -0.217649413491    -0.040406312502
    H            2.468805332703    -0.908865525332    -0.876173620416
    H            3.174936882813     0.518346775883    -0.119956935567
    H            2.523602522115    -0.777006820556     0.882567250973

  Mulliken Charges: (a.u.)
   Center  Symbol    Alpha    Beta     Spin     Total
       1     H     0.38952  0.38952  0.00000  0.22097
       2     O     4.20469  4.20469  0.00000 -0.40938
       3     C     2.96756  2.96756  0.00000  0.06488
       4     C     2.96089  2.96089  0.00000  0.07823
       5     H     0.46704  0.46704  0.00000  0.06591
       6     H     0.47037  0.47037  0.00000  0.05927
       7     O     4.17654  4.17654  0.00000 -0.35308
       8     H     0.47053  0.47053  0.00000  0.05894
       9     H     0.47376  0.47376  0.00000  0.05248
      10     C     3.03087  3.03087  0.00000 -0.06174
      11     H     0.47024  0.47024  0.00000  0.05952
      12     H     0.44704  0.44704  0.00000  0.10592
      13     H     0.47097  0.47097  0.00000  0.05807

   Total alpha = 21.00000, Total beta = 21.00000, Total charge = -0.00000
