  ==> Input File <==

--------------------------------------------------------------------------
set {
	reference rhf
	basis 6-31G*
}

set_num_threads( 1 )
memory 2 gb

molecule MOL {
0 1

H	 2.591676	 2.013956	 0.335017
O	 3.341076	 1.666752	 -0.126416
C	 3.569581	 0.339145	 0.272707
C	 4.197114	 -0.517859	 -0.821127
H	 4.239842	 0.397959	 1.120626
H	 2.644842	 -0.118009	 0.622918
C	 3.307255	 -0.705225	 -2.052352
H	 5.139057	 -0.063574	 -1.117328
H	 4.434457	 -1.491208	 -0.394951
C	 3.942651	 -1.613973	 -3.108413
H	 3.094304	 0.266033	 -2.490159
H	 2.350206	 -1.128090	 -1.746440
C	 3.056760	 -1.903970	 -4.325558
H	 4.880217	 -1.173335	 -3.442560
H	 4.203295	 -2.560282	 -2.639089
C	 2.760000	 -0.690181	 -5.210502
H	 3.546621	 -2.663304	 -4.931581
H	 2.118751	 -2.344200	 -3.990634
C	 1.962558	 -1.048724	 -6.466277
H	 3.698408	 -0.221611	 -5.503661
H	 2.208815	 0.058412	 -4.646493
C	 1.659447	 0.162086	 -7.348164
H	 2.514333	 -1.786771	 -7.044480
H	 1.028892	 -1.525841	 -6.175566
H	 2.574660	 0.642543	 -7.682484
H	 1.095446	 -0.124667	 -8.230384
H	 1.075986	 0.903654	 -6.809635

	symmetry c1
}
set optking {
	frozen_dihedral = ("
		14 10 7 4,
		14 10 13 16,
		10 7 4 8,
		8 4 3 2,
		10 13 16 20,
		20 16 19 22
	")
}

ee = energy('scf')
oeprop('DIPOLE', 'QUADRUPOLE', 'MULLIKEN_CHARGES')
f=open( 'psi4out.xyz', 'w' )
f.write( "27  " )
f.write( str(ee) + "\n" )
f.write( MOL.save_string_xyz() )
f.close()
--------------------------------------------------------------------------

    Molecular point group: c1

    Geometry (in Angstrom), charge = 0, multiplicity = 1:

       Center              X                  Y                   Z               Mass
    ------------   -----------------  -----------------  -----------------  -----------------
           H         -0.487897036381     2.444956865171     3.531770263346     1.007825032070
           O          0.261502963619     2.097752865171     3.070337263346    15.994914619560
           C          0.490007963619     0.770145865171     3.469460263346    12.000000000000
           C          1.117540963619    -0.086858134829     2.375626263346    12.000000000000
           H          1.160268963619     0.828959865171     4.317379263346     1.007825032070
           H         -0.434731036381     0.312991865171     3.819671263346     1.007825032070
           C          0.227681963619    -0.274224134829     1.144401263346    12.000000000000
           H          2.059483963619     0.367426865171     2.079425263346     1.007825032070
           H          1.354883963619    -1.060207134829     2.801802263346     1.007825032070
           C          0.863077963619    -1.182972134829     0.088340263346    12.000000000000
           H          0.014730963619     0.697033865171     0.706594263346     1.007825032070
           H         -0.729367036381    -0.697089134829     1.450313263346     1.007825032070
           C         -0.022813036381    -1.472969134829    -1.128804736654    12.000000000000
           H          1.800643963619    -0.742334134829    -0.245806736654     1.007825032070
           H          1.123721963619    -2.129281134829     0.557664263346     1.007825032070
           C         -0.319573036381    -0.259180134829    -2.013748736654    12.000000000000
           H          0.467047963619    -2.232303134829    -1.734827736654     1.007825032070
           H         -0.960822036381    -1.913199134829    -0.793880736654     1.007825032070
           C         -1.117015036381    -0.617723134829    -3.269523736654    12.000000000000
           H          0.618834963619     0.209389865171    -2.306907736654     1.007825032070
           H         -0.870758036381     0.489412865171    -1.449739736654     1.007825032070
           C         -1.420126036381     0.593086865171    -4.151410736654    12.000000000000
           H         -0.565240036381    -1.355770134829    -3.847726736654     1.007825032070
           H         -2.050681036381    -1.094840134829    -2.978812736654     1.007825032070
           H         -0.504913036381     1.073543865171    -4.485730736654     1.007825032070
           H         -1.984127036381     0.306333865171    -5.033630736654     1.007825032070
           H         -2.003587036381     1.334654865171    -3.612881736654     1.007825032070

  Charge       = 0
  Multiplicity = 1
  Basis Set: 6-31G*
  Basis Set:

    Orbital Energies (a.u.)
    -----------------------

    Doubly Occupied:

       1A    -20.550766     2A    -11.267319     3A    -11.214447
       4A    -11.211750     5A    -11.210632     6A    -11.210070
       7A    -11.208676     8A    -11.208654     9A    -11.205593
      10A     -1.358305    11A     -1.089138    12A     -1.056867
      13A     -1.008217    14A     -0.943669    15A     -0.880766
      16A     -0.812817    17A     -0.795308    18A     -0.771547
      19A     -0.703367    20A     -0.644561    21A     -0.630984
      22A     -0.622779    23A     -0.588341    24A     -0.578648
      25A     -0.575707    26A     -0.547143    27A     -0.538139
      28A     -0.518648    29A     -0.507102    30A     -0.485930
      31A     -0.476720    32A     -0.475849    33A     -0.460645
      34A     -0.453950    35A     -0.448422    36A     -0.439384
      37A     -0.418439

  @DF-RHF Final Energy:  -388.27999606481688

   => Energetics <=

    Nuclear Repulsion Energy =            458.5599338197267230
    One-Electron Energy =               -1435.4412096983912761
    Two-Electron Energy =                 588.6012798138496009
    DFT Exchange-Correlation Energy =       0.0000000000000000
    Empirical Dispersion Energy =           0.0000000000000000
    PCM Polarization Energy =               0.0000000000000000
    EFP Energy =                            0.0000000000000000
    Total Energy =                       -388.2799960648150090

  Mulliken Charges: (a.u.)
   Center  Symbol    Alpha    Beta     Spin     Total
       1     H     0.27964  0.27964  0.00000  0.44072
       2     O     4.37224  4.37224  0.00000 -0.74448
       3     C     2.99506  2.99506  0.00000  0.00988
       4     C     3.16077  3.16077  0.00000 -0.32153
       5     H     0.42621  0.42621  0.00000  0.14758
       6     H     0.43404  0.43404  0.00000  0.13192
       7     C     3.15699  3.15699  0.00000 -0.31397
       8     H     0.41478  0.41478  0.00000  0.17045
       9     H     0.42311  0.42311  0.00000  0.15377
      10     C     3.15330  3.15330  0.00000 -0.30660
      11     H     0.40825  0.40825  0.00000  0.18351
      12     H     0.42850  0.42850  0.00000  0.14300
      13     C     3.15276  3.15276  0.00000 -0.30553
      14     H     0.42310  0.42310  0.00000  0.15379
      15     H     0.42432  0.42432  0.00000  0.15136
      16     C     3.15276  3.15276  0.00000 -0.30552
      17     H     0.42263  0.42263  0.00000  0.15474
      18     H     0.42493  0.42493  0.00000  0.15015
      19     C     3.15104  3.15104  0.00000 -0.30209
      20     H     0.42415  0.42415  0.00000  0.15169
      21     H     0.42115  0.42115  0.00000  0.15771
      22     C     3.23902  3.23902  0.00000 -0.47804
      23     H     0.42369  0.42369  0.00000  0.15263
      24     H     0.42380  0.42380  0.00000  0.15240
      25     H     0.42175  0.42175  0.00000  0.15651
      26     H     0.42013  0.42013  0.00000  0.15975
      27     H     0.42190  0.42190  0.00000  0.15620

   Total alpha = 37.00000, Total beta = 37.00000, Total charge =  0.00000
