  ==> Input File <==

--------------------------------------------------------------------------
set {
	reference rhf
	basis cc-pvtz
}

set_num_threads( 4 )
memory 2 gb

molecule MOL {
0 1

H	 -0.939693	 0.000281	 1.681345
O	 -0.046262	 -0.000157	 1.387678
C	 -0.000837	 0.000006	 -0.025491
C	 -1.229874	 0.720398	 -0.576538
C	 1.282521	 0.681892	 -0.495777
C	 -0.010345	 -1.467817	 -0.429960
H	 -1.241316	 0.705210	 -1.660250
H	 -1.241452	 1.758969	 -0.259824
H	 -2.134857	 0.248013	 -0.215538
H	 1.363073	 0.665236	 -1.576527
H	 1.305510	 1.719956	 -0.178020
H	 2.147579	 0.182419	 -0.077844
H	 0.022753	 -1.571856	 -1.508092
H	 -0.907002	 -1.951545	 -0.063592
H	 0.845658	 -1.978440	 -0.007187

	symmetry c1
}
set optking {
	frozen_dihedral = ("
		4 3 2 1
	")
}

ee = optimize('scf')
oeprop('DIPOLE', 'QUADRUPOLE', 'MULLIKEN_CHARGES')
f=open( 'psi4out.xyz', 'w' )
f.write( "15  " )
f.write( str(ee) + "\n" )
f.write( MOL.save_string_xyz() )
f.close()
--------------------------------------------------------------------------

    Molecular point group: c1
  Charge       = 0
  Multiplicity = 1
  Basis Set: CC-PVTZ
  Basis Set:
  @DF-RHF Final Energy:  -232.24429039640515
    Total Energy =                       -232.2442903964051766
    Molecular point group: c1
  Basis Set: CC-PVTZ
  Basis Set:
  Basis Set: CC-PVTZ
  Basis Set:
  @DF-RHF Final Energy:  -232.24544296695865
    Total Energy =                       -232.2454429669584215
  Basis Set: CC-PVTZ
  Basis Set:
  Basis Set: CC-PVTZ
  Basis Set:
  @DF-RHF Final Energy:  -232.24574149906229
    Total Energy =                       -232.2457414990624329
  Basis Set: CC-PVTZ
  Basis Set:
  Basis Set: CC-PVTZ
  Basis Set:
  @DF-RHF Final Energy:  -232.24574280710092
    Total Energy =                       -232.2457428071008394
  Basis Set: CC-PVTZ
  Basis Set:
  Basis Set: CC-PVTZ
  Basis Set:
  @DF-RHF Final Energy:  -232.24574823389045
    Total Energy =                       -232.2457482338904811
  Basis Set: CC-PVTZ
  Basis Set:
  Charge       = 0
  Multiplicity = 1
  Basis Set: CC-PVTZ
  Basis Set:

    Orbital Energies (a.u.)
    -----------------------

    Doubly Occupied:

       1A    -20.541186     2A    -11.280974     3A    -11.214294
       4A    -11.204899     5A    -11.203670     6A     -1.363878
       7A     -1.065481     8A     -0.945086     9A     -0.937758
      10A     -0.778565    11A     -0.672276    12A     -0.624592
      13A     -0.622683    14A     -0.576360    15A     -0.557315
      16A     -0.533926    17A     -0.517077    18A     -0.511409
      19A     -0.503772    20A     -0.458902    21A     -0.427320

  @DF-RHF Final Energy:  -232.24574914300149

   => Energetics <=

    Nuclear Repulsion Energy =            200.6285378016049208
    One-Electron Energy =                -712.6657277626854921
    Two-Electron Energy =                 279.7914408180791952
    DFT Exchange-Correlation Energy =       0.0000000000000000
    Empirical Dispersion Energy =           0.0000000000000000
    PCM Polarization Energy =               0.0000000000000000
    EFP Energy =                            0.0000000000000000
    Total Energy =                       -232.2457491430013761
    Molecular point group: c1
  Basis Set: CC-PVTZ
  Basis Set:

  -Total Gradient:
     Atom            X                  Y                   Z
    ------   -----------------  -----------------  -----------------
       1        0.000030091534     0.001851241549    -0.000091893370
       2       -0.000260565747    -0.002628155198     0.000025315183
       3        0.000832705437     0.001714600372    -0.000106582122
       4       -0.000555289959    -0.000936863651     0.000089470410
       5       -0.000025203377     0.000042343061     0.000023078377
       6       -0.000020277091    -0.000043773320     0.000035583290
       7        0.000015950455    -0.000008952044     0.000007963302
       8       -0.000017804186     0.000008923867     0.000002527935
       9        0.000012429886    -0.000005171729     0.000004932318
      10       -0.000002479069    -0.000009079982     0.000005592042
      11        0.000009918634     0.000019518314    -0.000002110289
      12       -0.000009277486    -0.000000049471     0.000000185828
      13       -0.000001091062     0.000015685520     0.000010187264
      14       -0.000003878660    -0.000018647368    -0.000005168525
      15       -0.000005229309    -0.000001619919     0.000000918360

  **** Optimization is complete! (in 6 steps) ****
    Final optimized geometry and variables:
    Molecular point group: c1

    Geometry (in Angstrom), charge = 0, multiplicity = 1:

    H           -0.875423568450     0.091126474854     1.718137468220
    O            0.003765653790     0.057963651846     1.389358706485
    C            0.001505817608    -0.001698592201    -0.025287405462
    C           -1.226447951611     0.720662288042    -0.573016324138
    C            1.283782147075     0.684697414403    -0.477071130396
    C           -0.005406675199    -1.468120438397    -0.454416572350
    H           -1.234417447848     0.709545611282    -1.656084508610
    H           -1.240015920575     1.752901244255    -0.242992722020
    H           -2.139072927211     0.240378001398    -0.232287355831
    H            1.388768123697     0.641883360888    -1.554983794241
    H            1.284624066359     1.722811233957    -0.169126233293
    H            2.142040057719     0.199838152150    -0.029010044778
    H            0.030941451250    -1.563882156687    -1.533922040539
    H           -0.902736476857    -1.964360839339    -0.101060511366
    H            0.849307383539    -1.982660123358    -0.033836655484

  Mulliken Charges: (a.u.)
   Center  Symbol    Alpha    Beta     Spin     Total
       1     H     0.39379  0.39379  0.00000  0.21241
       2     O     4.21334  4.21334  0.00000 -0.42668
       3     C     2.87904  2.87904  0.00000  0.24191
       4     C     3.15755  3.15755  0.00000 -0.31510
       5     C     3.14105  3.14105  0.00000 -0.28210
       6     C     3.14414  3.14414  0.00000 -0.28828
       7     H     0.45223  0.45223  0.00000  0.09554
       8     H     0.44564  0.44564  0.00000  0.10872
       9     H     0.45464  0.45464  0.00000  0.09072
      10     H     0.45915  0.45915  0.00000  0.08171
      11     H     0.45103  0.45103  0.00000  0.09794
      12     H     0.44716  0.44716  0.00000  0.10567
      13     H     0.45814  0.45814  0.00000  0.08372
      14     H     0.45497  0.45497  0.00000  0.09006
      15     H     0.44812  0.44812  0.00000  0.10376

   Total alpha = 21.00000, Total beta = 21.00000, Total charge = -0.00000
