  ==> Input File <==

--------------------------------------------------------------------------
set {
	reference rhf
	basis 6-31G*
}

set_num_threads( 1 )
memory 2 gb

molecule MOL {
0 1

H	 -0.859995	 -1.757683	 0.977122
C	 -1.739658	 -1.314781	 0.514334
O	 -1.392607	 -0.295399	 -0.366433
H	 -2.256351	 -2.075416	 -0.054529
H	 -2.400299	 -0.955798	 1.302441
C	 -0.719715	 0.768384	 0.229244
C	 0.719720	 0.768376	 -0.229267
H	 -1.185038	 1.714362	 -0.050570
H	 -0.750528	 0.687237	 1.313896
O	 1.392611	 -0.295398	 0.366430
H	 0.750534	 0.687200	 -1.313918
H	 1.185043	 1.714359	 0.050526
C	 2.706965	 -0.449871	 -0.062409
H	 2.756559	 -0.644779	 -1.131878
H	 3.305899	 0.433456	 0.155466
H	 3.125548	 -1.294566	 0.467107

	symmetry c1
}
set optking {
	frozen_dihedral = ("
		3 6 7 11,
		7 10 13 14
	")
}

ee = energy('scf')
oeprop('DIPOLE', 'QUADRUPOLE', 'MULLIKEN_CHARGES')
f=open( 'psi4out.xyz', 'w' )
f.write( "16  " )
f.write( str(ee) + "\n" )
f.write( MOL.save_string_xyz() )
f.close()
--------------------------------------------------------------------------

    Molecular point group: c1

    Geometry (in Angstrom), charge = 0, multiplicity = 1:

       Center              X                  Y                   Z               Mass
    ------------   -----------------  -----------------  -----------------  -----------------
           H         -1.029954309204    -1.605711828012     0.897716908116     1.007825032070
           C         -1.909617309204    -1.162809828012     0.434928908116    12.000000000000
           O         -1.562566309204    -0.143427828012    -0.445838091884    15.994914619560
           H         -2.426310309204    -1.923444828012    -0.133934091884     1.007825032070
           H         -2.570258309204    -0.803826828012     1.223035908116     1.007825032070
           C         -0.889674309204     0.920355171988     0.149838908116    12.000000000000
           C          0.549760690796     0.920347171988    -0.308672091884    12.000000000000
           H         -1.354997309204     1.866333171988    -0.129975091884     1.007825032070
           H         -0.920487309204     0.839208171988     1.234490908116     1.007825032070
           O          1.222651690796    -0.143426828012     0.287024908116    15.994914619560
           H          0.580574690796     0.839171171988    -1.393323091884     1.007825032070
           H          1.015083690796     1.866330171988    -0.028879091884     1.007825032070
           C          2.537005690796    -0.297899828012    -0.141814091884    12.000000000000
           H          2.586599690796    -0.492807828012    -1.211283091884     1.007825032070
           H          3.135939690796     0.585427171988     0.076060908116     1.007825032070
           H          2.955588690796    -1.142594828012     0.387701908116     1.007825032070

  Charge       = 0
  Multiplicity = 1
  Basis Set: 6-31G*
  Basis Set:

    Orbital Energies (a.u.)
    -----------------------

    Doubly Occupied:

       1A    -20.558324     2A    -20.549572     3A    -11.267575
       4A    -11.266890     5A    -11.266338     6A    -11.256984
       7A     -1.390531     8A     -1.369846     9A     -1.028568
      10A     -0.939351    11A     -0.889418    12A     -0.823716
      13A     -0.684961    14A     -0.680067    15A     -0.658416
      16A     -0.632669    17A     -0.625220    18A     -0.600746
      19A     -0.547202    20A     -0.532037    21A     -0.514953
      22A     -0.476728    23A     -0.469899    24A     -0.419509
      25A     -0.403424

  @DF-RHF Final Energy:  -306.97581644637978

   => Energetics <=

    Nuclear Repulsion Energy =            263.5210960804903380
    One-Electron Energy =                -941.2879401512044524
    Two-Electron Energy =                 370.7910276243346743
    DFT Exchange-Correlation Energy =       0.0000000000000000
    Empirical Dispersion Energy =           0.0000000000000000
    PCM Polarization Energy =               0.0000000000000000
    EFP Energy =                            0.0000000000000000
    Total Energy =                       -306.9758164463794401

  Mulliken Charges: (a.u.)
   Center  Symbol    Alpha    Beta     Spin     Total
       1     H     0.41712  0.41712  0.00000  0.16576
       2     C     3.08417  3.08417  0.00000 -0.16835
       3     O     4.30320  4.30320  0.00000 -0.60639
       4     H     0.41540  0.41540  0.00000  0.16920
       5     H     0.43191  0.43191  0.00000  0.13618
       6     C     3.00308  3.00308  0.00000 -0.00615
       7     C     2.99078  2.99078  0.00000  0.01845
       8     H     0.42017  0.42017  0.00000  0.15967
       9     H     0.42166  0.42166  0.00000  0.15669
      10     O     4.30502  4.30502  0.00000 -0.61004
      11     H     0.42298  0.42298  0.00000  0.15403
      12     H     0.43531  0.43531  0.00000  0.12938
      13     C     3.07965  3.07965  0.00000 -0.15930
      14     H     0.42731  0.42731  0.00000  0.14537
      15     H     0.43027  0.43027  0.00000  0.13946
      16     H     0.41197  0.41197  0.00000  0.17605

   Total alpha = 25.00000, Total beta = 25.00000, Total charge =  0.00000
