  ==> Input File <==

--------------------------------------------------------------------------
set {
	reference rhf
	basis 6-31G*
}

set_num_threads( 4 )
memory 2 gb

molecule MOL {
0 1

H	 2.437190	 0.229096	 0.529191
O	 1.550823	 0.370622	 0.828929
C	 0.702312	 0.627605	 -0.264544
C	 -0.714990	 0.596302	 0.266387
H	 0.819773	 -0.134875	 -1.029843
H	 0.917796	 1.598459	 -0.705603
O	 -1.405996	 -0.526611	 -0.195820
H	 -1.257453	 1.468809	 -0.075599
H	 -0.688972	 0.618407	 1.353696
H	 -0.890587	 -1.292708	 0.022039

	symmetry c1
}
set optking {
	frozen_dihedral = ("
		5 3 4 7
	")
}

ee = optimize('scf')
oeprop('DIPOLE', 'QUADRUPOLE', 'MULLIKEN_CHARGES')
f=open( 'psi4out.xyz', 'w' )
f.write( "10  " )
f.write( str(ee) + "\n" )
f.write( MOL.save_string_xyz() )
f.close()
--------------------------------------------------------------------------

    Molecular point group: c1
  Charge       = 0
  Multiplicity = 1
  Basis Set: 6-31G*
  Basis Set:
  @DF-RHF Final Energy:  -228.91549259905491
    Total Energy =                       -228.9154925990549145
    Molecular point group: c1
  Basis Set: 6-31G*
  Basis Set:
  Basis Set: 6-31G*
  Basis Set:
  @DF-RHF Final Energy:  -228.91683870453562
    Total Energy =                       -228.9168387045355360
  Basis Set: 6-31G*
  Basis Set:
  Basis Set: 6-31G*
  Basis Set:
  @DF-RHF Final Energy:  -228.91726338843873
    Total Energy =                       -228.9172633884385846
  Basis Set: 6-31G*
  Basis Set:
  Basis Set: 6-31G*
  Basis Set:
  @DF-RHF Final Energy:  -228.91727474605767
    Total Energy =                       -228.9172747460576147
  Basis Set: 6-31G*
  Basis Set:
  Charge       = 0
  Multiplicity = 1
  Basis Set: 6-31G*
  Basis Set:

    Orbital Energies (a.u.)
    -----------------------

    Doubly Occupied:

       1A    -20.561026     2A    -20.555360     3A    -11.272798
       4A    -11.268707     5A     -1.372586     6A     -1.356189
       7A     -0.996294     8A     -0.845247     9A     -0.725517
      10A     -0.668913    11A     -0.651463    12A     -0.605709
      13A     -0.572677    14A     -0.523883    15A     -0.490772
      16A     -0.449434    17A     -0.433030

  @DF-RHF Final Energy:  -228.91727574738798

   => Energetics <=

    Nuclear Repulsion Energy =            131.6927119497885315
    One-Electron Energy =                -574.5207676491544362
    Two-Electron Energy =                 213.9107799519779576
    DFT Exchange-Correlation Energy =       0.0000000000000000
    Empirical Dispersion Energy =           0.0000000000000000
    PCM Polarization Energy =               0.0000000000000000
    EFP Energy =                            0.0000000000000000
    Total Energy =                       -228.9172757473879471
    Molecular point group: c1
  Basis Set: 6-31G*
  Basis Set:

  -Total Gradient:
     Atom            X                  Y                   Z
    ------   -----------------  -----------------  -----------------
       1        0.000000252690     0.000003039360     0.000007484936
       2       -0.000039657427     0.000009007219    -0.000052287207
       3       -0.001713028055     0.004211388934    -0.004390431017
       4        0.001602949379    -0.003199553745     0.004190248601
       5        0.001119416254    -0.002879763403     0.002866023615
       6        0.000021213759     0.000011456789    -0.000015018702
       7       -0.001022882455     0.001822447442    -0.002622411623
       8        0.000022908980     0.000006960050     0.000012397292
       9        0.000009294626     0.000008321984     0.000006234088
      10       -0.000000467747     0.000006695370    -0.000002239983

  **** Optimization is complete! (in 5 steps) ****
    Final optimized geometry and variables:
    Molecular point group: c1

    Geometry (in Angstrom), charge = 0, multiplicity = 1:

    H            2.421596424080     0.116306915474     0.371958223882
    O            1.522400524268     0.104188136394     0.668113366406
    C            0.663675208001     0.413723117915    -0.405997353831
    C           -0.778154826339     0.348128782177     0.102065048718
    H            0.784383804192    -0.320461127270    -1.197325201491
    H            0.893224682635     1.399471912115    -0.801794701841
    O           -1.490206183490    -0.752750949115    -0.397705155493
    H           -1.330677563009     1.217212749670    -0.229243703546
    H           -0.761623010625     0.355774969462     1.186837533446
    H           -1.154762684954    -1.546382987876    -0.003136799623

  Mulliken Charges: (a.u.)
   Center  Symbol    Alpha    Beta     Spin     Total
       1     H     0.28003  0.28003  0.00000  0.43994
       2     O     4.37453  4.37453  0.00000 -0.74906
       3     C     3.01642  3.01642  0.00000 -0.03284
       4     C     3.00620  3.00620  0.00000 -0.01240
       5     H     0.41953  0.41953  0.00000  0.16094
       6     H     0.42621  0.42621  0.00000  0.14758
       7     O     4.37028  4.37028  0.00000 -0.74056
       8     H     0.41444  0.41444  0.00000  0.17112
       9     H     0.41208  0.41208  0.00000  0.17584
      10     H     0.28028  0.28028  0.00000  0.43945

   Total alpha = 17.00000, Total beta = 17.00000, Total charge =  0.00000
