  ==> Input File <==

--------------------------------------------------------------------------
set {
	reference rhf
	basis 6-31G*
}

set_num_threads( 1 )
memory 2 gb

molecule MOL {
0 1

H	 2.544203	 -2.043033	 0.619725
O	 3.271734	 -1.877466	 0.038040
C	 2.973260	 -2.366754	 -1.244756
C	 1.944480	 -1.520534	 -1.986545
H	 3.910075	 -2.361706	 -1.786997
H	 2.637603	 -3.401663	 -1.189281
C	 0.563876	 -1.498602	 -1.326001
H	 2.326353	 -0.506167	 -2.067776
H	 1.854339	 -1.907730	 -3.000114
C	 -0.460103	 -0.685511	 -2.122978
H	 0.653693	 -1.087140	 -0.324504
H	 0.199782	 -2.519993	 -1.214041
C	 -1.881880	 -0.701458	 -1.549710
H	 -0.115821	 0.344027	 -2.202786
H	 -0.494304	 -1.072824	 -3.139107
C	 -2.037799	 -0.007733	 -0.193645
H	 -2.544062	 -0.217650	 -2.264736
H	 -2.225533	 -1.731658	 -1.469536
C	 -3.489788	 0.042957	 0.286558
H	 -1.647575	 1.006718	 -0.262384
H	 -1.437153	 -0.514969	 0.557514
C	 -4.216917	 1.317354	 -0.141063
H	 -4.025645	 -0.823308	 -0.095450
H	 -3.513059	 -0.038752	 1.371301
H	 -4.239342	 1.411634	 -1.223113
H	 -5.243387	 1.322503	 0.212445
H	 -3.726170	 2.201406	 0.256408

	symmetry c1
}
set optking {
	frozen_dihedral = ("
		14 10 7 4,
		14 10 13 16,
		10 7 4 8,
		8 4 3 2,
		10 13 16 20,
		4 3 2 1
	")
}

ee = energy('scf')
oeprop('DIPOLE', 'QUADRUPOLE', 'MULLIKEN_CHARGES')
f=open( 'psi4out.xyz', 'w' )
f.write( "27  " )
f.write( str(ee) + "\n" )
f.write( MOL.save_string_xyz() )
f.close()
--------------------------------------------------------------------------

    Molecular point group: c1

    Geometry (in Angstrom), charge = 0, multiplicity = 1:

       Center              X                  Y                   Z               Mass
    ------------   -----------------  -----------------  -----------------  -----------------
           H          2.867952565737    -1.219992397144     1.511765949350     1.007825032070
           O          3.595483565737    -1.054425397144     0.930080949350    15.994914619560
           C          3.297009565737    -1.543713397144    -0.352715050650    12.000000000000
           C          2.268229565737    -0.697493397144    -1.094504050650    12.000000000000
           H          4.233824565737    -1.538665397144    -0.894956050650     1.007825032070
           H          2.961352565737    -2.578622397144    -0.297240050650     1.007825032070
           C          0.887625565737    -0.675561397144    -0.433960050650    12.000000000000
           H          2.650102565737     0.316873602856    -1.175735050650     1.007825032070
           H          2.178088565737    -1.084689397144    -2.108073050650     1.007825032070
           C         -0.136353434263     0.137529602856    -1.230937050650    12.000000000000
           H          0.977442565737    -0.264099397144     0.567536949350     1.007825032070
           H          0.523531565737    -1.696952397144    -0.322000050650     1.007825032070
           C         -1.558130434263     0.121582602856    -0.657669050650    12.000000000000
           H          0.207928565737     1.167067602856    -1.310745050650     1.007825032070
           H         -0.170554434263    -0.249783397144    -2.247066050650     1.007825032070
           C         -1.714049434263     0.815307602856     0.698395949350    12.000000000000
           H         -2.220312434263     0.605390602856    -1.372695050650     1.007825032070
           H         -1.901783434263    -0.908617397144    -0.577495050650     1.007825032070
           C         -3.166038434263     0.865997602856     1.178598949350    12.000000000000
           H         -1.323825434263     1.829758602856     0.629656949350     1.007825032070
           H         -1.113403434263     0.308071602856     1.449554949350     1.007825032070
           C         -3.893167434263     2.140394602856     0.750977949350    12.000000000000
           H         -3.701895434263    -0.000267397144     0.796590949350     1.007825032070
           H         -3.189309434263     0.784288602856     2.263341949350     1.007825032070
           H         -3.915592434263     2.234674602856    -0.331072050650     1.007825032070
           H         -4.919637434263     2.145543602856     1.104485949350     1.007825032070
           H         -3.402420434263     3.024446602856     1.148448949350     1.007825032070

  Charge       = 0
  Multiplicity = 1
  Basis Set: 6-31G*
  Basis Set:

    Orbital Energies (a.u.)
    -----------------------

    Doubly Occupied:

       1A    -20.552273     2A    -11.267028     3A    -11.219745
       4A    -11.217106     5A    -11.215893     6A    -11.215183
       7A    -11.215165     8A    -11.213374     9A    -11.209221
      10A     -1.359013    11A     -1.095593    12A     -1.061772
      13A     -1.010191    14A     -0.947042    15A     -0.890780
      16A     -0.824280    17A     -0.799217    18A     -0.775650
      19A     -0.693707    20A     -0.646654    21A     -0.633312
      22A     -0.617339    23A     -0.605409    24A     -0.589569
      25A     -0.579029    26A     -0.553651    27A     -0.539587
      28A     -0.527948    29A     -0.508544    30A     -0.491938
      31A     -0.486436    32A     -0.475381    33A     -0.468993
      34A     -0.461485    35A     -0.448119    36A     -0.440070
      37A     -0.422973

  @DF-RHF Final Energy:  -388.27811683032377

   => Energetics <=

    Nuclear Repulsion Energy =            460.9997577622356744
    One-Electron Energy =               -1439.9983486408784756
    Two-Electron Energy =                 590.7204740483200567
    DFT Exchange-Correlation Energy =       0.0000000000000000
    Empirical Dispersion Energy =           0.0000000000000000
    PCM Polarization Energy =               0.0000000000000000
    EFP Energy =                            0.0000000000000000
    Total Energy =                       -388.2781168303226877

  Mulliken Charges: (a.u.)
   Center  Symbol    Alpha    Beta     Spin     Total
       1     H     0.27991  0.27991  0.00000  0.44019
       2     O     4.37096  4.37096  0.00000 -0.74191
       3     C     2.99736  2.99736  0.00000  0.00527
       4     C     3.16089  3.16089  0.00000 -0.32177
       5     H     0.41445  0.41445  0.00000  0.17111
       6     H     0.43205  0.43205  0.00000  0.13589
       7     C     3.16319  3.16319  0.00000 -0.32637
       8     H     0.41497  0.41497  0.00000  0.17006
       9     H     0.42434  0.42434  0.00000  0.15132
      10     C     3.15216  3.15216  0.00000 -0.30433
      11     H     0.42292  0.42292  0.00000  0.15417
      12     H     0.42549  0.42549  0.00000  0.14902
      13     C     3.15513  3.15513  0.00000 -0.31026
      14     H     0.42159  0.42159  0.00000  0.15683
      15     H     0.42165  0.42165  0.00000  0.15671
      16     C     3.15525  3.15525  0.00000 -0.31050
      17     H     0.42076  0.42076  0.00000  0.15848
      18     H     0.42381  0.42381  0.00000  0.15239
      19     C     3.15435  3.15435  0.00000 -0.30869
      20     H     0.42221  0.42221  0.00000  0.15558
      21     H     0.42151  0.42151  0.00000  0.15697
      22     C     3.24007  3.24007  0.00000 -0.48013
      23     H     0.42178  0.42178  0.00000  0.15644
      24     H     0.42067  0.42067  0.00000  0.15866
      25     H     0.42169  0.42169  0.00000  0.15663
      26     H     0.41968  0.41968  0.00000  0.16065
      27     H     0.42120  0.42120  0.00000  0.15761

   Total alpha = 37.00000, Total beta = 37.00000, Total charge =  0.00000
