  ==> Input File <==

--------------------------------------------------------------------------
set {
	reference rhf
	basis 6-31G*
}

set_num_threads( 4 )
memory 2 gb

molecule MOL {
0 1

H	 -2.698709	 -0.000305	 0.034435
C	 -1.693833	 0.000034	 0.434417
O	 -0.828952	 -0.000968	 -0.659236
H	 -1.574200	 0.882896	 1.055746
H	 -1.574147	 -0.881698	 1.057355
C	 -0.742549	 1.160635	 -1.451522
C	 -2.057472	 1.487230	 -2.156668
C	 -0.185139	 2.355311	 -0.680158
H	 -0.018191	 0.888179	 -2.209878
H	 -2.448692	 0.604449	 -2.650825
H	 -1.895339	 2.254129	 -2.907544
H	 -2.811319	 1.858107	 -1.469406
H	 0.719124	 2.073205	 -0.151781
H	 0.058876	 3.159535	 -1.367287
H	 -0.895682	 2.746867	 0.040711

	symmetry c1
}
set optking {
	frozen_dihedral = ("
		6 3 2 1
	")
}

ee = optimize('scf')
oeprop('DIPOLE', 'QUADRUPOLE', 'MULLIKEN_CHARGES')
f=open( 'psi4out.xyz', 'w' )
f.write( "15  " )
f.write( str(ee) + "\n" )
f.write( MOL.save_string_xyz() )
f.close()
--------------------------------------------------------------------------

    Molecular point group: c1
  Charge       = 0
  Multiplicity = 1
  Basis Set: 6-31G*
  Basis Set:
  @DF-RHF Final Energy:  -232.13523853951764
    Total Energy =                       -232.1352385395178999
    Molecular point group: c1
  Basis Set: 6-31G*
  Basis Set:
  Basis Set: 6-31G*
  Basis Set:
  @DF-RHF Final Energy:  -232.13722568632181
    Total Energy =                       -232.1372256863218695
  Basis Set: 6-31G*
  Basis Set:
  Basis Set: 6-31G*
  Basis Set:
  @DF-RHF Final Energy:  -232.13769465275561
    Total Energy =                       -232.1376946527559539
  Basis Set: 6-31G*
  Basis Set:
  Basis Set: 6-31G*
  Basis Set:
  @DF-RHF Final Energy:  -232.13769631065728
    Total Energy =                       -232.1376963106573612
  Basis Set: 6-31G*
  Basis Set:
  Basis Set: 6-31G*
  Basis Set:
  @DF-RHF Final Energy:  -232.13770610103967
    Total Energy =                       -232.1377061010394982
  Basis Set: 6-31G*
  Basis Set:
  Charge       = 0
  Multiplicity = 1
  Basis Set: 6-31G*
  Basis Set:

    Orbital Energies (a.u.)
    -----------------------

    Doubly Occupied:

       1A    -20.548299     2A    -11.274313     3A    -11.261083
       4A    -11.211170     5A    -11.209899     6A     -1.370411
       7A     -1.050452     8A     -0.939852     9A     -0.931043
      10A     -0.781263    11A     -0.674330    12A     -0.640456
      13A     -0.633311    14A     -0.572680    15A     -0.565033
      16A     -0.552702    17A     -0.534265    18A     -0.498025
      19A     -0.496594    20A     -0.443131    21A     -0.406417

  @DF-RHF Final Energy:  -232.13770660448509

   => Energetics <=

    Nuclear Repulsion Energy =            198.7933717517941261
    One-Electron Energy =                -708.6727018113974736
    Two-Electron Energy =                 277.7416234551180878
    DFT Exchange-Correlation Energy =       0.0000000000000000
    Empirical Dispersion Energy =           0.0000000000000000
    PCM Polarization Energy =               0.0000000000000000
    EFP Energy =                            0.0000000000000000
    Total Energy =                       -232.1377066044852882
    Molecular point group: c1
  Basis Set: 6-31G*
  Basis Set:

  -Total Gradient:
     Atom            X                  Y                   Z
    ------   -----------------  -----------------  -----------------
       1        0.000042602436    -0.000503439238    -0.000014084925
       2        0.000132343738     0.000702934606     0.000160442971
       3       -0.000492115621    -0.000321815723    -0.000387693280
       4        0.000003499630    -0.000022516922    -0.000039068008
       5       -0.000007171372     0.000000922749     0.000009465627
       6        0.000339080441     0.000171423675     0.000213786137
       7       -0.000004800264    -0.000012934307     0.000035634337
       8       -0.000019465659    -0.000006304230    -0.000003820610
       9        0.000008823339     0.000004972863    -0.000007660064
      10       -0.000010324931    -0.000005794305     0.000017625848
      11        0.000012838660    -0.000018991814     0.000011090106
      12       -0.000003645409     0.000012979935    -0.000005586871
      13       -0.000012267945    -0.000003105303     0.000016030025
      14        0.000006752108    -0.000006608124     0.000001642592
      15        0.000003850847     0.000008276140    -0.000007803886

  **** Optimization is complete! (in 6 steps) ****
    Final optimized geometry and variables:
    Molecular point group: c1

    Geometry (in Angstrom), charge = 0, multiplicity = 1:

    H           -1.646693503768    -1.056229203754     0.927157381895
    C           -0.624919269722    -0.998292852238     1.291589794979
    O            0.303219354504    -0.982871657398     0.250936187368
    H           -0.535690317163    -0.134854089590     1.943980894879
    H           -0.422698300018    -1.886642951013     1.874780301932
    C            0.381273398011     0.163331231607    -0.564327397967
    C           -0.939562232299     0.481686152491    -1.261562382411
    C            0.948778437387     1.367887418493     0.184324354579
    H            1.098790567807    -0.121925813887    -1.324464903508
    H           -1.335557154205    -0.405372275950    -1.744290692308
    H           -0.784640208147     1.241532315304    -2.021067293768
    H           -1.686822313518     0.858275475744    -0.570050390854
    H            1.860583497385     1.090944764644     0.701975529522
    H            1.182031139209     2.164680752055    -0.515249325319
    H            0.249699274424     1.767666808445     0.911788983730

  Mulliken Charges: (a.u.)
   Center  Symbol    Alpha    Beta     Spin     Total
       1     H     0.42831  0.42831  0.00000  0.14338
       2     C     3.08180  3.08180  0.00000 -0.16360
       3     O     4.31195  4.31195  0.00000 -0.62390
       4     H     0.43017  0.43017  0.00000  0.13967
       5     H     0.41273  0.41273  0.00000  0.17454
       6     C     2.90893  2.90893  0.00000  0.18214
       7     C     3.25480  3.25480  0.00000 -0.50961
       8     C     3.25158  3.25158  0.00000 -0.50315
       9     H     0.41523  0.41523  0.00000  0.16953
      10     H     0.41161  0.41161  0.00000  0.17677
      11     H     0.41870  0.41870  0.00000  0.16261
      12     H     0.42109  0.42109  0.00000  0.15783
      13     H     0.41130  0.41130  0.00000  0.17739
      14     H     0.42008  0.42008  0.00000  0.15984
      15     H     0.42172  0.42172  0.00000  0.15657

   Total alpha = 21.00000, Total beta = 21.00000, Total charge = -0.00000
