                              Psi4 1.0.54 Driver

  ==> Input File <==

--------------------------------------------------------------------------
set {
	reference rhf
	basis cc-pvtz
}

set_num_threads( 4 )
memory 2 gb

molecule MOL {
0 1

H	 -2.000709	 -2.192382	 -2.198793
O	 -1.792787	 -1.914364	 -1.319479
C	 -0.710234	 -1.143138	 -1.366617
C	 -0.310616	 -0.658853	 0.000791
O	 -0.157512	 -0.896338	 -2.382275
C	 0.926581	 0.227233	 0.000178
H	 -0.166523	 -1.537596	 0.621093
H	 -1.167447	 -0.140228	 0.418626
C	 2.220156	 -0.582071	 -0.000088
H	 0.899945	 0.878221	 -0.866390
H	 0.900542	 0.878581	 0.866486
C	 3.466689	 0.296012	 -0.000457
H	 2.239073	 -1.234095	 -0.869382
H	 2.239505	 -1.233985	 0.869270
H	 3.493549	 0.935857	 -0.875887
H	 4.368821	 -0.304526	 -0.001199
H	 3.494559	 0.935166	 0.875458

	symmetry c1
}
set optking {
	frozen_dihedral = ("
		7 4 6 10
	")
}

ee,wfn = optimize('scf', return_wfn=True)
oeprop( wfn, 'DIPOLE', 'QUADRUPOLE', 'MULLIKEN_CHARGES')
f=open( 'psi4out.xyz', 'w' )
f.write( "17  " )
f.write( str(ee) + "\n" )
f.write( MOL.save_string_xyz() )
f.close()
--------------------------------------------------------------------------

    Molecular point group: c1
  Charge       = 0
  Multiplicity = 1
  Basis Set: CC-PVTZ
  Basis Set:
  @DF-RHF Final Energy:  -345.04749604390014
    Total Energy =                       -345.0474960439000256
    Molecular point group: c1
  Basis Set: CC-PVTZ
  Basis Set:
  Basis Set: CC-PVTZ
  Basis Set:
  @DF-RHF Final Energy:  -345.04760466896761
    Total Energy =                       -345.0476046689674376
  Basis Set: CC-PVTZ
  Basis Set:
  Basis Set: CC-PVTZ
  Basis Set:
  @DF-RHF Final Energy:  -345.04648089606701
    Total Energy =                       -345.0464808960670666
  Basis Set: CC-PVTZ
  Basis Set:
  Basis Set: CC-PVTZ
  Basis Set:
  @DF-RHF Final Energy:  -345.04773978296583
    Total Energy =                       -345.0477397829658344
  Basis Set: CC-PVTZ
  Basis Set:
  Basis Set: CC-PVTZ
  Basis Set:
  @DF-RHF Final Energy:  -345.04775233900176
    Total Energy =                       -345.0477523390019883
  Basis Set: CC-PVTZ
  Basis Set:
  Basis Set: CC-PVTZ
  Basis Set:
  @DF-RHF Final Energy:  -345.04775872233614
    Total Energy =                       -345.0477587223361411
  Basis Set: CC-PVTZ
  Basis Set:
  Basis Set: CC-PVTZ
  Basis Set:
  @DF-RHF Final Energy:  -345.04776062733544
    Total Energy =                       -345.0477606273354922
  Basis Set: CC-PVTZ
  Basis Set:
  Charge       = 0
  Multiplicity = 1
  Basis Set: CC-PVTZ
  Basis Set:

    Orbital Energies (a.u.)
    -----------------------

    Doubly Occupied:

       1A    -20.604867     2A    -20.541571     3A    -11.374495
       4A    -11.239666     5A    -11.220753     6A    -11.215606
       7A    -11.207227     8A     -1.478662     9A     -1.370042
      10A     -1.090729    11A     -1.017063    12A     -0.913509
      13A     -0.827188    14A     -0.786464    15A     -0.705941
      16A     -0.696563    17A     -0.659285    18A     -0.628817
      19A     -0.588526    20A     -0.583980    21A     -0.581254
      22A     -0.529324    23A     -0.520851    24A     -0.488656
      25A     -0.479655    26A     -0.471183    27A     -0.466507
      28A     -0.446679

  @DF-RHF Final Energy:  -345.04776154389572

   => Energetics <=

    Nuclear Repulsion Energy =            310.3176228001102572
    One-Electron Energy =               -1085.2606413445919316
    Two-Electron Energy =                 429.8952570005860139
    DFT Exchange-Correlation Energy =       0.0000000000000000
    Empirical Dispersion Energy =           0.0000000000000000
    PCM Polarization Energy =               0.0000000000000000
    EFP Energy =                            0.0000000000000000
    Total Energy =                       -345.0477615438956605
    Molecular point group: c1
  Basis Set: CC-PVTZ
  Basis Set:

  -Total Gradient:
     Atom            X                  Y                   Z
    ------   -----------------  -----------------  -----------------
       1        0.000012370345     0.000009077962     0.000021718414
       2        0.000031116707     0.000052939846     0.000016515892
       3        0.000008046501    -0.000073689419    -0.000129773531
       4       -0.000795198488     0.001112271977     0.002061195321
       5       -0.000028381545     0.000005728898     0.000086347683
       6       -0.001162656554     0.001654986607     0.001010604532
       7        0.000834251027    -0.001164906145    -0.001857423854
       8       -0.000001577194     0.000006100618     0.000017487913
       9        0.000033093900    -0.000039691771     0.000020641360
      10        0.001117873530    -0.001588961407    -0.001222313004
      11       -0.000007065775    -0.000009106082    -0.000017248222
      12       -0.000030468972     0.000045837472     0.000004852569
      13       -0.000011029478     0.000017351412     0.000029472456
      14       -0.000003727661     0.000015066460    -0.000035813025
      15        0.000005894663    -0.000020512445     0.000028689041
      16       -0.000000836752     0.000003119560    -0.000000571951
      17       -0.000001704254    -0.000025613545    -0.000034381594

  **** Optimization is complete! (in 8 steps) ****
    Final optimized geometry and variables:
    Molecular point group: c1

    Geometry (in Angstrom), charge = 0, multiplicity = 1:

    H           -2.470786690741    -1.506756688585    -1.466402229812
    O           -2.260142220343    -1.244035843146    -0.583035204213
    C           -1.207650054152    -0.432535533390    -0.625079043504
    C           -0.820239294404     0.044597915028     0.751376505844
    O           -0.679337981897    -0.141959948906    -1.642433936769
    C            0.442779689192     0.900525164045     0.776447327814
    H           -0.711761465945    -0.843080659107     1.365155902913
    H           -1.677084700582     0.582877105748     1.141002454750
    C            1.730388754951     0.078375783222     0.766666240158
    H            0.441854317635     1.556246625351    -0.085257873006
    H            0.423378117705     1.525346207410     1.663050472270
    C            2.983187173041     0.946914834062     0.757970274342
    H            1.735556300968    -0.568310753952    -0.104257547333
    H            1.747834406943    -0.571062036289     1.638204289301
    H            3.013147949963     1.577750891230    -0.123578935285
    H            3.880569539867     0.339277867038     0.760543857731
    H            3.018864258686     1.593218630550     1.628936514502

  Mulliken Charges: (a.u.)
   Center  Symbol    Alpha    Beta     Spin     Total
       1     H     0.38240  0.38240  0.00000  0.23521
       2     O     4.15949  4.15949  0.00000 -0.31898
       3     C     2.80278  2.80278  0.00000  0.39443
       4     C     3.11848  3.11848  0.00000 -0.23695
       5     O     4.19304  4.19304  0.00000 -0.38607
       6     C     3.09178  3.09178  0.00000 -0.18357
       7     H     0.43764  0.43764  0.00000  0.12473
       8     H     0.42932  0.42932  0.00000  0.14136
       9     C     3.08349  3.08349  0.00000 -0.16698
      10     H     0.44375  0.44375  0.00000  0.11250
      11     H     0.44577  0.44577  0.00000  0.10846
      12     C     3.15109  3.15109  0.00000 -0.30217
      13     H     0.44785  0.44785  0.00000  0.10431
      14     H     0.45681  0.45681  0.00000  0.08638
      15     H     0.45163  0.45163  0.00000  0.09674
      16     H     0.44815  0.44815  0.00000  0.10369
      17     H     0.45653  0.45653  0.00000  0.08693

   Total alpha = 28.00000, Total beta = 28.00000, Total charge = -0.00000

*** Psi4 exiting successfully. Buy a developer a beer!
