                              Psi4 1.0.54 Driver

  ==> Input File <==

--------------------------------------------------------------------------
set {
	reference rhf
	basis cc-pvtz
}

set_num_threads( 4 )
memory 2 gb

molecule MOL {
0 1

H	 -0.000105	 1.988529	 0.748933
O	 -0.000098	 1.879786	 -0.188206
C	 -0.000014	 0.545691	 -0.532416
C	 -1.286000	 -0.125171	 -0.046657
C	 1.286016	 -0.125031	 -0.046584
H	 0.000021	 0.481103	 -1.610604
F	 -1.745125	 -0.913638	 -0.987074
F	 -1.094692	 -0.849226	 1.027055
F	 -2.218791	 0.763933	 0.219371
F	 2.317750	 0.468717	 -0.594166
F	 1.336617	 -1.393765	 -0.365123
F	 1.414467	 -0.024806	 1.259108

	symmetry c1
}
set optking {
	frozen_dihedral = ("
		7 4 3 6
	")
}

ee,wfn = optimize('scf', return_wfn=True)
oeprop( wfn, 'DIPOLE', 'QUADRUPOLE', 'MULLIKEN_CHARGES')
f=open( 'psi4out.xyz', 'w' )
f.write( "12  " )
f.write( str(ee) + "\n" )
f.write( MOL.save_string_xyz() )
f.close()
--------------------------------------------------------------------------

    Molecular point group: c1
  Charge       = 0
  Multiplicity = 1
  Basis Set: CC-PVTZ
  Basis Set:
  @DF-RHF Final Energy:  -786.58360137260422
    Total Energy =                       -786.5836013726043348
    Molecular point group: c1
  Basis Set: CC-PVTZ
  Basis Set:
  Basis Set: CC-PVTZ
  Basis Set:
  @DF-RHF Final Energy:  -786.58479270781379
    Total Energy =                       -786.5847927078141311
  Basis Set: CC-PVTZ
  Basis Set:
  Basis Set: CC-PVTZ
  Basis Set:
  @DF-RHF Final Energy:  -786.58521336605099
    Total Energy =                       -786.5852133660511072
  Basis Set: CC-PVTZ
  Basis Set:
  Basis Set: CC-PVTZ
  Basis Set:
  @DF-RHF Final Energy:  -786.58525327718678
    Total Energy =                       -786.5852532771873484
  Basis Set: CC-PVTZ
  Basis Set:
  Basis Set: CC-PVTZ
  Basis Set:
  @DF-RHF Final Energy:  -786.58528784675559
    Total Energy =                       -786.5852878467555911
  Basis Set: CC-PVTZ
  Basis Set:
  Basis Set: CC-PVTZ
  Basis Set:
  @DF-RHF Final Energy:  -786.58529658694431
    Total Energy =                       -786.5852965869444233
  Basis Set: CC-PVTZ
  Basis Set:
  Basis Set: CC-PVTZ
  Basis Set:
  @DF-RHF Final Energy:  -786.58529777331921
    Total Energy =                       -786.5852977733188709
  Basis Set: CC-PVTZ
  Basis Set:
  Charge       = 0
  Multiplicity = 1
  Basis Set: CC-PVTZ
  Basis Set:

    Orbital Energies (a.u.)
    -----------------------

    Doubly Occupied:

       1A    -26.358027     2A    -26.357726     3A    -26.356773
       4A    -26.354869     5A    -26.353631     6A    -26.353538
       7A    -20.610580     8A    -11.519973     9A    -11.518506
      10A    -11.351580    11A     -1.771515    12A     -1.765522
      13A     -1.665762    14A     -1.664628    15A     -1.661565
      16A     -1.660055    17A     -1.440527    18A     -1.102356
      19A     -1.000171    20A     -0.944158    21A     -0.871064
      22A     -0.867273    23A     -0.857509    24A     -0.853126
      25A     -0.840036    26A     -0.819860    27A     -0.742154
      28A     -0.736341    29A     -0.734228    30A     -0.729199
      31A     -0.695355    32A     -0.691416    33A     -0.689984
      34A     -0.682744    35A     -0.676034    36A     -0.667469
      37A     -0.663587    38A     -0.656765    39A     -0.622946
      40A     -0.551658    41A     -0.509728

  @DF-RHF Final Energy:  -786.58529788460760

   => Energetics <=

    Nuclear Repulsion Energy =            670.6940555306080114
    One-Electron Energy =               -2428.6188282101320510
    Two-Electron Energy =                 971.3394747949166685
    DFT Exchange-Correlation Energy =       0.0000000000000000
    Empirical Dispersion Energy =           0.0000000000000000
    PCM Polarization Energy =               0.0000000000000000
    EFP Energy =                            0.0000000000000000
    Total Energy =                       -786.5852978846073711
    Molecular point group: c1
  Basis Set: CC-PVTZ
  Basis Set:

  -Total Gradient:
     Atom            X                  Y                   Z
    ------   -----------------  -----------------  -----------------
       1       -0.000003686240     0.000003559181    -0.000001684160
       2        0.000002183918     0.000006574532     0.000016969077
       3       -0.003457117620     0.005465565616    -0.000773386093
       4        0.003261751346    -0.004410078207     0.001896594391
       5       -0.000012305079     0.000022973840     0.000035290364
       6        0.002353825044    -0.003878829574     0.000279295658
       7       -0.002139181828     0.002782561276    -0.001456957829
       8       -0.000014862174     0.000021446930    -0.000004298372
       9        0.000000815230     0.000017795922     0.000031159350
      10       -0.000014372677    -0.000019308704     0.000007551147
      11        0.000011625658    -0.000018911473    -0.000019373806
      12        0.000011324414     0.000006650658    -0.000011159727

  **** Optimization is complete! (in 8 steps) ****
    Final optimized geometry and variables:
    Molecular point group: c1

    Geometry (in Angstrom), charge = 0, multiplicity = 1:

    H            0.001313512766     2.029366293584     0.799559567444
    O            0.008335173644     1.926534727339    -0.137786848095
    C            0.000073655123     0.602166568411    -0.501394244246
    C           -1.277761187149    -0.146856544701    -0.057685605560
    C            1.277906061029    -0.091076572508    -0.027808933357
    H            0.029671005257     0.542145633544    -1.578478867160
    F           -1.680256763080    -0.956852911061    -1.008917700128
    F           -1.112973264105    -0.852509626493     1.036718272913
    F           -2.246164041247     0.705795303158     0.169611771647
    F            2.314217546608     0.429916850135    -0.637525052518
    F            1.254015019485    -1.374325415844    -0.297041969578
    F            1.462362356974     0.059535322510     1.265176349743

  Mulliken Charges: (a.u.)
   Center  Symbol    Alpha    Beta     Spin     Total
       1     H     0.38376  0.38376  0.00000  0.23248
       2     O     4.18271  4.18271  0.00000 -0.36541
       3     C     3.01411  3.01411  0.00000 -0.02823
       4     C     2.67835  2.67835  0.00000  0.64331
       5     C     2.68006  2.68006  0.00000  0.63988
       6     H     0.42834  0.42834  0.00000  0.14333
       7     F     4.60637  4.60637  0.00000 -0.21275
       8     F     4.60480  4.60480  0.00000 -0.20960
       9     F     4.60232  4.60232  0.00000 -0.20465
      10     F     4.60232  4.60232  0.00000 -0.20465
      11     F     4.60588  4.60588  0.00000 -0.21175
      12     F     4.61097  4.61097  0.00000 -0.22195

   Total alpha = 41.00000, Total beta = 41.00000, Total charge = -0.00000

*** Psi4 exiting successfully. Buy a developer a beer!
