  ==> Input File <==

--------------------------------------------------------------------------
set {
	reference rhf
	basis 6-31G*
}

set_num_threads( 1 )
memory 2 gb

molecule MOL {
0 1

H	 -3.261111	 -0.295142	 1.469456
C	 -3.306842	 -0.277400	 0.373456
C	 -2.660244	 0.921717	 -0.272021
O	 -3.838538	 -1.161155	 -0.216482
C	 -1.220012	 1.144545	 0.209990
H	 -2.705793	 0.797307	 -1.347733
H	 -3.263782	 1.790044	 -0.010477
C	 -0.252658	 0.041456	 -0.226725
H	 -0.873521	 2.100229	 -0.171974
H	 -1.211708	 1.231594	 1.295398
C	 1.180775	 0.282413	 0.250794
H	 -0.266029	 -0.034465	 -1.312038
H	 -0.597733	 -0.921000	 0.146291
C	 2.148627	 -0.814315	 -0.201312
H	 1.516199	 1.249228	 -0.115937
H	 1.192670	 0.346017	 1.338083
C	 3.580890	 -0.659131	 0.322722
H	 2.166869	 -0.852443	 -1.289387
H	 1.762857	 -1.776509	 0.128956
C	 4.214864	 0.705004	 0.045532
H	 4.198327	 -1.428846	 -0.133632
H	 3.595929	 -0.854089	 1.393089
H	 4.198911	 0.934058	 -1.016800
H	 3.699079	 1.505995	 0.564523
H	 5.250687	 0.721337	 0.370798

	symmetry c1
}
set optking {
	frozen_dihedral = ("
		6 3 5 8,
		6 3 2 4,
		3 5 8 12,
		12 8 11 14,
		8 11 14 18
	")
}

ee = energy('scf')
oeprop('DIPOLE', 'QUADRUPOLE', 'MULLIKEN_CHARGES')
f=open( 'psi4out.xyz', 'w' )
f.write( "25  " )
f.write( str(ee) + "\n" )
f.write( MOL.save_string_xyz() )
f.close()
--------------------------------------------------------------------------

    Molecular point group: c1

    Geometry (in Angstrom), charge = 0, multiplicity = 1:

       Center              X                  Y                   Z               Mass
    ------------   -----------------  -----------------  -----------------  -----------------
           H         -3.248233111198    -0.311591600809     1.439129170747     1.007825032070
           C         -3.293964111198    -0.293849600809     0.343129170747    12.000000000000
           C         -2.647366111198     0.905267399191    -0.302347829253    12.000000000000
           O         -3.825660111198    -1.177604600809    -0.246808829253    15.994914619560
           C         -1.207134111198     1.128095399191     0.179663170747    12.000000000000
           H         -2.692915111198     0.780857399191    -1.378059829253     1.007825032070
           H         -3.250904111198     1.773594399191    -0.040803829253     1.007825032070
           C         -0.239780111198     0.025006399191    -0.257051829253    12.000000000000
           H         -0.860643111198     2.083779399191    -0.202300829253     1.007825032070
           H         -1.198830111198     1.215144399191     1.265071170747     1.007825032070
           C          1.193652888802     0.265963399191     0.220467170747    12.000000000000
           H         -0.253151111198    -0.050914600809    -1.342364829253     1.007825032070
           H         -0.584855111198    -0.937449600809     0.115964170747     1.007825032070
           C          2.161504888802    -0.830764600809    -0.231638829253    12.000000000000
           H          1.529076888802     1.232778399191    -0.146263829253     1.007825032070
           H          1.205547888802     0.329567399191     1.307756170747     1.007825032070
           C          3.593767888802    -0.675580600809     0.292395170747    12.000000000000
           H          2.179746888802    -0.868892600809    -1.319713829253     1.007825032070
           H          1.775734888802    -1.792958600809     0.098629170747     1.007825032070
           C          4.227741888802     0.688554399191     0.015205170747    12.000000000000
           H          4.211204888802    -1.445295600809    -0.163958829253     1.007825032070
           H          3.608806888802    -0.870538600809     1.362762170747     1.007825032070
           H          4.211788888802     0.917608399191    -1.047126829253     1.007825032070
           H          3.711956888802     1.489545399191     0.534196170747     1.007825032070
           H          5.263564888802     0.704887399191     0.340471170747     1.007825032070

  Charge       = 0
  Multiplicity = 1
  Basis Set: 6-31G*
  Basis Set:

    Orbital Energies (a.u.)
    -----------------------

    Doubly Occupied:

       1A    -20.561986     2A    -11.326134     3A    -11.235306
       4A    -11.234618     5A    -11.223875     6A    -11.219722
       7A    -11.218044     8A    -11.217004     9A    -11.210726
      10A     -1.401965    11A     -1.104130    12A     -1.069998
      13A     -1.012849    14A     -0.942076    15A     -0.876817
      16A     -0.821782    17A     -0.787966    18A     -0.778585
      19A     -0.664602    20A     -0.662298    21A     -0.634547
      22A     -0.625650    23A     -0.601074    24A     -0.594229
      25A     -0.575618    26A     -0.549869    27A     -0.536675
      28A     -0.523986    29A     -0.509397    30A     -0.494955
      31A     -0.491484    32A     -0.479728    33A     -0.462313
      34A     -0.459450    35A     -0.441660    36A     -0.409533

  @DF-RHF Final Energy:  -387.12134879537012

   => Energetics <=

    Nuclear Repulsion Energy =            440.0548552228205494
    One-Electron Energy =               -1396.4310941582673422
    Two-Electron Energy =                 569.2548901400745081
    DFT Exchange-Correlation Energy =       0.0000000000000000
    Empirical Dispersion Energy =           0.0000000000000000
    PCM Polarization Energy =               0.0000000000000000
    EFP Energy =                            0.0000000000000000
    Total Energy =                       -387.1213487953722279

  Mulliken Charges: (a.u.)
   Center  Symbol    Alpha    Beta     Spin     Total
       1     H     0.43261  0.43261  0.00000  0.13478
       2     C     2.83084  2.83084  0.00000  0.33833
       3     C     3.20813  3.20813  0.00000 -0.41626
       4     O     4.23776  4.23776  0.00000 -0.47552
       5     C     3.16654  3.16654  0.00000 -0.33309
       6     H     0.39969  0.39969  0.00000  0.20062
       7     H     0.40670  0.40670  0.00000  0.18661
       8     C     3.15459  3.15459  0.00000 -0.30919
       9     H     0.41287  0.41287  0.00000  0.17426
      10     H     0.41966  0.41966  0.00000  0.16069
      11     C     3.15548  3.15548  0.00000 -0.31095
      12     H     0.41802  0.41802  0.00000  0.16397
      13     H     0.41850  0.41850  0.00000  0.16299
      14     C     3.15283  3.15283  0.00000 -0.30567
      15     H     0.41995  0.41995  0.00000  0.16010
      16     H     0.42394  0.42394  0.00000  0.15211
      17     C     3.15199  3.15199  0.00000 -0.30398
      18     H     0.42295  0.42295  0.00000  0.15411
      19     H     0.42055  0.42055  0.00000  0.15889
      20     C     3.24278  3.24278  0.00000 -0.48557
      21     H     0.41997  0.41997  0.00000  0.16006
      22     H     0.42298  0.42298  0.00000  0.15404
      23     H     0.42219  0.42219  0.00000  0.15561
      24     H     0.41995  0.41995  0.00000  0.16010
      25     H     0.41852  0.41852  0.00000  0.16296

   Total alpha = 36.00000, Total beta = 36.00000, Total charge =  0.00000
