  ==> Input File <==

--------------------------------------------------------------------------
set {
	reference rhf
	basis 6-31G*
}

set_num_threads( 1 )
memory 2 gb

molecule MOL {
0 1

H	 -1.900197	 -0.878748	 -1.162818
O	 -2.310168	 -0.871793	 -0.309793
C	 -2.026376	 0.340750	 0.341611
C	 -0.673256	 0.843270	 -0.132153
H	 -2.792215	 1.080697	 0.115987
H	 -2.013526	 0.200402	 1.421792
C	 0.486613	 -0.083066	 0.235839
H	 -0.715586	 0.970948	 -1.210718
H	 -0.508072	 1.829858	 0.297090
C	 1.840406	 0.433480	 -0.254303
H	 0.300215	 -1.068318	 -0.178947
H	 0.519509	 -0.203625	 1.318070
C	 3.000220	 -0.489290	 0.118523
H	 1.809207	 0.553576	 -1.335192
H	 2.021860	 1.424500	 0.157276
H	 2.864959	 -1.479103	 -0.307933
H	 3.946603	 -0.099227	 -0.243630
H	 3.080049	 -0.602997	 1.196117

	symmetry c1
}
set optking {
	frozen_dihedral = ("
		14 10 7 11,
		10 7 4 8,
		2 3 4 8
	")
}

ee = energy('scf')
oeprop('DIPOLE', 'QUADRUPOLE', 'MULLIKEN_CHARGES')
f=open( 'psi4out.xyz', 'w' )
f.write( "18  " )
f.write( str(ee) + "\n" )
f.write( MOL.save_string_xyz() )
f.close()
--------------------------------------------------------------------------

    Molecular point group: c1

    Geometry (in Angstrom), charge = 0, multiplicity = 1:

       Center              X                  Y                   Z               Mass
    ------------   -----------------  -----------------  -----------------  -----------------
           H         -1.914329276636    -0.882595909237    -1.149498606704     1.007825032070
           O         -2.324300276636    -0.875640909237    -0.296473606704    15.994914619560
           C         -2.040508276636     0.336902090763     0.354930393296    12.000000000000
           C         -0.687388276636     0.839422090763    -0.118833606704    12.000000000000
           H         -2.806347276636     1.076849090763     0.129306393296     1.007825032070
           H         -2.027658276636     0.196554090763     1.435111393296     1.007825032070
           C          0.472480723364    -0.086913909237     0.249158393296    12.000000000000
           H         -0.729718276636     0.967100090763    -1.197398606704     1.007825032070
           H         -0.522204276636     1.826010090763     0.310409393296     1.007825032070
           C          1.826273723364     0.429632090763    -0.240983606704    12.000000000000
           H          0.286082723364    -1.072165909237    -0.165627606704     1.007825032070
           H          0.505376723364    -0.207472909237     1.331389393296     1.007825032070
           C          2.986087723364    -0.493137909237     0.131842393296    12.000000000000
           H          1.795074723364     0.549728090763    -1.321872606704     1.007825032070
           H          2.007727723364     1.420652090763     0.170595393296     1.007825032070
           H          2.850826723364    -1.482950909237    -0.294613606704     1.007825032070
           H          3.932470723364    -0.103074909237    -0.230310606704     1.007825032070
           H          3.065916723364    -0.606844909237     1.209436393296     1.007825032070

  Charge       = 0
  Multiplicity = 1
  Basis Set: 6-31G*
  Basis Set:

    Orbital Energies (a.u.)
    -----------------------

    Doubly Occupied:

       1A    -20.550359     2A    -11.268519     3A    -11.221443
       4A    -11.219204     5A    -11.217525     6A    -11.210996
       7A     -1.359762     8A     -1.083138     9A     -1.013449
      10A     -0.920151    11A     -0.833497    12A     -0.796453
      13A     -0.665495    14A     -0.657136    15A     -0.632372
      16A     -0.613985    17A     -0.575287    18A     -0.558405
      19A     -0.541004    20A     -0.498779    21A     -0.486322
      22A     -0.478321    23A     -0.469025    24A     -0.456293
      25A     -0.426008

  @DF-RHF Final Energy:  -271.17623095283579

   => Energetics <=

    Nuclear Repulsion Energy =            250.2086478194459005
    One-Electron Energy =                -863.2636792645741934
    Two-Electron Energy =                 341.8788004922922141
    DFT Exchange-Correlation Energy =       0.0000000000000000
    Empirical Dispersion Energy =           0.0000000000000000
    PCM Polarization Energy =               0.0000000000000000
    EFP Energy =                            0.0000000000000000
    Total Energy =                       -271.1762309528360788

  Mulliken Charges: (a.u.)
   Center  Symbol    Alpha    Beta     Spin     Total
       1     H     0.28040  0.28040  0.00000  0.43920
       2     O     4.37287  4.37287  0.00000 -0.74574
       3     C     2.98155  2.98155  0.00000  0.03690
       4     C     3.18559  3.18559  0.00000 -0.37118
       5     H     0.42649  0.42649  0.00000  0.14702
       6     H     0.41950  0.41950  0.00000  0.16100
       7     C     3.14995  3.14995  0.00000 -0.29991
       8     H     0.42617  0.42617  0.00000  0.14766
       9     H     0.41974  0.41974  0.00000  0.16052
      10     C     3.15138  3.15138  0.00000 -0.30277
      11     H     0.41792  0.41792  0.00000  0.16416
      12     H     0.42131  0.42131  0.00000  0.15739
      13     C     3.23919  3.23919  0.00000 -0.47838
      14     H     0.42424  0.42424  0.00000  0.15152
      15     H     0.42277  0.42277  0.00000  0.15446
      16     H     0.42107  0.42107  0.00000  0.15786
      17     H     0.41899  0.41899  0.00000  0.16203
      18     H     0.42087  0.42087  0.00000  0.15825

   Total alpha = 25.00000, Total beta = 25.00000, Total charge = -0.00000
