  ==> Input File <==

--------------------------------------------------------------------------
set {
	reference rhf
	basis 6-31G*
}

set_num_threads( 4 )
memory 2 gb

molecule MOL {
0 1

H	 2.845955	 -0.323208	 0.022310
C	 1.900140	 0.071967	 -0.330070
C	 0.778463	 -0.508087	 0.517968
H	 1.782469	 -0.206877	 -1.370777
H	 1.922247	 1.149867	 -0.254252
N	 -0.540928	 0.005139	 0.058438
H	 0.716718	 -1.581298	 0.454712
H	 0.859711	 -0.198647	 1.550086
O	 -1.030338	 -0.506713	 -0.899560
O	 -1.020759	 0.899149	 0.686935

	symmetry c1
}
set optking {
	frozen_dihedral = ("
		9 6 3 2
	")
}

ee = optimize('scf')
oeprop('DIPOLE', 'QUADRUPOLE', 'MULLIKEN_CHARGES')
f=open( 'psi4out.xyz', 'w' )
f.write( "10  " )
f.write( str(ee) + "\n" )
f.write( MOL.save_string_xyz() )
f.close()
--------------------------------------------------------------------------

    Molecular point group: c1
  Charge       = 0
  Multiplicity = 1
  Basis Set: 6-31G*
  Basis Set:
  @DF-RHF Final Energy:  -282.70019534901382
    Total Energy =                       -282.7001953490138249
    Molecular point group: c1
  Basis Set: 6-31G*
  Basis Set:
  Basis Set: 6-31G*
  Basis Set:
  @DF-RHF Final Energy:  -282.69637761478145
    Total Energy =                       -282.6963776147814542
  Basis Set: 6-31G*
  Basis Set:
  Basis Set: 6-31G*
  Basis Set:
  @DF-RHF Final Energy:  -282.70027737203657
    Total Energy =                       -282.7002773720365099
  Basis Set: 6-31G*
  Basis Set:
  Basis Set: 6-31G*
  Basis Set:
  @DF-RHF Final Energy:  -282.70045943298396
    Total Energy =                       -282.7004594329839620
  Basis Set: 6-31G*
  Basis Set:
  Charge       = 0
  Multiplicity = 1
  Basis Set: 6-31G*
  Basis Set:

    Orbital Energies (a.u.)
    -----------------------

    Doubly Occupied:

       1A    -20.602978     2A    -20.600998     3A    -15.848451
       4A    -11.303654     5A    -11.253880     6A     -1.632093
       7A     -1.417693     8A     -1.128152     9A     -0.967462
      10A     -0.838174    11A     -0.760333    12A     -0.735245
      13A     -0.725597    14A     -0.659138    15A     -0.590725
      16A     -0.560994    17A     -0.550165    18A     -0.485028
      19A     -0.477863    20A     -0.449521

  @DF-RHF Final Energy:  -282.70046033260803

   => Energetics <=

    Nuclear Repulsion Energy =            186.2885479095326389
    One-Electron Energy =                -754.8017297117906992
    Two-Electron Energy =                 285.8127214696498868
    DFT Exchange-Correlation Energy =       0.0000000000000000
    Empirical Dispersion Energy =           0.0000000000000000
    PCM Polarization Energy =               0.0000000000000000
    EFP Energy =                            0.0000000000000000
    Total Energy =                       -282.7004603326081451
    Molecular point group: c1
  Basis Set: 6-31G*
  Basis Set:

  -Total Gradient:
     Atom            X                  Y                   Z
    ------   -----------------  -----------------  -----------------
       1        0.000004730701    -0.000001553016     0.000002558678
       2       -0.000036388311     0.000037824066     0.000073377686
       3        0.000057722788    -0.000019812985    -0.000024421643
       4        0.000007991517     0.000010416365    -0.000032769570
       5        0.000002691709    -0.000026420796     0.000003365494
       6        0.000099118284    -0.000155693145    -0.000230060485
       7       -0.000028938977     0.000046773268     0.000000980317
       8        0.000016380415     0.000000062988     0.000064470887
       9       -0.000090796377     0.000092935300     0.000163485856
      10       -0.000032511742     0.000015467956    -0.000020987216

  **** Optimization is complete! (in 5 steps) ****
    Final optimized geometry and variables:
    Molecular point group: c1

    Geometry (in Angstrom), charge = 0, multiplicity = 1:

    H            2.836223253607    -0.312340849389     0.019655028563
    C            1.882738278191     0.068043237070    -0.327299698458
    C            0.770924164832    -0.517737653098     0.533640803407
    H            1.753419133489    -0.214424318789    -1.364044656825
    H            1.896941616996     1.148638693920    -0.252344554986
    N           -0.539806510351     0.004200158689     0.064997738945
    H            0.712509477049    -1.590396455457     0.439229374661
    H            0.857035745043    -0.226927570961     1.567441564782
    O           -1.016791928969    -0.515865136103    -0.896834012344
    O           -1.009112445643     0.924890314052     0.659295643256

  Mulliken Charges: (a.u.)
   Center  Symbol    Alpha    Beta     Spin     Total
       1     H     0.40417  0.40417  0.00000  0.19165
       2     C     3.25801  3.25801  0.00000 -0.51601
       3     C     3.08945  3.08945  0.00000 -0.17891
       4     H     0.39563  0.39563  0.00000  0.20875
       5     H     0.39919  0.39919  0.00000  0.20161
       6     N     3.22022  3.22022  0.00000  0.55955
       7     H     0.38769  0.38769  0.00000  0.22462
       8     H     0.38677  0.38677  0.00000  0.22646
       9     O     4.23030  4.23030  0.00000 -0.46059
      10     O     4.22857  4.22857  0.00000 -0.45713

   Total alpha = 20.00000, Total beta = 20.00000, Total charge = -0.00000
