                              Psi4 1.0.54 Driver

  ==> Input File <==

--------------------------------------------------------------------------
set {
	reference rhf
	basis cc-pvtz
}

set_num_threads( 4 )
memory 2 gb

molecule MOL {
0 1

H	 -3.258660	 -0.290394	 1.471450
C	 -3.307964	 -0.275695	 0.374072
C	 -2.653809	 0.914422	 -0.273689
O	 -3.855140	 -1.148880	 -0.205112
C	 -1.216901	 1.136108	 0.207794
H	 -2.700131	 0.790676	 -1.347875
H	 -3.256452	 1.781007	 -0.010713
C	 -0.247837	 0.040196	 -0.230469
H	 -0.872882	 2.093195	 -0.169002
H	 -1.209325	 1.218376	 1.291938
C	 1.181757	 0.280428	 0.247371
H	 -0.259600	 -0.030819	 -1.314870
H	 -0.591284	 -0.923375	 0.136958
C	 2.151032	 -0.811012	 -0.202643
H	 1.515939	 1.247397	 -0.115449
H	 1.191514	 0.341223	 1.333422
C	 3.580021	 -0.656538	 0.320835
H	 2.170545	 -0.847575	 -1.289412
H	 1.766632	 -1.772905	 0.124928
C	 3.729612	 -0.830995	 1.830230
H	 3.939087	 0.330943	 0.048172
H	 4.227348	 -1.364737	 -0.189780
H	 3.088328	 -0.139539	 2.367482
H	 3.475704	 -1.834313	 2.150496
H	 4.750913	 -0.640439	 2.139417

	symmetry c1
}
set optking {
	frozen_dihedral = ("
		20 17 14 18
	")
}

ee,wfn = optimize('scf', return_wfn=True)
oeprop( wfn, 'DIPOLE', 'QUADRUPOLE', 'MULLIKEN_CHARGES')
f=open( 'psi4out.xyz', 'w' )
f.write( "25  " )
f.write( str(ee) + "\n" )
f.write( MOL.save_string_xyz() )
f.close()
--------------------------------------------------------------------------

    Molecular point group: c1
  Charge       = 0
  Multiplicity = 1
  Basis Set: CC-PVTZ
  Basis Set:
  @DF-RHF Final Energy:  -387.25983455831346
    Total Energy =                       -387.2598345583135142
    Molecular point group: c1
  Basis Set: CC-PVTZ
  Basis Set:
  Basis Set: CC-PVTZ
  Basis Set:
  @DF-RHF Final Energy:  -387.26029658793755
    Total Energy =                       -387.2602965879375461
  Basis Set: CC-PVTZ
  Basis Set:
  Basis Set: CC-PVTZ
  Basis Set:
  @DF-RHF Final Energy:  -387.26039605717955
    Total Energy =                       -387.2603960571794914
  Basis Set: CC-PVTZ
  Basis Set:
  Basis Set: CC-PVTZ
  Basis Set:
  @DF-RHF Final Energy:  -387.26035435400462
    Total Energy =                       -387.2603543540047895
  Basis Set: CC-PVTZ
  Basis Set:
  Basis Set: CC-PVTZ
  Basis Set:
  @DF-RHF Final Energy:  -387.26039926001846
    Total Energy =                       -387.2603992600184029
  Basis Set: CC-PVTZ
  Basis Set:
  Charge       = 0
  Multiplicity = 1
  Basis Set: CC-PVTZ
  Basis Set:

    Orbital Energies (a.u.)
    -----------------------

    Doubly Occupied:

       1A    -20.551363     2A    -11.320975     3A    -11.233797
       4A    -11.232848     5A    -11.221727     6A    -11.217751
       7A    -11.216252     8A    -11.215026     9A    -11.208805
      10A     -1.406370    11A     -1.105358    12A     -1.070993
      13A     -1.014692    14A     -0.943562    15A     -0.875759
      16A     -0.820811    17A     -0.788713    18A     -0.782419
      19A     -0.667703    20A     -0.664065    21A     -0.633425
      22A     -0.626280    23A     -0.610739    24A     -0.592007
      25A     -0.567471    26A     -0.564257    27A     -0.528457
      28A     -0.522859    29A     -0.518367    30A     -0.499184
      31A     -0.487693    32A     -0.480930    33A     -0.465289
      34A     -0.459264    35A     -0.442857    36A     -0.411865

  @DF-RHF Final Energy:  -387.26040001688659

   => Energetics <=

    Nuclear Repulsion Energy =            440.0418216110523417
    One-Electron Energy =               -1396.6645812044637296
    Two-Electron Energy =                 569.3623595765246819
    DFT Exchange-Correlation Energy =       0.0000000000000000
    Empirical Dispersion Energy =           0.0000000000000000
    PCM Polarization Energy =               0.0000000000000000
    EFP Energy =                            0.0000000000000000
    Total Energy =                       -387.2604000168867060
    Molecular point group: c1
  Basis Set: CC-PVTZ
  Basis Set:

  -Total Gradient:
     Atom            X                  Y                   Z
    ------   -----------------  -----------------  -----------------
       1       -0.000012159834     0.000004513500     0.000013602239
       2        0.000053294971     0.000001456368    -0.000001221177
       3       -0.000034411734    -0.000007844293     0.000016239290
       4       -0.000020522297    -0.000019292087    -0.000019221923
       5        0.000016724680     0.000001361181    -0.000021565297
       6       -0.000000078299     0.000012086818    -0.000006877557
       7       -0.000011862469    -0.000003272941     0.000012450562
       8        0.000004924909     0.000005820033    -0.000009371678
       9        0.000012731744    -0.000003655534    -0.000010560179
      10        0.000003947174     0.000013462031     0.000008420303
      11        0.000007230830     0.000002397512    -0.000040514725
      12        0.000004423173     0.000010502276     0.000005298731
      13       -0.000004148009     0.000000852492     0.000001073652
      14       -0.000063092907     0.000295098841     0.000023885569
      15       -0.000020972867     0.000017781523    -0.000006570137
      16        0.000024850026    -0.000015981991    -0.000002267469
      17       -0.000051798454     0.000305201580     0.000032961945
      18        0.000036700917    -0.000340385819     0.000041853439
      19       -0.000025757398    -0.000038565362    -0.000013398197
      20        0.000054943122    -0.000239046024    -0.000044971035
      21        0.000029651923     0.000003081510     0.000017402142
      22        0.000002639921     0.000001632433    -0.000006437328
      23       -0.000011006295     0.000011434949     0.000011136098
      24       -0.000008740061    -0.000022753718    -0.000004673074
      25        0.000012487233     0.000004114724     0.000003325807

  **** Optimization is complete! (in 6 steps) ****
    Final optimized geometry and variables:
    Molecular point group: c1

    Geometry (in Angstrom), charge = 0, multiplicity = 1:

    H           -3.257760192724    -0.140784782759     1.121917185973
    C           -3.262988032584    -0.106276246440     0.023856433039
    C           -2.570479052062     1.087251872864    -0.576050082985
    O           -3.796476488929    -0.962490872881    -0.592275898510
    C           -1.152523757161     1.285177935805    -0.032262180834
    H           -2.573811482126     0.982019512236    -1.653217253864
    H           -3.174735294391     1.955769455675    -0.323295168447
    C           -0.179066196952     0.182961620183    -0.444174511565
    H           -0.781593803722     2.242572881875    -0.381847693685
    H           -1.189435583518     1.353700133558     1.052223489564
    C            1.233053311748     0.401745113233     0.092145490840
    H           -0.149554604917     0.122659824388    -1.528778025235
    H           -0.546928067089    -0.780318557960    -0.100001081612
    C            2.205890664667    -0.699330143552    -0.325013652090
    H            1.605609839023     1.360526147519    -0.261484704414
    H            1.192429911855     0.470677698371     1.174819969271
    C            3.649669148429    -0.486996682676     0.134088246546
    H            2.196146475022    -0.780579704759    -1.408337392088
    H            1.848970176246    -1.655407380186     0.051066604595
    C            3.860131683353    -0.592991482432     1.642592247355
    H            3.998435596765     0.482195092455    -0.212701025684
    H            4.276609095634    -1.225821864959    -0.355305138123
    H            3.324572245596     0.178289249835     2.183209755101
    H            3.521769662984    -1.554459249547     2.015323653530
    H            4.910390876470    -0.494276707136     1.892071439008

  Mulliken Charges: (a.u.)
   Center  Symbol    Alpha    Beta     Spin     Total
       1     H     0.46416  0.46416  0.00000  0.07168
       2     C     2.90480  2.90480  0.00000  0.19040
       3     C     3.08920  3.08920  0.00000 -0.17840
       4     O     4.16627  4.16627  0.00000 -0.33254
       5     C     3.11587  3.11587  0.00000 -0.23175
       6     H     0.44288  0.44288  0.00000  0.11424
       7     H     0.44051  0.44051  0.00000  0.11898
       8     C     3.08966  3.08966  0.00000 -0.17933
       9     H     0.44312  0.44312  0.00000  0.11376
      10     H     0.44998  0.44998  0.00000  0.10004
      11     C     3.09264  3.09264  0.00000 -0.18527
      12     H     0.44953  0.44953  0.00000  0.10095
      13     H     0.44832  0.44832  0.00000  0.10336
      14     C     3.09550  3.09550  0.00000 -0.19101
      15     H     0.45354  0.45354  0.00000  0.09292
      16     H     0.45242  0.45242  0.00000  0.09516
      17     C     3.09080  3.09080  0.00000 -0.18159
      18     H     0.44845  0.44845  0.00000  0.10311
      19     H     0.45257  0.45257  0.00000  0.09486
      20     C     3.15210  3.15210  0.00000 -0.30419
      21     H     0.45487  0.45487  0.00000  0.09026
      22     H     0.44768  0.44768  0.00000  0.10463
      23     H     0.45469  0.45469  0.00000  0.09061
      24     H     0.45438  0.45438  0.00000  0.09125
      25     H     0.44606  0.44606  0.00000  0.10787

   Total alpha = 36.00000, Total beta = 36.00000, Total charge =  0.00000

*** Psi4 exiting successfully. Buy a developer a beer!
