                              Psi4 1.0.54 Driver

  ==> Input File <==

--------------------------------------------------------------------------
set {
	reference rhf
	basis cc-pvtz
}

set_num_threads( 4 )
memory 2 gb

molecule MOL {
0 1

H	 -3.003977	 1.296113	 -1.932596
C	 -2.049097	 1.818916	 -2.080131
C	 -1.369526	 2.266314	 -0.814465
O	 -1.636559	 1.999795	 -3.173019
C	 -1.216901	 1.136108	 0.207794
H	 -0.413363	 2.702694	 -1.072649
H	 -1.991280	 3.051122	 -0.389255
C	 -0.247837	 0.040196	 -0.230469
H	 -0.876775	 1.564542	 1.144330
H	 -2.192326	 0.701173	 0.411685
C	 1.181757	 0.280428	 0.247371
H	 -0.259600	 -0.030819	 -1.314870
H	 -0.591284	 -0.923375	 0.136958
C	 2.151032	 -0.811012	 -0.202643
H	 1.515939	 1.247397	 -0.115449
H	 1.191514	 0.341223	 1.333422
C	 3.580021	 -0.656538	 0.320835
H	 2.170545	 -0.847575	 -1.289412
H	 1.766632	 -1.772905	 0.124928
C	 4.327657	 0.562694	 -0.213579
H	 4.138806	 -1.549270	 0.057813
H	 3.561991	 -0.620783	 1.406976
H	 4.355973	 0.557257	 -1.298551
H	 3.867136	 1.491650	 0.100501
H	 5.351524	 0.571613	 0.142204

	symmetry c1
}
set optking {
	frozen_dihedral = ("
		3 5 8 12
	")
}

ee,wfn = optimize('scf', return_wfn=True)
oeprop( wfn, 'DIPOLE', 'QUADRUPOLE', 'MULLIKEN_CHARGES')
f=open( 'psi4out.xyz', 'w' )
f.write( "25  " )
f.write( str(ee) + "\n" )
f.write( MOL.save_string_xyz() )
f.close()
--------------------------------------------------------------------------

    Molecular point group: c1
  Charge       = 0
  Multiplicity = 1
  Basis Set: CC-PVTZ
  Basis Set:
  @DF-RHF Final Energy:  -387.25691406565863
    Total Energy =                       -387.2569140656588615
    Molecular point group: c1
  Basis Set: CC-PVTZ
  Basis Set:
  Basis Set: CC-PVTZ
  Basis Set:
  @DF-RHF Final Energy:  -387.25711294263357
    Total Energy =                       -387.2571129426331709
  Basis Set: CC-PVTZ
  Basis Set:
  Basis Set: CC-PVTZ
  Basis Set:
  @DF-RHF Final Energy:  -387.25720115328278
    Total Energy =                       -387.2572011532829492
  Basis Set: CC-PVTZ
  Basis Set:
  Basis Set: CC-PVTZ
  Basis Set:
  @DF-RHF Final Energy:  -387.25721678680083
    Total Energy =                       -387.2572167868015640
  Basis Set: CC-PVTZ
  Basis Set:
  Basis Set: CC-PVTZ
  Basis Set:
  @DF-RHF Final Energy:  -387.25722426817953
    Total Energy =                       -387.2572242681796979
  Basis Set: CC-PVTZ
  Basis Set:
  Basis Set: CC-PVTZ
  Basis Set:
  @DF-RHF Final Energy:  -387.25722376653147
    Total Energy =                       -387.2572237665309558
  Basis Set: CC-PVTZ
  Basis Set:
  Basis Set: CC-PVTZ
  Basis Set:
  @DF-RHF Final Energy:  -387.25722807875246
    Total Energy =                       -387.2572280787521777
  Basis Set: CC-PVTZ
  Basis Set:
  Charge       = 0
  Multiplicity = 1
  Basis Set: CC-PVTZ
  Basis Set:

    Orbital Energies (a.u.)
    -----------------------

    Doubly Occupied:

       1A    -20.552281     2A    -11.321360     3A    -11.234023
       4A    -11.232878     5A    -11.220922     6A    -11.216456
       7A    -11.214910     8A    -11.213531     9A    -11.206980
      10A     -1.407090    11A     -1.104086    12A     -1.069274
      13A     -1.012354    14A     -0.942901    15A     -0.876872
      16A     -0.821115    17A     -0.787359    18A     -0.779517
      19A     -0.668811    20A     -0.655879    21A     -0.645608
      22A     -0.617674    23A     -0.610001    24A     -0.593187
      25A     -0.573054    26A     -0.548103    27A     -0.542377
      28A     -0.522576    29A     -0.514535    30A     -0.501247
      31A     -0.484120    32A     -0.476324    33A     -0.463241
      34A     -0.456241    35A     -0.442494    36A     -0.412688

  @DF-RHF Final Energy:  -387.25722897864443

   => Energetics <=

    Nuclear Repulsion Energy =            446.1515184893347623
    One-Electron Energy =               -1408.9333572692598864
    Two-Electron Energy =                 575.5246098012809171
    DFT Exchange-Correlation Energy =       0.0000000000000000
    Empirical Dispersion Energy =           0.0000000000000000
    PCM Polarization Energy =               0.0000000000000000
    EFP Energy =                            0.0000000000000000
    Total Energy =                       -387.2572289786442070
    Molecular point group: c1
  Basis Set: CC-PVTZ
  Basis Set:

  -Total Gradient:
     Atom            X                  Y                   Z
    ------   -----------------  -----------------  -----------------
       1       -0.000042964186    -0.000015068848     0.000013880519
       2        0.000004845360    -0.000028141644     0.000021471196
       3       -0.001663031791    -0.001230861735    -0.000966045428
       4        0.000031010456     0.000028103921    -0.000123350385
       5        0.002948277220     0.002109210443     0.001355621212
       6        0.000016116687     0.000034620667    -0.000014244525
       7       -0.000027813870     0.000046302725     0.000033139151
       8       -0.003612316476    -0.003031292941    -0.000275491140
       9        0.000046280876    -0.000013351357     0.000000359860
      10        0.000009708740    -0.000031332040     0.000013335532
      11       -0.000001614028     0.000008636321     0.000087770090
      12        0.002302257954     0.002120987250    -0.000135490554
      13       -0.000018406291    -0.000002269965     0.000012264817
      14       -0.000007842512     0.000001446486    -0.000001949604
      15       -0.000000815145    -0.000003059739    -0.000016296760
      16        0.000015723420     0.000004476658     0.000019735708
      17       -0.000005173377     0.000010448861    -0.000007259118
      18        0.000004869048    -0.000004728230    -0.000014333749
      19        0.000007783799     0.000000645813     0.000000672115
      20        0.000004849389     0.000001098112     0.000002822375
      21       -0.000002074631    -0.000006233232    -0.000002280501
      22       -0.000006401532     0.000001963155     0.000001023169
      23       -0.000000399674     0.000001907432    -0.000006952001
      24       -0.000003826256    -0.000000537785     0.000003319830
      25        0.000000956809    -0.000002970327    -0.000001721810

  **** Optimization is complete! (in 8 steps) ****
    Final optimized geometry and variables:
    Molecular point group: c1

    Geometry (in Angstrom), charge = 0, multiplicity = 1:

    H           -3.574658241770     0.614819177269    -1.278899906217
    C           -2.589499728856     1.074760237243    -1.435130002618
    C           -1.892685181143     1.523241509450    -0.179286998568
    O           -2.157561181097     1.191052781309    -2.529527987911
    C           -1.770150088610     0.396492738023     0.853257533537
    H           -0.928242154967     1.933150821819    -0.449466119290
    H           -2.491733462337     2.328733654408     0.239911351485
    C           -0.789614039595    -0.715484567602     0.449811481984
    H           -1.472146410714     0.821251610137     1.804775847299
    H           -2.757723504602    -0.026896481158     1.013058558451
    C            0.637222676924    -0.465179314932     0.940264378124
    H           -0.762445552405    -0.805827704664    -0.632116585600
    H           -1.135703429186    -1.667102340703     0.838177964543
    C            1.620402103608    -1.537803985185     0.476499954969
    H            0.965938033234     0.510732092255     0.597408434864
    H            0.637346651999    -0.424095891595     2.027176865636
    C            3.040660532383    -1.387519407217     1.024354833941
    H            1.655504433814    -1.546032368850    -0.610296069254
    H            1.238062427952    -2.510562263212     0.774148086009
    C            3.785032113574    -0.147209006555     0.535864082416
    H            3.610396419426    -2.267803009660     0.743265371844
    H            3.007372112812    -1.383571844797     2.110773465306
    H            3.825553320930    -0.119181749474    -0.548247291804
    H            3.313713393777     0.768310830778     0.872595134921
    H            4.804603929983    -0.141649839573     0.903917274071

  Mulliken Charges: (a.u.)
   Center  Symbol    Alpha    Beta     Spin     Total
       1     H     0.46422  0.46422  0.00000  0.07155
       2     C     2.90363  2.90363  0.00000  0.19274
       3     C     3.08702  3.08702  0.00000 -0.17405
       4     O     4.16618  4.16618  0.00000 -0.33237
       5     C     3.12392  3.12392  0.00000 -0.24783
       6     H     0.44325  0.44325  0.00000  0.11349
       7     H     0.44176  0.44176  0.00000  0.11647
       8     C     3.09792  3.09792  0.00000 -0.19585
       9     H     0.44285  0.44285  0.00000  0.11430
      10     H     0.44264  0.44264  0.00000  0.11471
      11     C     3.09048  3.09048  0.00000 -0.18096
      12     H     0.44881  0.44881  0.00000  0.10238
      13     H     0.44511  0.44511  0.00000  0.10977
      14     C     3.09664  3.09664  0.00000 -0.19328
      15     H     0.45093  0.45093  0.00000  0.09813
      16     H     0.45381  0.45381  0.00000  0.09238
      17     C     3.09014  3.09014  0.00000 -0.18029
      18     H     0.45071  0.45071  0.00000  0.09858
      19     H     0.44980  0.44980  0.00000  0.10041
      20     C     3.15295  3.15295  0.00000 -0.30590
      21     H     0.44806  0.44806  0.00000  0.10388
      22     H     0.45513  0.45513  0.00000  0.08973
      23     H     0.45322  0.45322  0.00000  0.09356
      24     H     0.45470  0.45470  0.00000  0.09060
      25     H     0.44608  0.44608  0.00000  0.10783

   Total alpha = 36.00000, Total beta = 36.00000, Total charge = -0.00000

*** Psi4 exiting successfully. Buy a developer a beer!
