  ==> Input File <==

--------------------------------------------------------------------------
set {
	reference rhf
	basis 6-31G*
}

set_num_threads( 1 )
memory 2 gb

molecule MOL {
0 1

H	 -3.303043	 0.037579	 1.427437
C	 -3.328030	 -0.078733	 0.336809
C	 -2.619536	 1.004511	 -0.435998
O	 -3.885893	 -1.006860	 -0.152190
C	 -1.180162	 1.227778	 0.048366
H	 -2.650737	 0.749760	 -1.489011
H	 -3.190377	 1.921884	 -0.297355
C	 -0.252658	 0.041456	 -0.226725
H	 -0.786572	 2.114242	 -0.440053
H	 -1.187927	 1.448170	 1.114726
C	 1.180775	 0.282413	 0.250794
H	 -0.249485	 -0.167688	 -1.294478
H	 -0.644958	 -0.852887	 0.253682
C	 2.148627	 -0.814315	 -0.201312
H	 1.516199	 1.249228	 -0.115937
H	 1.192670	 0.346017	 1.338083
C	 3.580890	 -0.659131	 0.322722
H	 2.166869	 -0.852443	 -1.289387
H	 1.762857	 -1.776509	 0.128956
C	 4.324889	 0.564933	 -0.213704
H	 4.142010	 -1.551473	 0.056605
H	 3.564836	 -0.624694	 1.410140
H	 4.342616	 0.565491	 -1.300421
H	 3.866655	 1.493402	 0.110242
H	 5.353900	 0.572371	 0.132816

	symmetry c1
}
set optking {
	frozen_dihedral = ("
		6 3 5 8,
		6 3 2 4,
		3 5 8 12,
		8 11 14 18,
		20 17 14 18
	")
}

ee = energy('scf')
oeprop('DIPOLE', 'QUADRUPOLE', 'MULLIKEN_CHARGES')
f=open( 'psi4out.xyz', 'w' )
f.write( "25  " )
f.write( str(ee) + "\n" )
f.write( MOL.save_string_xyz() )
f.close()
--------------------------------------------------------------------------

    Molecular point group: c1

    Geometry (in Angstrom), charge = 0, multiplicity = 1:

       Center              X                  Y                   Z               Mass
    ------------   -----------------  -----------------  -----------------  -----------------
           H         -3.304002327449    -0.020423729154     1.459584834536     1.007825032070
           C         -3.328989327449    -0.136735729154     0.368956834536    12.000000000000
           C         -2.620495327449     0.946508270846    -0.403850165464    12.000000000000
           O         -3.886852327449    -1.064862729154    -0.120042165464    15.994914619560
           C         -1.181121327449     1.169775270846     0.080513834536    12.000000000000
           H         -2.651696327449     0.691757270846    -1.456863165464     1.007825032070
           H         -3.191336327449     1.863881270846    -0.265207165464     1.007825032070
           C         -0.253617327449    -0.016546729154    -0.194577165464    12.000000000000
           H         -0.787531327449     2.056239270846    -0.407905165464     1.007825032070
           H         -1.188886327449     1.390167270846     1.146873834536     1.007825032070
           C          1.179815672551     0.224410270846     0.282941834536    12.000000000000
           H         -0.250444327449    -0.225690729154    -1.262330165464     1.007825032070
           H         -0.645917327449    -0.910889729154     0.285829834536     1.007825032070
           C          2.147667672551    -0.872317729154    -0.169164165464    12.000000000000
           H          1.515239672551     1.191225270846    -0.083789165464     1.007825032070
           H          1.191710672551     0.288014270846     1.370230834536     1.007825032070
           C          3.579930672551    -0.717133729154     0.354869834536    12.000000000000
           H          2.165909672551    -0.910445729154    -1.257239165464     1.007825032070
           H          1.761897672551    -1.834511729154     0.161103834536     1.007825032070
           C          4.323929672551     0.506930270846    -0.181556165464    12.000000000000
           H          4.141050672551    -1.609475729154     0.088752834536     1.007825032070
           H          3.563876672551    -0.682696729154     1.442287834536     1.007825032070
           H          4.341656672551     0.507488270846    -1.268273165464     1.007825032070
           H          3.865695672551     1.435399270846     0.142389834536     1.007825032070
           H          5.352940672551     0.514368270846     0.164963834536     1.007825032070

  Charge       = 0
  Multiplicity = 1
  Basis Set: 6-31G*
  Basis Set:

    Orbital Energies (a.u.)
    -----------------------

    Doubly Occupied:

       1A    -20.562010     2A    -11.326161     3A    -11.235367
       4A    -11.234643     5A    -11.223918     6A    -11.219827
       7A    -11.218028     8A    -11.217052     9A    -11.210773
      10A     -1.401991    11A     -1.104049    12A     -1.069755
      13A     -1.013420    14A     -0.942498    15A     -0.875267
      16A     -0.820784    17A     -0.788153    18A     -0.781338
      19A     -0.664904    20A     -0.661045    21A     -0.633208
      22A     -0.625845    23A     -0.602108    24A     -0.595342
      25A     -0.574000    26A     -0.551002    27A     -0.534644
      28A     -0.524818    29A     -0.509234    30A     -0.495445
      31A     -0.491444    32A     -0.479188    33A     -0.464956
      34A     -0.458727    35A     -0.441121    36A     -0.409574

  @DF-RHF Final Energy:  -387.12182691713360

   => Energetics <=

    Nuclear Repulsion Energy =            439.1384589527043545
    One-Electron Energy =               -1394.5972955875372463
    Two-Electron Energy =                 568.3370097176969011
    DFT Exchange-Correlation Energy =       0.0000000000000000
    Empirical Dispersion Energy =           0.0000000000000000
    PCM Polarization Energy =               0.0000000000000000
    EFP Energy =                            0.0000000000000000
    Total Energy =                       -387.1218269171359907

  Mulliken Charges: (a.u.)
   Center  Symbol    Alpha    Beta     Spin     Total
       1     H     0.43260  0.43260  0.00000  0.13481
       2     C     2.83089  2.83089  0.00000  0.33821
       3     C     3.20813  3.20813  0.00000 -0.41626
       4     O     4.23776  4.23776  0.00000 -0.47552
       5     C     3.16676  3.16676  0.00000 -0.33352
       6     H     0.39967  0.39967  0.00000  0.20066
       7     H     0.40670  0.40670  0.00000  0.18661
       8     C     3.15486  3.15486  0.00000 -0.30973
       9     H     0.41279  0.41279  0.00000  0.17443
      10     H     0.41962  0.41962  0.00000  0.16077
      11     C     3.15429  3.15429  0.00000 -0.30858
      12     H     0.41808  0.41808  0.00000  0.16384
      13     H     0.41803  0.41803  0.00000  0.16394
      14     C     3.15324  3.15324  0.00000 -0.30648
      15     H     0.42121  0.42121  0.00000  0.15758
      16     H     0.42321  0.42321  0.00000  0.15358
      17     C     3.15281  3.15281  0.00000 -0.30562
      18     H     0.42309  0.42309  0.00000  0.15382
      19     H     0.42054  0.42054  0.00000  0.15893
      20     C     3.24132  3.24132  0.00000 -0.48264
      21     H     0.41998  0.41998  0.00000  0.16005
      22     H     0.42317  0.42317  0.00000  0.15366
      23     H     0.42197  0.42197  0.00000  0.15606
      24     H     0.42066  0.42066  0.00000  0.15867
      25     H     0.41864  0.41864  0.00000  0.16272

   Total alpha = 36.00000, Total beta = 36.00000, Total charge = -0.00000
