  ==> Input File <==

--------------------------------------------------------------------------
set {
	reference rhf
	basis cc-pvtz
}

set_num_threads( 4 )
memory 2 gb

molecule MOL {
0 1

H	 -0.982911	 0.000235	 -1.053686
N	 -0.712187	 0.000026	 -0.093397
C	 0.734067	 -0.000020	 0.038424
H	 -1.108470	 -0.815180	 0.323548
H	 1.140372	 -0.872115	 -0.458226
H	 1.140363	 0.872301	 -0.457869
H	 1.095085	 -0.000244	 1.065614

	symmetry c1
}
set optking {
	frozen_dihedral = ("
		1 2 3 7
	")
}

ee = optimize('scf')
oeprop('DIPOLE', 'QUADRUPOLE', 'MULLIKEN_CHARGES')
f=open( 'psi4out.xyz', 'w' )
f.write( "7  " )
f.write( str(ee) + "\n" )
f.write( MOL.save_string_xyz() )
f.close()
--------------------------------------------------------------------------

    Molecular point group: c1
  Charge       = 0
  Multiplicity = 1
  Basis Set: CC-PVTZ
  Basis Set:
  @DF-RHF Final Energy:   -95.25192021195636
    Total Energy =                        -95.2519202119563886
    Molecular point group: c1
  Basis Set: CC-PVTZ
  Basis Set:
  Basis Set: CC-PVTZ
  Basis Set:
  @DF-RHF Final Energy:   -95.25356705880307
    Total Energy =                        -95.2535670588030996
  Basis Set: CC-PVTZ
  Basis Set:
  Basis Set: CC-PVTZ
  Basis Set:
  @DF-RHF Final Energy:   -95.25376002436357
    Total Energy =                        -95.2537600243635865
  Basis Set: CC-PVTZ
  Basis Set:
  Charge       = 0
  Multiplicity = 1
  Basis Set: CC-PVTZ
  Basis Set:

    Orbital Energies (a.u.)
    -----------------------

    Doubly Occupied:

       1A    -15.528642     2A    -11.235535     3A     -1.172347
       4A     -0.897066     5A     -0.665854     6A     -0.603421
       7A     -0.558581     8A     -0.517393     9A     -0.386942

  @DF-RHF Final Energy:   -95.25376161857669

   => Energetics <=

    Nuclear Repulsion Energy =             42.3921370305887280
    One-Electron Energy =                -212.1602375865111298
    Two-Electron Energy =                  74.5143389373456841
    DFT Exchange-Correlation Energy =       0.0000000000000000
    Empirical Dispersion Energy =           0.0000000000000000
    PCM Polarization Energy =               0.0000000000000000
    EFP Energy =                            0.0000000000000000
    Total Energy =                        -95.2537616185767035
    Molecular point group: c1
  Basis Set: CC-PVTZ
  Basis Set:

  -Total Gradient:
     Atom            X                  Y                   Z
    ------   -----------------  -----------------  -----------------
       1        0.000062706255    -0.000120619874    -0.000010712590
       2        0.000069605298     0.000188499121     0.000069589949
       3        0.000022450618     0.000087988345    -0.000079494675
       4        0.000042092195    -0.000031773787     0.000009287387
       5       -0.000047643957    -0.000029239799    -0.000012105531
       6       -0.000061911252     0.000005700834    -0.000001057963
       7       -0.000087299157    -0.000100554840     0.000024493421

  **** Optimization is complete! (in 4 steps) ****
    Final optimized geometry and variables:
    Molecular point group: c1

    Geometry (in Angstrom), charge = 0, multiplicity = 1:

    H           -1.011281284578     0.030876706211    -0.986211216044
    N           -0.716512318822     0.037311662877    -0.032961754665
    C            0.732264882755     0.011850926231     0.062191377739
    H           -1.116197371769    -0.766313459308     0.403014261051
    H            1.201499193096    -0.849466831550    -0.410678648848
    H            1.138776066033     0.905928705481    -0.393653058341
    H            1.023724016460     0.019446617685     1.105008746612

  Mulliken Charges: (a.u.)
   Center  Symbol    Alpha    Beta     Spin     Total
       1     H     0.42870  0.42870  0.00000  0.14260
       2     N     3.68671  3.68671  0.00000 -0.37342
       3     C     3.07152  3.07152  0.00000 -0.14303
       4     H     0.42864  0.42864  0.00000  0.14272
       5     H     0.47241  0.47241  0.00000  0.05517
       6     H     0.45599  0.45599  0.00000  0.08802
       7     H     0.45603  0.45603  0.00000  0.08794

   Total alpha =  9.00000, Total beta =  9.00000, Total charge =  0.00000
