  ==> Input File <==

--------------------------------------------------------------------------
set {
	reference rhf
	basis 6-31G*
}

set_num_threads( 1 )
memory 2 gb

molecule MOL {
0 1

O	 -2.374992	 0.702196	 -1.663840
C	 -2.431948	 -0.191865	 -0.881519
C	 -3.591190	 -1.149969	 -0.784236
O	 -1.481751	 -0.454642	 0.000584
H	 -3.716489	 -1.642780	 -1.740949
H	 -3.441313	 -1.886405	 -0.008584
H	 -4.494019	 -0.584723	 -0.586055
C	 -0.334255	 0.388708	 0.000906
C	 0.891947	 -0.504646	 0.000751
H	 -0.365390	 1.025305	 -0.873475
H	 -0.365484	 1.024911	 0.875569
C	 2.191998	 0.301789	 0.000897
H	 0.855148	 -1.151283	 -0.871571
H	 0.855132	 -1.151660	 0.872805
C	 3.441114	 -0.581407	 0.000108
H	 2.215074	 0.954890	 -0.869742
H	 2.215465	 0.953923	 0.872248
C	 4.739576	 0.224112	 -0.001102
H	 3.419457	 -1.233487	 -0.870178
H	 3.420834	 -1.233096	 0.870717
H	 4.804918	 0.861552	 -0.878265
H	 5.606527	 -0.429058	 -0.001824
H	 4.806469	 0.861674	 0.875853

	symmetry c1
}
set optking {
	frozen_dihedral = ("
		13 9 8 10,
		16 12 9 13,
		19 15 12 16,
		1 2 4 8
	")
}

ee = energy('scf')
oeprop('DIPOLE', 'QUADRUPOLE', 'MULLIKEN_CHARGES')
f=open( 'psi4out.xyz', 'w' )
f.write( "23  " )
f.write( str(ee) + "\n" )
f.write( MOL.save_string_xyz() )
f.close()
--------------------------------------------------------------------------

    Molecular point group: c1

    Geometry (in Angstrom), charge = 0, multiplicity = 1:

       Center              X                  Y                   Z               Mass
    ------------   -----------------  -----------------  -----------------  -----------------
           O         -2.475981884184     0.839463177369    -1.287776039075    15.994914619560
           C         -2.532937884184    -0.054597822631    -0.505455039075    12.000000000000
           C         -3.692179884184    -1.012701822631    -0.408172039075    12.000000000000
           O         -1.582740884184    -0.317374822631     0.376647960925    15.994914619560
           H         -3.817478884184    -1.505512822631    -1.364885039075     1.007825032070
           H         -3.542302884184    -1.749137822631     0.367479960925     1.007825032070
           H         -4.595008884184    -0.447455822631    -0.209991039075     1.007825032070
           C         -0.435244884184     0.525975177369     0.376969960925    12.000000000000
           C          0.790957115816    -0.367378822631     0.376814960925    12.000000000000
           H         -0.466379884184     1.162572177369    -0.497411039075     1.007825032070
           H         -0.466473884184     1.162178177369     1.251632960925     1.007825032070
           C          2.091008115816     0.439056177369     0.376960960925    12.000000000000
           H          0.754158115816    -1.014015822631    -0.495507039075     1.007825032070
           H          0.754142115816    -1.014392822631     1.248868960925     1.007825032070
           C          3.340124115816    -0.444139822631     0.376171960925    12.000000000000
           H          2.114084115816     1.092157177369    -0.493678039075     1.007825032070
           H          2.114475115816     1.091190177369     1.248311960925     1.007825032070
           C          4.638586115816     0.361379177369     0.374961960925    12.000000000000
           H          3.318467115816    -1.096219822631    -0.494114039075     1.007825032070
           H          3.319844115816    -1.095828822631     1.246780960925     1.007825032070
           H          4.703928115816     0.998819177369    -0.502201039075     1.007825032070
           H          5.505537115816    -0.291790822631     0.374239960925     1.007825032070
           H          4.705479115816     0.998941177369     1.251916960925     1.007825032070

  Charge       = 0
  Multiplicity = 1
  Basis Set: 6-31G*
  Basis Set:

    Orbital Energies (a.u.)
    -----------------------

    Doubly Occupied:

       1A    -20.603315     2A    -20.540236     3A    -11.375772
       4A    -11.277343     5A    -11.233172     6A    -11.222606
       7A    -11.221973     8A    -11.220511     9A    -11.212032
      10A     -1.468872    11A     -1.361440    12A     -1.092627
      13A     -1.041761    14A     -1.003123    15A     -0.930280
      16A     -0.843386    17A     -0.800662    18A     -0.773582
      19A     -0.698869    20A     -0.681305    21A     -0.662379
      22A     -0.647219    23A     -0.604828    24A     -0.587354
      25A     -0.584192    26A     -0.570999    27A     -0.552044
      28A     -0.539019    29A     -0.522601    30A     -0.507769
      31A     -0.488195    32A     -0.477470    33A     -0.472105
      34A     -0.469409    35A     -0.443731    36A     -0.433600

  @DF-RHF Final Energy:  -422.97694122218559

   => Energetics <=

    Nuclear Repulsion Energy =            452.1629213658729896
    One-Electron Energy =               -1471.9480726055071500
    Two-Electron Energy =                 596.8082100174467541
    DFT Exchange-Correlation Energy =       0.0000000000000000
    Empirical Dispersion Energy =           0.0000000000000000
    PCM Polarization Energy =               0.0000000000000000
    EFP Energy =                            0.0000000000000000
    Total Energy =                       -422.9769412221874063

  Mulliken Charges: (a.u.)
   Center  Symbol    Alpha    Beta     Spin     Total
       1     O     4.28448  4.28448  0.00000 -0.56896
       2     C     2.61539  2.61539  0.00000  0.76922
       3     C     3.28881  3.28881  0.00000 -0.57762
       4     O     4.31078  4.31078  0.00000 -0.62155
       5     H     0.39743  0.39743  0.00000  0.20514
       6     H     0.39957  0.39957  0.00000  0.20086
       7     H     0.39707  0.39707  0.00000  0.20586
       8     C     3.01032  3.01032  0.00000 -0.02064
       9     C     3.16158  3.16158  0.00000 -0.32315
      10     H     0.39141  0.39141  0.00000  0.21718
      11     H     0.41519  0.41519  0.00000  0.16961
      12     C     3.16098  3.16098  0.00000 -0.32196
      13     H     0.41582  0.41582  0.00000  0.16836
      14     H     0.41506  0.41506  0.00000  0.16987
      15     C     3.15132  3.15132  0.00000 -0.30263
      16     H     0.41974  0.41974  0.00000  0.16053
      17     H     0.42211  0.42211  0.00000  0.15579
      18     C     3.23983  3.23983  0.00000 -0.47966
      19     H     0.42126  0.42126  0.00000  0.15749
      20     H     0.42171  0.42171  0.00000  0.15658
      21     H     0.42066  0.42066  0.00000  0.15868
      22     H     0.41820  0.41820  0.00000  0.16361
      23     H     0.42130  0.42130  0.00000  0.15741

   Total alpha = 36.00000, Total beta = 36.00000, Total charge =  0.00000
