                              Psi4 1.0.54 Driver

  ==> Input File <==

--------------------------------------------------------------------------
set {
	reference rhf
	basis cc-pvtz
}

set_num_threads( 4 )
memory 2 gb

molecule MOL {
0 1

H	 2.810683	 -0.460551	 0.306835
O	 2.012307	 -0.863440	 0.000222
C	 1.050374	 0.054877	 0.000135
C	 -0.318151	 -0.570512	 0.000144
O	 1.286319	 1.213453	 -0.000040
C	 -1.454884	 0.441630	 -0.000560
H	 -0.371613	 -1.223646	 -0.864985
H	 -0.371920	 -1.222758	 0.865929
C	 -2.822577	 -0.232186	 0.000063
H	 -1.359760	 1.084704	 -0.867077
H	 -1.359641	 1.085996	 0.864983
H	 -2.954352	 -0.858985	 -0.875745
H	 -3.615886	 0.505352	 0.000019
H	 -2.953878	 -0.858359	 0.876394

	symmetry c1
}
set optking {
	frozen_dihedral = ("
		1 2 3 5
	")
}

ee,wfn = optimize('scf', return_wfn=True)
oeprop( wfn, 'DIPOLE', 'QUADRUPOLE', 'MULLIKEN_CHARGES')
f=open( 'psi4out.xyz', 'w' )
f.write( "14  " )
f.write( str(ee) + "\n" )
f.write( MOL.save_string_xyz() )
f.close()
--------------------------------------------------------------------------

    Molecular point group: c1
  Charge       = 0
  Multiplicity = 1
  Basis Set: CC-PVTZ
  Basis Set:
  @DF-RHF Final Energy:  -305.99871294610580
    Total Energy =                       -305.9987129461057975
    Molecular point group: c1
  Basis Set: CC-PVTZ
  Basis Set:
  Basis Set: CC-PVTZ
  Basis Set:
  @DF-RHF Final Energy:  -305.99545503676529
    Total Energy =                       -305.9954550367650654
  Basis Set: CC-PVTZ
  Basis Set:
  Basis Set: CC-PVTZ
  Basis Set:
  @DF-RHF Final Energy:  -305.99888050038635
    Total Energy =                       -305.9988805003860648
  Basis Set: CC-PVTZ
  Basis Set:
  Basis Set: CC-PVTZ
  Basis Set:
  @DF-RHF Final Energy:  -305.99893035785431
    Total Energy =                       -305.9989303578545332
  Basis Set: CC-PVTZ
  Basis Set:
  Basis Set: CC-PVTZ
  Basis Set:
  @DF-RHF Final Energy:  -305.99893727799554
    Total Energy =                       -305.9989372779957648
  Basis Set: CC-PVTZ
  Basis Set:
  Basis Set: CC-PVTZ
  Basis Set:
  @DF-RHF Final Energy:  -305.99894090325535
    Total Energy =                       -305.9989409032554022
  Basis Set: CC-PVTZ
  Basis Set:
  Charge       = 0
  Multiplicity = 1
  Basis Set: CC-PVTZ
  Basis Set:

    Orbital Energies (a.u.)
    -----------------------

    Doubly Occupied:

       1A    -20.602777     2A    -20.541983     3A    -11.374104
       4A    -11.239717     5A    -11.223800     6A    -11.215403
       7A     -1.476187     8A     -1.369978     9A     -1.084291
      10A     -0.980651    11A     -0.858816    12A     -0.793343
      13A     -0.704862    14A     -0.691128    15A     -0.668687
      16A     -0.621152    17A     -0.591766    18A     -0.574465
      19A     -0.546274    20A     -0.506873    21A     -0.492483
      22A     -0.485173    23A     -0.482348    24A     -0.447588

  @DF-RHF Final Energy:  -305.99894094677347

   => Energetics <=

    Nuclear Repulsion Energy =            240.3727663720611645
    One-Electron Energy =                -893.5957163663822485
    Two-Electron Energy =                 347.2240090475475540
    DFT Exchange-Correlation Energy =       0.0000000000000000
    Empirical Dispersion Energy =           0.0000000000000000
    PCM Polarization Energy =               0.0000000000000000
    EFP Energy =                            0.0000000000000000
    Total Energy =                       -305.9989409467735300
    Molecular point group: c1
  Basis Set: CC-PVTZ
  Basis Set:

  -Total Gradient:
     Atom            X                  Y                   Z
    ------   -----------------  -----------------  -----------------
       1       -0.001182375552    -0.002015093421     0.006476219314
       2        0.001335873397     0.002566753104    -0.010985276642
       3        0.000240800825    -0.000983379286     0.010968169206
       4       -0.000018715459     0.000012633144    -0.000056492165
       5       -0.000408443930     0.000401560936    -0.006342940581
       6        0.000012792985     0.000007261186    -0.000027109896
       7        0.000003684974     0.000022130841    -0.000027251888
       8        0.000009802966    -0.000012586385    -0.000021491920
       9        0.000003843686    -0.000006611965     0.000006658809
      10       -0.000000940434     0.000006573550     0.000001188963
      11        0.000001333537     0.000001880675     0.000007422906
      12        0.000000417275     0.000000205013    -0.000000263089
      13        0.000005176918     0.000001064981    -0.000000016752
      14       -0.000003251189    -0.000002392376     0.000001183734

  **** Optimization is complete! (in 7 steps) ****
    Final optimized geometry and variables:
    Molecular point group: c1

    Geometry (in Angstrom), charge = 0, multiplicity = 1:

    H            2.831836233654    -0.476548514677     0.203719407831
    O            2.013970965477    -0.859565286105    -0.074665498254
    C            1.050801224532     0.056601216773     0.027822344000
    C           -0.317125463361    -0.569371323689     0.010829036868
    O            1.283817933084     1.214036043714     0.072780154817
    C           -1.455083630744     0.440842173726    -0.016523055789
    H           -0.355692096878    -1.232706752156    -0.847030124482
    H           -0.383242586324    -1.212217285722     0.883270322803
    C           -2.821823955508    -0.234807282209    -0.028107421898
    H           -1.348787413222     1.074596414067    -0.888835232930
    H           -1.372662501592     1.094693628230     0.843032368430
    H           -2.940164304827    -0.871813292063    -0.898427363460
    H           -3.615951928093     0.501584523077    -0.048040714622
    H           -2.964984041482    -0.851053216093     0.853425186433

  Mulliken Charges: (a.u.)
   Center  Symbol    Alpha    Beta     Spin     Total
       1     H     0.38142  0.38142  0.00000  0.23717
       2     O     4.16288  4.16288  0.00000 -0.32577
       3     C     2.80567  2.80567  0.00000  0.38867
       4     C     3.10515  3.10515  0.00000 -0.21030
       5     O     4.18779  4.18779  0.00000 -0.37557
       6     C     3.07957  3.07957  0.00000 -0.15913
       7     H     0.43818  0.43818  0.00000  0.12364
       8     H     0.44069  0.44069  0.00000  0.11863
       9     C     3.15015  3.15015  0.00000 -0.30030
      10     H     0.44652  0.44652  0.00000  0.10697
      11     H     0.44586  0.44586  0.00000  0.10829
      12     H     0.45536  0.45536  0.00000  0.08928
      13     H     0.44513  0.44513  0.00000  0.10974
      14     H     0.45565  0.45565  0.00000  0.08869

   Total alpha = 24.00000, Total beta = 24.00000, Total charge = -0.00000

*** Psi4 exiting successfully. Buy a developer a beer!
