  ==> Input File <==

--------------------------------------------------------------------------
set {
	reference rhf
	basis cc-pvtz
}

set_num_threads( 4 )
memory 2 gb

molecule MOL {
0 1

O	 -0.694481	 1.313155	 -0.204815
C	 -0.862519	 0.151932	 -0.046791
C	 -2.171428	 -0.477048	 0.339095
O	 0.085519	 -0.757083	 -0.192238
H	 -2.467997	 -1.191667	 -0.417688
H	 -2.923379	 0.287970	 0.444097
H	 -2.053854	 -1.015120	 1.270901
C	 1.392036	 -0.330828	 -0.560749
C	 2.104186	 0.349999	 0.589562
H	 1.324653	 0.321661	 -1.417214
H	 1.904429	 -1.236690	 -0.848184
H	 3.116613	 0.599966	 0.292983
H	 1.597712	 1.262811	 0.871771
H	 2.153693	 -0.305477	 1.450663

	symmetry c1
}
set optking {
	frozen_dihedral = ("
		10 8 4 2
	")
}

ee = optimize('scf')
oeprop('DIPOLE', 'QUADRUPOLE', 'MULLIKEN_CHARGES')
f=open( 'psi4out.xyz', 'w' )
f.write( "14  " )
f.write( str(ee) + "\n" )
f.write( MOL.save_string_xyz() )
f.close()
--------------------------------------------------------------------------

    Molecular point group: c1
  Charge       = 0
  Multiplicity = 1
  Basis Set: CC-PVTZ
  Basis Set:
  @DF-RHF Final Energy:  -305.99049102315712
    Total Energy =                       -305.9904910231570057
    Molecular point group: c1
  Basis Set: CC-PVTZ
  Basis Set:
  Basis Set: CC-PVTZ
  Basis Set:
  @DF-RHF Final Energy:  -305.99067909305040
    Total Energy =                       -305.9906790930502893
  Basis Set: CC-PVTZ
  Basis Set:
  Basis Set: CC-PVTZ
  Basis Set:
  @DF-RHF Final Energy:  -305.98999498743382
    Total Energy =                       -305.9899949874339313
  Basis Set: CC-PVTZ
  Basis Set:
  Basis Set: CC-PVTZ
  Basis Set:
  @DF-RHF Final Energy:  -305.99075382121771
    Total Energy =                       -305.9907538212178224
  Basis Set: CC-PVTZ
  Basis Set:
  Basis Set: CC-PVTZ
  Basis Set:
  @DF-RHF Final Energy:  -305.99075590705650
    Total Energy =                       -305.9907559070560410
  Basis Set: CC-PVTZ
  Basis Set:
  Charge       = 0
  Multiplicity = 1
  Basis Set: CC-PVTZ
  Basis Set:

    Orbital Energies (a.u.)
    -----------------------

    Doubly Occupied:

       1A    -20.594448     2A    -20.533023     3A    -11.367797
       4A    -11.284129     5A    -11.231541     6A    -11.215953
       7A     -1.470577     8A     -1.365705     9A     -1.055693
      10A     -0.999273    11A     -0.885696    12A     -0.763878
      13A     -0.701011    14A     -0.685562    15A     -0.661792
      16A     -0.611666    17A     -0.588509    18A     -0.571230
      19A     -0.558435    20A     -0.530739    21A     -0.517866
      22A     -0.494558    23A     -0.455521    24A     -0.441093

  @DF-RHF Final Energy:  -305.99075610680347

   => Energetics <=

    Nuclear Repulsion Energy =            249.7212000989433989
    One-Electron Energy =                -912.2525275119814978
    Two-Electron Energy =                 356.5405713062342556
    DFT Exchange-Correlation Energy =       0.0000000000000000
    Empirical Dispersion Energy =           0.0000000000000000
    PCM Polarization Energy =               0.0000000000000000
    EFP Energy =                            0.0000000000000000
    Total Energy =                       -305.9907561068038149
    Molecular point group: c1
  Basis Set: CC-PVTZ
  Basis Set:

  -Total Gradient:
     Atom            X                  Y                   Z
    ------   -----------------  -----------------  -----------------
       1        0.000007591167    -0.000004932977    -0.000005908739
       2        0.000425954325     0.000168557631     0.001850648463
       3        0.000006075150     0.000010057823     0.000053017843
       4       -0.000599605892    -0.000671252867    -0.003011072955
       5       -0.000003926345     0.000006243362    -0.000015881158
       6       -0.000004809186    -0.000001870917    -0.000004165780
       7       -0.000007330731    -0.000013543592    -0.000015253673
       8       -0.000049936179     0.002228425980     0.002482892382
       9       -0.000004419467    -0.000011266322    -0.000013868549
      10        0.000224652191    -0.001716753930    -0.001327518426
      11        0.000012622571     0.000001598798     0.000006376621
      12        0.000006035611    -0.000001414010    -0.000003231345
      13       -0.000010533567     0.000005456118     0.000004648286
      14       -0.000002369645     0.000000694900    -0.000000682969

  **** Optimization is complete! (in 6 steps) ****
    Final optimized geometry and variables:
    Molecular point group: c1

    Geometry (in Angstrom), charge = 0, multiplicity = 1:

    O           -0.704520788186     1.264144989459    -0.246447855722
    C           -0.853262828742     0.106118612152    -0.050114715058
    C           -2.148487587898    -0.529856271292     0.369010600639
    O            0.105178974571    -0.793152160550    -0.184945672646
    H           -2.440232187369    -1.274160210760    -0.360536961177
    H           -2.911603566337     0.226420148450     0.454936582749
    H           -2.014494524859    -1.034241621052     1.317283840964
    C            1.414277239361    -0.355993684208    -0.531893211372
    C            2.141921130576     0.293732124473     0.626785497418
    H            1.353620384461     0.299764571471    -1.387895939938
    H            1.920821029044    -1.260343239916    -0.834670915615
    H            3.159210897803     0.519980020905     0.327758911701
    H            1.662114682363     1.213355533852     0.927392731999
    H            2.180836004672    -0.379063749264     1.475355228174

  Mulliken Charges: (a.u.)
   Center  Symbol    Alpha    Beta     Spin     Total
       1     O     4.19916  4.19916  0.00000 -0.39832
       2     C     2.80173  2.80173  0.00000  0.39655
       3     C     3.13802  3.13802  0.00000 -0.27605
       4     O     4.15678  4.15678  0.00000 -0.31357
       5     H     0.44531  0.44531  0.00000  0.10938
       6     H     0.43832  0.43832  0.00000  0.12337
       7     H     0.44621  0.44621  0.00000  0.10758
       8     C     2.98484  2.98484  0.00000  0.03033
       9     C     3.15169  3.15169  0.00000 -0.30338
      10     H     0.45085  0.45085  0.00000  0.09829
      11     H     0.44472  0.44472  0.00000  0.11056
      12     H     0.45082  0.45082  0.00000  0.09836
      13     H     0.43875  0.43875  0.00000  0.12250
      14     H     0.45280  0.45280  0.00000  0.09440

   Total alpha = 24.00000, Total beta = 24.00000, Total charge = -0.00000
