  ==> Input File <==

--------------------------------------------------------------------------
set {
	reference rhf
	basis 6-31G*
}

set_num_threads( 1 )
memory 2 gb

molecule MOL {
0 1

O	 0.749854	 1.307668	 -0.000040
C	 0.576249	 0.131685	 -0.000108
C	 -0.766779	 -0.556801	 -0.000461
O	 1.568443	 -0.749345	 -0.000005
C	 -1.945214	 0.412366	 0.000161
H	 -0.796911	 -1.211249	 -0.867467
H	 -0.796854	 -1.212390	 0.865687
C	 -3.192068	 -0.200255	 -0.635935
H	 -1.665447	 1.316486	 -0.529839
H	 -2.160075	 0.713963	 1.019694
H	 -3.011217	 -0.482343	 -1.669459
H	 -4.017382	 0.504133	 -0.626135
H	 -3.511978	 -1.090852	 -0.102109
C	 2.886820	 -0.232538	 0.000322
H	 3.059106	 0.369571	 -0.880203
H	 3.540187	 -1.091012	 0.000050
H	 3.059019	 0.368956	 0.881266

	symmetry c1
}
set optking {
	frozen_dihedral = ("
		1 2 3 6,
		14 4 2 1
	")
}

ee = energy('scf')
oeprop('DIPOLE', 'QUADRUPOLE', 'MULLIKEN_CHARGES')
f=open( 'psi4out.xyz', 'w' )
f.write( "17  " )
f.write( str(ee) + "\n" )
f.write( MOL.save_string_xyz() )
f.close()
--------------------------------------------------------------------------

    Molecular point group: c1

    Geometry (in Angstrom), charge = 0, multiplicity = 1:

       Center              X                  Y                   Z               Mass
    ------------   -----------------  -----------------  -----------------  -----------------
           O          0.735763436746     1.290474815339     0.093587909954    15.994914619560
           C          0.562158436746     0.114491815339     0.093519909954    12.000000000000
           C         -0.780869563254    -0.573994184661     0.093166909954    12.000000000000
           O          1.554352436746    -0.766538184661     0.093622909954    15.994914619560
           C         -1.959304563254     0.395172815339     0.093788909954    12.000000000000
           H         -0.811001563254    -1.228442184661    -0.773839090046     1.007825032070
           H         -0.810944563254    -1.229583184661     0.959314909954     1.007825032070
           C         -3.206158563254    -0.217448184661    -0.542307090046    12.000000000000
           H         -1.679537563254     1.299292815339    -0.436211090046     1.007825032070
           H         -2.174165563254     0.696769815339     1.113321909954     1.007825032070
           H         -3.025307563254    -0.499536184661    -1.575831090046     1.007825032070
           H         -4.031472563254     0.486939815339    -0.532507090046     1.007825032070
           H         -3.526068563254    -1.108045184661    -0.008481090046     1.007825032070
           C          2.872729436746    -0.249731184661     0.093949909954    12.000000000000
           H          3.045015436746     0.352377815339    -0.786575090046     1.007825032070
           H          3.526096436746    -1.108205184661     0.093677909954     1.007825032070
           H          3.044928436746     0.351762815339     0.974893909954     1.007825032070

  Charge       = 0
  Multiplicity = 1
  Basis Set: 6-31G*
  Basis Set:

    Orbital Energies (a.u.)
    -----------------------

    Doubly Occupied:

       1A    -20.604308     2A    -20.546207     3A    -11.372977
       4A    -11.281271     5A    -11.235401     6A    -11.220077
       7A    -11.213935     8A     -1.470040     9A     -1.363657
      10A     -1.080186    11A     -1.001255    12A     -0.939493
      13A     -0.827322    14A     -0.767181    15A     -0.701756
      16A     -0.683104    17A     -0.672797    18A     -0.634838
      19A     -0.597216    20A     -0.573458    21A     -0.568974
      22A     -0.528731    23A     -0.523255    24A     -0.493938
      25A     -0.487320    26A     -0.476443    27A     -0.456923
      28A     -0.439224

  @DF-RHF Final Energy:  -344.90468195660185

   => Energetics <=

    Nuclear Repulsion Energy =            312.8788177771812116
    One-Electron Energy =               -1090.0444772058233411
    Two-Electron Energy =                 432.2609774720399400
    DFT Exchange-Correlation Energy =       0.0000000000000000
    Empirical Dispersion Energy =           0.0000000000000000
    PCM Polarization Energy =               0.0000000000000000
    EFP Energy =                            0.0000000000000000
    Total Energy =                       -344.9046819566021895

  Mulliken Charges: (a.u.)
   Center  Symbol    Alpha    Beta     Spin     Total
       1     O     4.28510  4.28510  0.00000 -0.57020
       2     C     2.60899  2.60899  0.00000  0.78202
       3     C     3.20741  3.20741  0.00000 -0.41482
       4     O     4.30615  4.30615  0.00000 -0.61229
       5     C     3.15587  3.15587  0.00000 -0.31174
       6     H     0.40023  0.40023  0.00000  0.19955
       7     H     0.39914  0.39914  0.00000  0.20173
       8     C     3.24331  3.24331  0.00000 -0.48662
       9     H     0.40081  0.40081  0.00000  0.19838
      10     H     0.41571  0.41571  0.00000  0.16859
      11     H     0.42067  0.42067  0.00000  0.15866
      12     H     0.41593  0.41593  0.00000  0.16814
      13     H     0.42196  0.42196  0.00000  0.15609
      14     C     3.09240  3.09240  0.00000 -0.18481
      15     H     0.40901  0.40901  0.00000  0.18198
      16     H     0.40835  0.40835  0.00000  0.18330
      17     H     0.40897  0.40897  0.00000  0.18206

   Total alpha = 28.00000, Total beta = 28.00000, Total charge =  0.00000
