  ==> Input File <==

--------------------------------------------------------------------------
set {
	reference rhf
	basis 6-31G*
}

set_num_threads( 4 )
memory 2 gb

molecule MOL {
0 1

H	 -2.055422	 -0.357084	 1.002811
O	 -2.035884	 -0.060112	 0.102722
C	 -0.955155	 0.788182	 -0.092531
C	 0.353668	 0.040312	 -0.004810
H	 -0.985057	 1.290372	 -1.054184
H	 -0.974469	 1.533190	 0.688632
F	 0.394464	 -0.937475	 -0.903053
F	 1.368604	 0.853376	 -0.249821
F	 0.546173	 -0.502608	 1.179981

	symmetry c1
}
set optking {
	frozen_dihedral = ("
		1 2 3 5
	")
}

ee = optimize('scf')
oeprop('DIPOLE', 'QUADRUPOLE', 'MULLIKEN_CHARGES')
f=open( 'psi4out.xyz', 'w' )
f.write( "9  " )
f.write( str(ee) + "\n" )
f.write( MOL.save_string_xyz() )
f.close()
--------------------------------------------------------------------------

    Molecular point group: c1
  Charge       = 0
  Multiplicity = 1
  Basis Set: 6-31G*
  Basis Set:
  @DF-RHF Final Energy:  -450.66049373992018
    Total Energy =                       -450.6604937399200139
    Molecular point group: c1
  Basis Set: 6-31G*
  Basis Set:
  Basis Set: 6-31G*
  Basis Set:
  @DF-RHF Final Energy:  -450.66239156442464
    Total Energy =                       -450.6623915644248086
  Basis Set: 6-31G*
  Basis Set:
  Basis Set: 6-31G*
  Basis Set:
  @DF-RHF Final Energy:  -450.66279485239085
    Total Energy =                       -450.6627948523910163
  Basis Set: 6-31G*
  Basis Set:
  Basis Set: 6-31G*
  Basis Set:
  @DF-RHF Final Energy:  -450.66280756559462
    Total Energy =                       -450.6628075655946191
  Basis Set: 6-31G*
  Basis Set:
  Basis Set: 6-31G*
  Basis Set:
  @DF-RHF Final Energy:  -450.66280950977182
    Total Energy =                       -450.6628095097717051
  Basis Set: 6-31G*
  Basis Set:
  Charge       = 0
  Multiplicity = 1
  Basis Set: 6-31G*
  Basis Set:

    Orbital Energies (a.u.)
    -----------------------

    Doubly Occupied:

       1A    -26.342790     2A    -26.342648     3A    -26.338445
       4A    -20.590646     5A    -11.499390     6A    -11.309754
       7A     -1.739373     8A     -1.638185     9A     -1.636034
      10A     -1.402634    11A     -1.047935    12A     -0.923115
      13A     -0.829777    14A     -0.828028    15A     -0.804309
      16A     -0.727914    17A     -0.711039    18A     -0.697382
      19A     -0.664114    20A     -0.657998    21A     -0.641767
      22A     -0.628862    23A     -0.612899    24A     -0.531591
      25A     -0.480530

  @DF-RHF Final Energy:  -450.66280965891104

   => Energetics <=

    Nuclear Repulsion Energy =            277.0372083779662375
    One-Electron Energy =               -1176.1457166296313517
    Two-Electron Energy =                 448.4456985927540131
    DFT Exchange-Correlation Energy =       0.0000000000000000
    Empirical Dispersion Energy =           0.0000000000000000
    PCM Polarization Energy =               0.0000000000000000
    EFP Energy =                            0.0000000000000000
    Total Energy =                       -450.6628096589111578
    Molecular point group: c1
  Basis Set: 6-31G*
  Basis Set:

  -Total Gradient:
     Atom            X                  Y                   Z
    ------   -----------------  -----------------  -----------------
       1       -0.000332924361     0.000422263587     0.000118239344
       2        0.000334648187    -0.000464606707    -0.000082556638
       3        0.000218371151    -0.000326697716    -0.000202972531
       4       -0.000005116018    -0.000083211922    -0.000009630402
       5       -0.000241907095     0.000380029226     0.000181478379
       6        0.000009903797     0.000001076143    -0.000008319283
       7       -0.000008436717     0.000001341279    -0.000031153364
       8        0.000027257288     0.000029751941     0.000013999032
       9       -0.000001796238     0.000040054168     0.000020915459

  **** Optimization is complete! (in 6 steps) ****
    Final optimized geometry and variables:
    Molecular point group: c1

    Geometry (in Angstrom), charge = 0, multiplicity = 1:

    H           -2.060200382111    -0.339296820491     1.012106991856
    O           -2.034843701342    -0.065366571042     0.105040031870
    C           -0.956931383975     0.783480905426    -0.104116468396
    C            0.352046248305     0.033594402164    -0.040713825709
    H           -1.058843283486     1.213010058502    -1.089501132492
    H           -0.911129409056     1.589136935442     0.621426595562
    F            0.446562322348    -0.895324391796    -0.969963906939
    F            1.369429841729     0.866784634133    -0.192961769728
    F            0.493016739785    -0.563167497457     1.137111278862

  Mulliken Charges: (a.u.)
   Center  Symbol    Alpha    Beta     Spin     Total
       1     H     0.27239  0.27239  0.00000  0.45521
       2     O     4.36130  4.36130  0.00000 -0.72259
       3     C     3.05469  3.05469  0.00000 -0.10939
       4     C     2.46310  2.46310  0.00000  1.07380
       5     H     0.39551  0.39551  0.00000  0.20899
       6     H     0.40977  0.40977  0.00000  0.18046
       7     F     4.67506  4.67506  0.00000 -0.35012
       8     F     4.68209  4.68209  0.00000 -0.36419
       9     F     4.68609  4.68609  0.00000 -0.37218

   Total alpha = 25.00000, Total beta = 25.00000, Total charge = -0.00000
