  ==> Input File <==

--------------------------------------------------------------------------
set {
	reference rhf
	basis 6-31G*
}

set_num_threads( 1 )
memory 2 gb

molecule MOL {
0 1

H	 -3.261111	 -0.295142	 1.469456
C	 -3.306842	 -0.277400	 0.373456
C	 -2.660244	 0.921717	 -0.272021
O	 -3.838538	 -1.161155	 -0.216482
C	 -3.085544	 1.103119	 -1.735739
H	 -2.893559	 1.797528	 0.322309
H	 -1.582937	 0.766171	 -0.228785
C	 -4.563768	 1.464600	 -1.901517
H	 -2.471852	 1.882189	 -2.178138
H	 -2.865667	 0.192757	 -2.291304
C	 -4.970693	 1.653513	 -3.364233
H	 -4.771551	 2.376769	 -1.345981
H	 -5.185240	 0.691542	 -1.453528
C	 -6.445727	 2.030678	 -3.525384
H	 -4.339986	 2.419058	 -3.809074
H	 -4.772643	 0.734952	 -3.915056
C	 -6.920289	 2.149959	 -4.978186
H	 -6.636072	 2.969468	 -3.007566
H	 -7.053458	 1.279995	 -3.024536
C	 -6.283433	 3.298265	 -5.762677
H	 -7.998925	 2.285943	 -4.976562
H	 -6.734282	 1.211297	 -5.496103
H	 -6.439726	 4.248682	 -5.259142
H	 -5.214423	 3.161710	 -5.887354
H	 -6.718906	 3.375041	 -6.754374

	symmetry c1
}
set optking {
	frozen_dihedral = ("
		6 3 5 8,
		3 5 8 12,
		12 8 11 14,
		8 11 14 18,
		20 17 14 18
	")
}

ee = energy('scf')
oeprop('DIPOLE', 'QUADRUPOLE', 'MULLIKEN_CHARGES')
f=open( 'psi4out.xyz', 'w' )
f.write( "25  " )
f.write( str(ee) + "\n" )
f.write( MOL.save_string_xyz() )
f.close()
--------------------------------------------------------------------------

    Molecular point group: c1

    Geometry (in Angstrom), charge = 0, multiplicity = 1:

       Center              X                  Y                   Z               Mass
    ------------   -----------------  -----------------  -----------------  -----------------
           H          1.420383514966    -1.535278954455     3.855250587946     1.007825032070
           C          1.374652514966    -1.517536954455     2.759250587946    12.000000000000
           C          2.021250514966    -0.318419954455     2.113773587946    12.000000000000
           O          0.842956514966    -2.401291954455     2.169312587946    15.994914619560
           C          1.595950514966    -0.137017954455     0.650055587946    12.000000000000
           H          1.787935514966     0.557391045545     2.708103587946     1.007825032070
           H          3.098557514966    -0.473965954455     2.157009587946     1.007825032070
           C          0.117726514966     0.224463045545     0.484277587946    12.000000000000
           H          2.209642514966     0.642052045545     0.207656587946     1.007825032070
           H          1.815827514966    -1.047379954455     0.094490587946     1.007825032070
           C         -0.289198485034     0.413376045545    -0.978438412054    12.000000000000
           H         -0.090056485034     1.136632045545     1.039813587946     1.007825032070
           H         -0.503745485034    -0.548594954455     0.932266587946     1.007825032070
           C         -1.764232485034     0.790541045545    -1.139589412054    12.000000000000
           H          0.341508514966     1.178921045545    -1.423279412054     1.007825032070
           H         -0.091148485034    -0.505184954455    -1.529261412054     1.007825032070
           C         -2.238794485034     0.909822045545    -2.592391412054    12.000000000000
           H         -1.954577485034     1.729331045545    -0.621771412054     1.007825032070
           H         -2.371963485034     0.039858045545    -0.638741412054     1.007825032070
           C         -1.601938485034     2.058128045545    -3.376882412054    12.000000000000
           H         -3.317430485034     1.045806045545    -2.590767412054     1.007825032070
           H         -2.052787485034    -0.028839954455    -3.110308412054     1.007825032070
           H         -1.758231485034     3.008545045545    -2.873347412054     1.007825032070
           H         -0.532928485034     1.921573045545    -3.501559412054     1.007825032070
           H         -2.037411485034     2.134904045545    -4.368579412054     1.007825032070

  Charge       = 0
  Multiplicity = 1
  Basis Set: 6-31G*
  Basis Set:

    Orbital Energies (a.u.)
    -----------------------

    Doubly Occupied:

       1A    -20.564594     2A    -11.328860     3A    -11.236940
       4A    -11.221958     5A    -11.212873     6A    -11.212458
       7A    -11.211257     8A    -11.210647     9A    -11.206464
      10A     -1.405525    11A     -1.094316    12A     -1.063349
      13A     -1.009007    14A     -0.940463    15A     -0.874952
      16A     -0.816571    17A     -0.776136    18A     -0.763703
      19A     -0.687406    20A     -0.645787    21A     -0.627579
      22A     -0.627307    23A     -0.605051    24A     -0.588142
      25A     -0.562238    26A     -0.544924    27A     -0.531030
      28A     -0.519355    29A     -0.500558    30A     -0.495879
      31A     -0.481608    32A     -0.470615    33A     -0.457628
      34A     -0.452173    35A     -0.435109    36A     -0.411187

  @DF-RHF Final Energy:  -387.12240725069506

   => Energetics <=

    Nuclear Repulsion Energy =            445.1639899735010317
    One-Electron Energy =               -1406.9856731658055651
    Two-Electron Energy =                 574.6992759416077661
    DFT Exchange-Correlation Energy =       0.0000000000000000
    Empirical Dispersion Energy =           0.0000000000000000
    PCM Polarization Energy =               0.0000000000000000
    EFP Energy =                            0.0000000000000000
    Total Energy =                       -387.1224072506968241

  Mulliken Charges: (a.u.)
   Center  Symbol    Alpha    Beta     Spin     Total
       1     H     0.42748  0.42748  0.00000  0.14503
       2     C     2.83655  2.83655  0.00000  0.32691
       3     C     3.21357  3.21357  0.00000 -0.42713
       4     O     4.23789  4.23789  0.00000 -0.47577
       5     C     3.15296  3.15296  0.00000 -0.30593
       6     H     0.40963  0.40963  0.00000  0.18073
       7     H     0.40178  0.40178  0.00000  0.19644
       8     C     3.15793  3.15793  0.00000 -0.31585
       9     H     0.41984  0.41984  0.00000  0.16032
      10     H     0.40831  0.40831  0.00000  0.18338
      11     C     3.15423  3.15423  0.00000 -0.30846
      12     H     0.42774  0.42774  0.00000  0.14452
      13     H     0.40872  0.40872  0.00000  0.18257
      14     C     3.15288  3.15288  0.00000 -0.30575
      15     H     0.42344  0.42344  0.00000  0.15312
      16     H     0.42097  0.42097  0.00000  0.15807
      17     C     3.15245  3.15245  0.00000 -0.30490
      18     H     0.42548  0.42548  0.00000  0.14903
      19     H     0.42049  0.42049  0.00000  0.15901
      20     C     3.24101  3.24101  0.00000 -0.48202
      21     H     0.42129  0.42129  0.00000  0.15741
      22     H     0.42259  0.42259  0.00000  0.15482
      23     H     0.42295  0.42295  0.00000  0.15410
      24     H     0.42030  0.42030  0.00000  0.15940
      25     H     0.41953  0.41953  0.00000  0.16093

   Total alpha = 36.00000, Total beta = 36.00000, Total charge =  0.00000
