                              Psi4 1.0.54 Driver

  ==> Input File <==

--------------------------------------------------------------------------
set {
	reference rhf
	basis cc-pvtz
}

set_num_threads( 4 )
memory 2 gb

molecule MOL {
0 1

H	 1.323104	 6.611667	 -0.453079
C	 0.308828	 6.310426	 -0.688378
C	 0.162222	 4.792998	 -0.653131
H	 -0.351509	 6.781240	 0.031695
H	 0.065184	 6.706414	 -1.669006
C	 -1.253424	 4.330539	 -0.990843
H	 0.435954	 4.430065	 0.330886
H	 0.861688	 4.348381	 -1.357322
C	 -1.428660	 2.815375	 -0.969514
H	 -1.955430	 4.776446	 -0.297169
H	 -1.516351	 4.689941	 -1.981542
C	 -1.409147	 2.193870	 0.416789
H	 -2.387862	 2.549049	 -1.406282
H	 -0.679382	 2.328529	 -1.586833
C	 -1.180025	 0.697761	 0.509157
O	 -1.586719	 2.845193	 1.395319
C	 -2.285431	 -0.137488	 -0.145671
H	 -1.101092	 0.453550	 1.559856
H	 -0.227658	 0.466905	 0.039157
C	 -3.646545	 0.082747	 0.508954
H	 -2.348635	 0.118247	 -1.199806
H	 -2.034895	 -1.192387	 -0.096473
C	 -4.757412	 -0.737227	 -0.138149
H	 -3.900211	 1.137405	 0.459735
H	 -3.580878	 -0.166775	 1.564416
H	 -4.867876	 -0.486707	 -1.187777
H	 -4.549650	 -1.800049	 -0.072540
H	 -5.709585	 -0.556397	 0.346597

	symmetry c1
}
set optking {
	frozen_dihedral = ("
		12 15 17 21
	")
}

ee,wfn = optimize('scf', return_wfn=True)
oeprop( wfn, 'DIPOLE', 'QUADRUPOLE', 'MULLIKEN_CHARGES')
f=open( 'psi4out.xyz', 'w' )
f.write( "28  " )
f.write( str(ee) + "\n" )
f.write( MOL.save_string_xyz() )
f.close()
--------------------------------------------------------------------------

    Molecular point group: c1
  Charge       = 0
  Multiplicity = 1
  Basis Set: CC-PVTZ
  Basis Set:
  @DF-RHF Final Energy:  -426.31880346987248
    Total Energy =                       -426.3188034698725914
    Molecular point group: c1
  Basis Set: CC-PVTZ
  Basis Set:
  Basis Set: CC-PVTZ
  Basis Set:
  @DF-RHF Final Energy:  -426.31872325165455
    Total Energy =                       -426.3187232516545464
  Basis Set: CC-PVTZ
  Basis Set:
  Basis Set: CC-PVTZ
  Basis Set:
  @DF-RHF Final Energy:  -426.31680171364360
    Total Energy =                       -426.3168017136430308
  Basis Set: CC-PVTZ
  Basis Set:
  Basis Set: CC-PVTZ
  Basis Set:
  @DF-RHF Final Energy:  -426.31914060814427
    Total Energy =                       -426.3191406081443802
  Basis Set: CC-PVTZ
  Basis Set:
  Basis Set: CC-PVTZ
  Basis Set:
  @DF-RHF Final Energy:  -426.31917649757895
    Total Energy =                       -426.3191764975792921
  Basis Set: CC-PVTZ
  Basis Set:
  Basis Set: CC-PVTZ
  Basis Set:
  @DF-RHF Final Energy:  -426.31918534837405
    Total Energy =                       -426.3191853483734803
  Basis Set: CC-PVTZ
  Basis Set:
  Basis Set: CC-PVTZ
  Basis Set:
  @DF-RHF Final Energy:  -426.31918697142612
    Total Energy =                       -426.3191869714260065
  Basis Set: CC-PVTZ
  Basis Set:
  Charge       = 0
  Multiplicity = 1
  Basis Set: CC-PVTZ
  Basis Set:

    Orbital Energies (a.u.)
    -----------------------

    Doubly Occupied:

       1A    -20.536738     2A    -11.316677     3A    -11.229345
       4A    -11.228588     5A    -11.227139     6A    -11.221126
       7A    -11.214906     8A    -11.213062     9A    -11.211002
      10A    -11.204114    11A     -1.396710    12A     -1.095875
      13A     -1.078341    14A     -1.021908    15A     -0.992045
      16A     -0.907145    17A     -0.875092    18A     -0.813197
      19A     -0.798590    20A     -0.722040    21A     -0.667123
      22A     -0.653446    23A     -0.631205    24A     -0.614942
      25A     -0.610468    26A     -0.588444    27A     -0.585526
      28A     -0.574155    29A     -0.544823    30A     -0.535378
      31A     -0.519590    32A     -0.511384    33A     -0.504434
      34A     -0.485164    35A     -0.476782    36A     -0.473572
      37A     -0.468098    38A     -0.463814    39A     -0.457712
      40A     -0.394935

  @DF-RHF Final Energy:  -426.31918718132897

   => Energetics <=

    Nuclear Repulsion Energy =            541.5638001520799207
    One-Electron Energy =               -1651.6366981381743244
    Two-Electron Energy =                 683.7537108047650918
    DFT Exchange-Correlation Energy =       0.0000000000000000
    Empirical Dispersion Energy =           0.0000000000000000
    PCM Polarization Energy =               0.0000000000000000
    EFP Energy =                            0.0000000000000000
    Total Energy =                       -426.3191871813293119
    Molecular point group: c1
  Basis Set: CC-PVTZ
  Basis Set:

  -Total Gradient:
     Atom            X                  Y                   Z
    ------   -----------------  -----------------  -----------------
       1        0.000001110362    -0.000000886149     0.000001458867
       2       -0.000002136395     0.000000838017     0.000001380072
       3        0.000008005519     0.000005100262    -0.000012044544
       4       -0.000001552808     0.000001902313    -0.000000126639
       5        0.000000759968     0.000000851491    -0.000000777391
       6       -0.000003797306     0.000009163918     0.000000415058
       7        0.000002057717    -0.000004255453     0.000002868459
       8        0.000000841318     0.000000681788    -0.000000069744
       9        0.000009872815     0.000000355077    -0.000023077612
      10       -0.000003492246    -0.000000298903    -0.000000232566
      11        0.000002293206    -0.000003695852     0.000002027365
      12        0.000017555535    -0.000021012901    -0.000037571153
      13       -0.000001199890     0.000003122449     0.000007127851
      14       -0.000000554861     0.000004536469    -0.000003149502
      15       -0.000023543450     0.000030539512     0.000113836267
      16       -0.000002761165     0.000002970586    -0.000003751373
      17        0.000076953924    -0.000093472355    -0.000061123243
      18       -0.000001305925    -0.000001276900    -0.000001622419
      19       -0.000008664335    -0.000008044655     0.000000642653
      20       -0.000007162336     0.000002355646     0.000004607046
      21       -0.000079484572     0.000068367397     0.000025112873
      22        0.000007990297     0.000000329594     0.000001008252
      23        0.000008849188    -0.000004537982    -0.000015015009
      24        0.000000393370    -0.000009066851     0.000006438409
      25        0.000000395628     0.000008788613    -0.000026330419
      26        0.000001582523    -0.000006153496     0.000018248648
      27       -0.000000017632     0.000011081967    -0.000003339668
      28       -0.000002988450     0.000001716400     0.000003059464

  **** Optimization is complete! (in 8 steps) ****
    Final optimized geometry and variables:
    Molecular point group: c1

    Geometry (in Angstrom), charge = 0, multiplicity = 1:

    H            3.108878368613     4.245376459431    -0.406406496927
    C            2.080679874316     3.970071449780    -0.610998901300
    C            1.898906010994     2.456385553919    -0.580538073883
    H            1.455128614005     4.451376299524     0.132798986595
    H            1.815514855988     4.378598572242    -1.580836498171
    C            0.462521514839     2.030206721738    -0.875732412059
    H            2.194884623633     2.080141388760     0.391923955016
    H            2.564673206175     2.000220109827    -1.309543382404
    C            0.251320648436     0.519434026509    -0.857913468261
    H           -0.206217395857     2.488425509095    -0.157651794820
    H            0.177497530561     2.402345568094    -1.855539121662
    C            0.298200543459    -0.111390832162     0.523897129907
    H           -0.726102477254     0.279353337382    -1.268585337198
    H            0.970092277019     0.019202640069    -1.500189841655
    C            0.499213151677    -1.613490789624     0.598541056169
    O            0.176489828393     0.539518027190     1.511119905890
    C           -0.587915922450    -2.444131298745    -0.094555346544
    H            0.560929406677    -1.875250612226     1.646335987051
    H            1.460071621276    -1.837240834610     0.143255398084
    C           -1.973007271778    -2.290066837103     0.529945310845
    H           -0.633366168263    -2.194064583038    -1.149964658787
    H           -0.291397906837    -3.486986707729    -0.046540471101
    C           -3.027167746118    -3.154186610723    -0.153574403920
    H           -2.282502429492    -1.249833106097     0.493074204490
    H           -1.918477615338    -2.548375414564     1.583051291986
    H           -3.128481826218    -2.894230151627    -1.202138366026
    H           -2.766975318008    -4.205983687786    -0.098834589816
    H           -3.997241494955    -3.028959838608     0.312663577622

  Mulliken Charges: (a.u.)
   Center  Symbol    Alpha    Beta     Spin     Total
       1     H     0.44863  0.44863  0.00000  0.10273
       2     C     3.15192  3.15192  0.00000 -0.30385
       3     C     3.08463  3.08463  0.00000 -0.16927
       4     H     0.45179  0.45179  0.00000  0.09642
       5     H     0.45686  0.45686  0.00000  0.08628
       6     C     3.08763  3.08763  0.00000 -0.17526
       7     H     0.44587  0.44587  0.00000  0.10826
       8     H     0.45845  0.45845  0.00000  0.08309
       9     C     3.12729  3.12729  0.00000 -0.25457
      10     H     0.44415  0.44415  0.00000  0.11171
      11     H     0.44763  0.44763  0.00000  0.10473
      12     C     2.86152  2.86152  0.00000  0.27696
      13     H     0.43484  0.43484  0.00000  0.13032
      14     H     0.44249  0.44249  0.00000  0.11503
      15     C     3.10453  3.10453  0.00000 -0.20906
      16     O     4.18048  4.18048  0.00000 -0.36096
      17     C     3.11579  3.11579  0.00000 -0.23158
      18     H     0.43795  0.43795  0.00000  0.12410
      19     H     0.44113  0.44113  0.00000  0.11775
      20     C     3.08267  3.08267  0.00000 -0.16535
      21     H     0.44898  0.44898  0.00000  0.10203
      22     H     0.44028  0.44028  0.00000  0.11943
      23     C     3.15040  3.15040  0.00000 -0.30080
      24     H     0.45029  0.45029  0.00000  0.09941
      25     H     0.44815  0.44815  0.00000  0.10371
      26     H     0.45539  0.45539  0.00000  0.08921
      27     H     0.45426  0.45426  0.00000  0.09149
      28     H     0.44599  0.44599  0.00000  0.10803

   Total alpha = 40.00000, Total beta = 40.00000, Total charge = -0.00000

*** Psi4 exiting successfully. Buy a developer a beer!
