  ==> Input File <==

--------------------------------------------------------------------------
set {
	reference rhf
	basis 6-31G*
}

set_num_threads( 1 )
memory 2 gb

molecule MOL {
0 1

H	 3.761792	 0.210836	 -0.657978
N	 3.092854	 -0.246221	 -0.068770
C	 1.865559	 0.531981	 0.018834
H	 3.516918	 -0.335952	 0.835082
C	 0.645745	 -0.382037	 -0.029944
H	 1.841966	 1.207024	 -0.831236
H	 1.815756	 1.155410	 0.915079
C	 -0.679275	 0.379305	 0.025956
H	 0.698998	 -0.976915	 -0.937203
H	 0.693479	 -1.083846	 0.802235
C	 -1.903357	 -0.536963	 -0.023547
H	 -0.726309	 1.082987	 -0.803784
H	 -0.717680	 0.977832	 0.934877
C	 -3.225172	 0.228290	 0.028445
H	 -1.867824	 -1.134999	 -0.931459
H	 -1.860449	 -1.239604	 0.805977
H	 -3.313397	 0.915643	 -0.808262
H	 -4.073500	 -0.448134	 -0.008893
H	 -3.306061	 0.809945	 0.942516

	symmetry c1
}
set optking {
	frozen_dihedral = ("
		6 3 5 9,
		12 8 5 9,
		12 8 11 15
	")
}

ee = energy('scf')
oeprop('DIPOLE', 'QUADRUPOLE', 'MULLIKEN_CHARGES')
f=open( 'psi4out.xyz', 'w' )
f.write( "19  " )
f.write( str(ee) + "\n" )
f.write( MOL.save_string_xyz() )
f.close()
--------------------------------------------------------------------------

    Molecular point group: c1

    Geometry (in Angstrom), charge = 0, multiplicity = 1:

       Center              X                  Y                   Z               Mass
    ------------   -----------------  -----------------  -----------------  -----------------
           H          3.759639642125     0.206838396761    -0.652615474024     1.007825032070
           N          3.090701642125    -0.250218603239    -0.063407474024    14.003074004780
           C          1.863406642125     0.527983396761     0.024196525976    12.000000000000
           H          3.514765642125    -0.339949603239     0.840444525976     1.007825032070
           C          0.643592642125    -0.386034603239    -0.024581474024    12.000000000000
           H          1.839813642125     1.203026396761    -0.825873474024     1.007825032070
           H          1.813603642125     1.151412396761     0.920441525976     1.007825032070
           C         -0.681427357875     0.375307396761     0.031318525976    12.000000000000
           H          0.696845642125    -0.980912603239    -0.931840474024     1.007825032070
           H          0.691326642125    -1.087843603239     0.807597525976     1.007825032070
           C         -1.905509357875    -0.540960603239    -0.018184474024    12.000000000000
           H         -0.728461357875     1.078989396761    -0.798421474024     1.007825032070
           H         -0.719832357875     0.973834396761     0.940239525976     1.007825032070
           C         -3.227324357875     0.224292396761     0.033807525976    12.000000000000
           H         -1.869976357875    -1.138996603239    -0.926096474024     1.007825032070
           H         -1.862601357875    -1.243601603239     0.811339525976     1.007825032070
           H         -3.315549357875     0.911645396761    -0.802899474024     1.007825032070
           H         -4.075652357875    -0.452131603239    -0.003530474024     1.007825032070
           H         -3.308213357875     0.805947396761     0.947878525976     1.007825032070

  Charge       = 0
  Multiplicity = 1
  Basis Set: 6-31G*
  Basis Set:

    Orbital Energies (a.u.)
    -----------------------

    Doubly Occupied:

       1A    -15.532309     2A    -11.240065     3A    -11.211620
       4A    -11.209326     5A    -11.205802     6A    -11.203025
       7A     -1.176370     8A     -1.070362     9A     -0.996322
      10A     -0.898960    11A     -0.809634    12A     -0.784973
      13A     -0.675201    14A     -0.635038    15A     -0.615161
      16A     -0.578858    17A     -0.567386    18A     -0.552456
      19A     -0.518354    20A     -0.503480    21A     -0.472680
      22A     -0.461994    23A     -0.457008    24A     -0.454540
      25A     -0.379004

  @DF-RHF Final Energy:  -251.34905329645431

   => Energetics <=

    Nuclear Repulsion Energy =            245.4597177078014738
    One-Electron Energy =                -825.1978031459348131
    Two-Electron Energy =                 328.3890321416789675
    DFT Exchange-Correlation Energy =       0.0000000000000000
    Empirical Dispersion Energy =           0.0000000000000000
    PCM Polarization Energy =               0.0000000000000000
    EFP Energy =                            0.0000000000000000
    Total Energy =                       -251.3490532964543718

  Mulliken Charges: (a.u.)
   Center  Symbol    Alpha    Beta     Spin     Total
       1     H     0.33153  0.33153  0.00000  0.33694
       2     N     3.92277  3.92277  0.00000 -0.84554
       3     C     3.06875  3.06875  0.00000 -0.13751
       4     H     0.33321  0.33321  0.00000  0.33358
       5     C     3.13997  3.13997  0.00000 -0.27994
       6     H     0.42430  0.42430  0.00000  0.15139
       7     H     0.42947  0.42947  0.00000  0.14107
       8     C     3.15667  3.15667  0.00000 -0.31335
       9     H     0.41741  0.41741  0.00000  0.16518
      10     H     0.42472  0.42472  0.00000  0.15056
      11     C     3.15026  3.15026  0.00000 -0.30052
      12     H     0.42565  0.42565  0.00000  0.14871
      13     H     0.42611  0.42611  0.00000  0.14778
      14     C     3.23904  3.23904  0.00000 -0.47809
      15     H     0.42238  0.42238  0.00000  0.15523
      16     H     0.42306  0.42306  0.00000  0.15387
      17     H     0.42234  0.42234  0.00000  0.15532
      18     H     0.41978  0.41978  0.00000  0.16044
      19     H     0.42256  0.42256  0.00000  0.15487

   Total alpha = 25.00000, Total beta = 25.00000, Total charge = -0.00000
