  ==> Input File <==

--------------------------------------------------------------------------
set {
	reference rhf
	basis 6-31G*
}

set_num_threads( 4 )
memory 2 gb

molecule MOL {
0 1

H	 3.302973	 -0.411670	 -0.003647
C	 2.242404	 -0.233868	 -0.002863
C	 1.365620	 -1.291240	 0.207077
C	 1.759025	 1.047143	 -0.211034
H	 1.748538	 -2.282716	 0.367935
C	 0.003009	 -1.066407	 0.208711
H	 2.440286	 1.862538	 -0.373083
C	 0.391811	 1.271394	 -0.209162
H	 -0.691228	 -1.869820	 0.369066
C	 -0.488460	 0.219100	 0.000000
H	 0.009969	 2.264945	 -0.370412
C	 -1.949954	 0.470334	 0.000000
O	 -2.781584	 -0.381627	 0.000000
H	 -2.238022	 1.526388	 0.000000

	symmetry c1
}
set optking {
	frozen_dihedral = ("
		8 10 12 14
	")
}

ee = optimize('scf')
oeprop('DIPOLE', 'QUADRUPOLE', 'MULLIKEN_CHARGES')
f=open( 'psi4out.xyz', 'w' )
f.write( "14  " )
f.write( str(ee) + "\n" )
f.write( MOL.save_string_xyz() )
f.close()
--------------------------------------------------------------------------

    Molecular point group: c1
  Charge       = 0
  Multiplicity = 1
  Basis Set: 6-31G*
  Basis Set:
  @DF-RHF Final Energy:  -343.43256478953089
    Total Energy =                       -343.4325647895309999
    Molecular point group: c1
  Basis Set: 6-31G*
  Basis Set:
  Basis Set: 6-31G*
  Basis Set:
  @DF-RHF Final Energy:  -343.43177836364958
    Total Energy =                       -343.4317783636495278
  Basis Set: 6-31G*
  Basis Set:
  Basis Set: 6-31G*
  Basis Set:
  @DF-RHF Final Energy:  -343.43261960949280
    Total Energy =                       -343.4326196094930310
  Basis Set: 6-31G*
  Basis Set:
  Basis Set: 6-31G*
  Basis Set:
  @DF-RHF Final Energy:  -343.43262925101391
    Total Energy =                       -343.4326292510136795
  Basis Set: 6-31G*
  Basis Set:
  Charge       = 0
  Multiplicity = 1
  Basis Set: 6-31G*
  Basis Set:

    Orbital Energies (a.u.)
    -----------------------

    Doubly Occupied:

       1A    -20.562023     2A    -11.331219     3A    -11.254259
       4A    -11.251376     5A    -11.247526     6A    -11.245774
       7A    -11.245135     8A    -11.243225     9A     -1.402716
      10A     -1.171157    11A     -1.047249    12A     -1.031534
      13A     -0.889312    14A     -0.843940    15A     -0.790738
      16A     -0.720806    17A     -0.677717    18A     -0.651468
      19A     -0.619090    20A     -0.615150    21A     -0.602350
      22A     -0.554757    23A     -0.526150    24A     -0.506519
      25A     -0.501222    26A     -0.421564    27A     -0.350049
      28A     -0.346728

  @DF-RHF Final Energy:  -343.43262945060309

   => Energetics <=

    Nuclear Repulsion Energy =            323.2286164278396541
    One-Electron Energy =               -1106.0209866032378159
    Two-Electron Energy =                 439.3597407247950741
    DFT Exchange-Correlation Energy =       0.0000000000000000
    Empirical Dispersion Energy =           0.0000000000000000
    PCM Polarization Energy =               0.0000000000000000
    EFP Energy =                            0.0000000000000000
    Total Energy =                       -343.4326294506031445
    Molecular point group: c1
  Basis Set: 6-31G*
  Basis Set:

  -Total Gradient:
     Atom            X                  Y                   Z
    ------   -----------------  -----------------  -----------------
       1       -0.000000461171    -0.000000046961    -0.000013588582
       2       -0.000004164428    -0.000023906770     0.000043006490
       3        0.000030134599     0.000015294878     0.000028402826
       4       -0.000025963009     0.000012240228    -0.000039205597
       5       -0.000001924907    -0.000001276552    -0.000003224153
       6       -0.000023673674     0.000009980094    -0.000069993363
       7        0.000002499299    -0.000000394944     0.000006490273
       8       -0.000002515785    -0.000282964953    -0.001576387005
       9        0.000001683753     0.000003517314     0.000023594211
      10        0.000020453502     0.000410937493     0.002945533231
      11       -0.000002013609    -0.000002885191    -0.000000552809
      12        0.000017657152    -0.000155729369    -0.003316616765
      13        0.000003517539    -0.000010567447    -0.000002289558
      14       -0.000015229260     0.000025802180     0.001974830801

  **** Optimization is complete! (in 5 steps) ****
    Final optimized geometry and variables:
    Molecular point group: c1

    Geometry (in Angstrom), charge = 0, multiplicity = 1:

    H            3.302567209997    -0.412812091821    -0.010250319335
    C            2.242126364391    -0.234146919308    -0.006376698269
    C            1.364795864447    -1.291040285606     0.205105864473
    C            1.759173588837     1.046958869423    -0.213589548681
    H            1.747327514495    -2.282989839475     0.363869452286
    C            0.002375418908    -1.065895443754     0.207066890838
    H            2.440317618735     1.861492445705    -0.380412050200
    C            0.392051118660     1.273058392405    -0.203527907162
    H           -0.692216297171    -1.870172772106     0.361080244994
    C           -0.488311238725     0.221767215610     0.009364030316
    H            0.010941104103     2.267550960862    -0.361221934870
    C           -1.950519641012     0.469804996056    -0.009776307002
    O           -2.779846516268    -0.384027512054     0.012161503155
    H           -2.241566991034     1.524823871497    -0.026366409485

  Mulliken Charges: (a.u.)
   Center  Symbol    Alpha    Beta     Spin     Total
       1     H     0.39412  0.39412  0.00000  0.21177
       2     C     3.09118  3.09118  0.00000 -0.18235
       3     C     3.10433  3.10433  0.00000 -0.20866
       4     C     3.10444  3.10444  0.00000 -0.20888
       5     H     0.39395  0.39395  0.00000  0.21211
       6     C     3.08768  3.08768  0.00000 -0.17536
       7     H     0.39467  0.39467  0.00000  0.21065
       8     C     3.10205  3.10205  0.00000 -0.20409
       9     H     0.37744  0.37744  0.00000  0.24512
      10     C     3.05344  3.05344  0.00000 -0.10689
      11     H     0.39251  0.39251  0.00000  0.21498
      12     C     2.83253  2.83253  0.00000  0.33493
      13     O     4.24832  4.24832  0.00000 -0.49663
      14     H     0.42335  0.42335  0.00000  0.15330

   Total alpha = 28.00000, Total beta = 28.00000, Total charge =  0.00000
