  ==> Input File <==

--------------------------------------------------------------------------
set {
	reference rhf
	basis cc-pvtz
}

set_num_threads( 4 )
memory 2 gb

molecule MOL {
0 1

H	 -1.752232	 -2.214755	 -0.011938
C	 -1.343852	 -1.221619	 -0.018179
N	 -0.058800	 -1.097635	 -0.261688
C	 -2.148159	 -0.124236	 0.219734
C	 0.449026	 0.119242	 -0.273393
H	 -3.196988	 -0.237571	 0.417076
N	 -1.655094	 1.094230	 0.209506
C	 -0.370318	 1.215445	 -0.035100
C	 1.924033	 0.265863	 -0.538106
H	 0.033214	 2.210441	 -0.046812
C	 2.298392	 1.665223	 -1.029122
H	 2.454990	 0.053513	 0.382088
H	 2.233812	 -0.474469	 -1.266226
H	 3.369204	 1.741872	 -1.175480
H	 1.998862	 2.414645	 -0.308270
H	 1.813391	 1.890610	 -1.972266

	symmetry c1
}
set optking {
	frozen_dihedral = ("
		12 9 5 3
	")
}

ee = optimize('scf')
oeprop('DIPOLE', 'QUADRUPOLE', 'MULLIKEN_CHARGES')
f=open( 'psi4out.xyz', 'w' )
f.write( "16  " )
f.write( str(ee) + "\n" )
f.write( MOL.save_string_xyz() )
f.close()
--------------------------------------------------------------------------

    Molecular point group: c1
  Charge       = 0
  Multiplicity = 1
  Basis Set: CC-PVTZ
  Basis Set:
  @DF-RHF Final Energy:  -340.86824694834422
    Total Energy =                       -340.8682469483445061
    Molecular point group: c1
  Basis Set: CC-PVTZ
  Basis Set:
  Basis Set: CC-PVTZ
  Basis Set:
  @DF-RHF Final Energy:  -340.86940013472321
    Total Energy =                       -340.8694001347231506
  Basis Set: CC-PVTZ
  Basis Set:
  Basis Set: CC-PVTZ
  Basis Set:
  @DF-RHF Final Energy:  -340.87002868193059
    Total Energy =                       -340.8700286819305347
  Basis Set: CC-PVTZ
  Basis Set:
  Basis Set: CC-PVTZ
  Basis Set:
  @DF-RHF Final Energy:  -340.87008663080081
    Total Energy =                       -340.8700866308009267
  Basis Set: CC-PVTZ
  Basis Set:
  Basis Set: CC-PVTZ
  Basis Set:
  @DF-RHF Final Energy:  -340.87009686546679
    Total Energy =                       -340.8700968654670191
  Basis Set: CC-PVTZ
  Basis Set:
  Basis Set: CC-PVTZ
  Basis Set:
  @DF-RHF Final Energy:  -340.87009856603123
    Total Energy =                       -340.8700985660312881
  Basis Set: CC-PVTZ
  Basis Set:
  Charge       = 0
  Multiplicity = 1
  Basis Set: CC-PVTZ
  Basis Set:

    Orbital Energies (a.u.)
    -----------------------

    Doubly Occupied:

       1A    -15.579827     2A    -15.574771     3A    -11.279167
       4A    -11.271749     5A    -11.267177     6A    -11.267037
       7A    -11.232027     8A    -11.221626     9A     -1.315211
      10A     -1.222939    11A     -1.086817    12A     -1.016379
      13A     -0.909732    14A     -0.893816    15A     -0.831590
      16A     -0.716731    17A     -0.711917    18A     -0.653853
      19A     -0.629024    20A     -0.610737    21A     -0.573277
      22A     -0.565801    23A     -0.521107    24A     -0.512839
      25A     -0.507409    26A     -0.485058    27A     -0.431690
      28A     -0.397046    29A     -0.346414

  @DF-RHF Final Energy:  -340.87009859974853

   => Energetics <=

    Nuclear Repulsion Energy =            349.9563334355528923
    One-Electron Energy =               -1154.3873240217060356
    Two-Electron Energy =                 463.5608919864044424
    DFT Exchange-Correlation Energy =       0.0000000000000000
    Empirical Dispersion Energy =           0.0000000000000000
    PCM Polarization Energy =               0.0000000000000000
    EFP Energy =                            0.0000000000000000
    Total Energy =                       -340.8700985997487010
    Molecular point group: c1
  Basis Set: CC-PVTZ
  Basis Set:

  -Total Gradient:
     Atom            X                  Y                   Z
    ------   -----------------  -----------------  -----------------
       1        0.000003212386    -0.000001258482     0.000014123412
       2       -0.000022663698     0.000007508503    -0.000039127016
       3       -0.000036860517     0.000030879702    -0.000290003311
       4        0.000002254168    -0.000022014222     0.000004973849
       5        0.000086882776     0.000015250770     0.000473498764
       6        0.000000219064    -0.000001493253     0.000000397633
       7        0.000019170632     0.000011827219     0.000002383698
       8       -0.000010529022     0.000014504046    -0.000006519000
       9       -0.000002817019    -0.000367600189    -0.000224992504
      10       -0.000000992294     0.000002527165    -0.000013044722
      11       -0.000005890904     0.000009109318    -0.000005157228
      12       -0.000029896767     0.000302388889     0.000085238587
      13       -0.000001934646    -0.000003841513     0.000001047852
      14       -0.000002076494    -0.000003189911     0.000000654781
      15        0.000004055661     0.000001554858    -0.000001131474
      16       -0.000002133325     0.000003847106    -0.000002343323

  **** Optimization is complete! (in 7 steps) ****
    Final optimized geometry and variables:
    Molecular point group: c1

    Geometry (in Angstrom), charge = 0, multiplicity = 1:

    H           -1.638444866236    -2.505086024853     0.189916178716
    C           -1.258528922618    -1.500762917278     0.197756712644
    N            0.021754734249    -1.337557580715    -0.045421126403
    C           -2.091729774278    -0.429709521538     0.451072312840
    C            0.501565644137    -0.108520222718    -0.039860281658
    H           -3.137015265875    -0.572503952777     0.647850784914
    N           -1.629831108659     0.800356686304     0.456044813406
    C           -0.348452546908     0.961693069705     0.212674354711
    C            1.982870539318     0.040432950753    -0.294822466216
    H            0.016603434840     1.969096447820     0.215864611280
    C            2.442431696871     1.396030239516    -0.822698834686
    H            2.504220236715    -0.179501359580     0.632378806155
    H            2.262711199100    -0.741181924600    -0.988593054685
    H            3.501577387508     1.362036286723    -1.045350139366
    H            2.290275667818     2.189310574292    -0.101000689878
    H            1.919797942625     1.665387908333    -1.733444766042

  Mulliken Charges: (a.u.)
   Center  Symbol    Alpha    Beta     Spin     Total
       1     H     0.41383  0.41383  0.00000  0.17235
       2     C     3.04227  3.04227  0.00000 -0.08455
       3     N     3.59311  3.59311  0.00000 -0.18621
       4     C     3.04826  3.04826  0.00000 -0.09652
       5     C     2.95535  2.95535  0.00000  0.08930
       6     H     0.41405  0.41405  0.00000  0.17190
       7     N     3.58850  3.58850  0.00000 -0.17700
       8     C     3.07406  3.07406  0.00000 -0.14812
       9     C     3.06486  3.06486  0.00000 -0.12972
      10     H     0.41278  0.41278  0.00000  0.17443
      11     C     3.16030  3.16030  0.00000 -0.32060
      12     H     0.44600  0.44600  0.00000  0.10799
      13     H     0.44230  0.44230  0.00000  0.11541
      14     H     0.44346  0.44346  0.00000  0.11308
      15     H     0.45379  0.45379  0.00000  0.09243
      16     H     0.44708  0.44708  0.00000  0.10584

   Total alpha = 29.00000, Total beta = 29.00000, Total charge = -0.00000
