  ==> Input File <==

--------------------------------------------------------------------------
set {
	reference rhf
	basis 6-31G*
}

set_num_threads( 1 )
memory 2 gb

molecule MOL {
0 1

H	 -3.407059	 -1.043082	 0.000000
O	 -3.119761	 -0.140267	 0.000000
C	 -1.777559	 -0.059267	 0.000000
C	 -1.025127	 -0.218755	 -1.159918
C	 -1.153193	 0.193064	 1.215139
H	 -1.516909	 -0.414079	 -2.097633
C	 0.349453	 -0.125206	 -1.099935
H	 -1.755275	 0.312295	 2.095793
C	 0.222406	 0.283828	 1.259002
H	 0.942407	 -0.246120	 -1.987001
C	 0.989696	 0.127004	 0.109090
H	 0.706746	 0.479355	 2.200409
C	 2.461139	 0.226838	 0.171556
O	 3.190404	 0.105680	 -0.763457
H	 2.868513	 0.427448	 1.168034

	symmetry c1
}
set optking {
	frozen_dihedral = ("
		7 11 13 14
	")
}

ee = energy('scf')
oeprop('DIPOLE', 'QUADRUPOLE', 'MULLIKEN_CHARGES')
f=open( 'psi4out.xyz', 'w' )
f.write( "15  " )
f.write( str(ee) + "\n" )
f.write( MOL.save_string_xyz() )
f.close()
--------------------------------------------------------------------------

    Molecular point group: c1

    Geometry (in Angstrom), charge = 0, multiplicity = 1:

       Center              X                  Y                   Z               Mass
    ------------   -----------------  -----------------  -----------------  -----------------
           H         -3.405036800979    -1.076587342894     0.040002891944     1.007825032070
           O         -3.117738800979    -0.173772342894     0.040002891944    15.994914619560
           C         -1.775536800979    -0.092772342894     0.040002891944    12.000000000000
           C         -1.023104800979    -0.252260342894    -1.119915108056    12.000000000000
           C         -1.151170800979     0.159558657106     1.255141891944    12.000000000000
           H         -1.514886800979    -0.447584342894    -2.057630108056     1.007825032070
           C          0.351475199021    -0.158711342894    -1.059932108056    12.000000000000
           H         -1.753252800979     0.278789657106     2.135795891944     1.007825032070
           C          0.224428199021     0.250322657106     1.299004891944    12.000000000000
           H          0.944429199021    -0.279625342894    -1.946998108056     1.007825032070
           C          0.991718199021     0.093498657106     0.149092891944    12.000000000000
           H          0.708768199021     0.445849657106     2.240411891944     1.007825032070
           C          2.463161199021     0.193332657106     0.211558891944    12.000000000000
           O          3.192426199021     0.072174657106    -0.723454108056    15.994914619560
           H          2.870535199021     0.393942657106     1.208036891944     1.007825032070

  Charge       = 0
  Multiplicity = 1
  Basis Set: 6-31G*
  Basis Set:

    Orbital Energies (a.u.)
    -----------------------

    Doubly Occupied:

       1A    -20.594431     2A    -20.559849     3A    -11.330630
       4A    -11.313317     5A    -11.258821     6A    -11.253257
       7A    -11.243717     8A    -11.242410     9A    -11.240535
      10A     -1.420564    11A     -1.400367    12A     -1.169570
      13A     -1.040296    14A     -1.036470    15A     -0.888380
      16A     -0.857713    17A     -0.797316    18A     -0.754688
      19A     -0.707503    20A     -0.670866    21A     -0.648379
      22A     -0.630562    23A     -0.618904    24A     -0.606248
      25A     -0.560322    26A     -0.552712    27A     -0.537100
      28A     -0.494576    29A     -0.480326    30A     -0.421597
      31A     -0.355048    32A     -0.338693

  @DF-RHF Final Energy:  -418.28345616647226

   => Energetics <=

    Nuclear Repulsion Energy =            401.2902837429117540
    One-Electron Energy =               -1365.0970260270528343
    Two-Electron Energy =                 545.5232861176691586
    DFT Exchange-Correlation Energy =       0.0000000000000000
    Empirical Dispersion Energy =           0.0000000000000000
    PCM Polarization Energy =               0.0000000000000000
    EFP Energy =                            0.0000000000000000
    Total Energy =                       -418.2834561664719786

  Mulliken Charges: (a.u.)
   Center  Symbol    Alpha    Beta     Spin     Total
       1     H     0.26701  0.26701  0.00000  0.46598
       2     O     4.38248  4.38248  0.00000 -0.76495
       3     C     2.80742  2.80742  0.00000  0.38516
       4     C     3.12563  3.12563  0.00000 -0.25126
       5     C     3.12275  3.12275  0.00000 -0.24550
       6     H     0.38992  0.38992  0.00000  0.22017
       7     C     3.08437  3.08437  0.00000 -0.16874
       8     H     0.38873  0.38873  0.00000  0.22255
       9     C     3.09793  3.09793  0.00000 -0.19586
      10     H     0.37522  0.37522  0.00000  0.24955
      11     C     3.06105  3.06105  0.00000 -0.12209
      12     H     0.39103  0.39103  0.00000  0.21793
      13     C     2.83079  2.83079  0.00000  0.33843
      14     O     4.25193  4.25193  0.00000 -0.50385
      15     H     0.42376  0.42376  0.00000  0.15249

   Total alpha = 32.00000, Total beta = 32.00000, Total charge = -0.00000
