                              Psi4 1.0.54 Driver

  ==> Input File <==

--------------------------------------------------------------------------
set {
	reference rhf
	basis cc-pvtz
}

set_num_threads( 4 )
memory 2 gb

molecule MOL {
0 1

H	 0.967828	 -1.172743	 2.246265
O	 0.747632	 -0.844295	 1.394390
C	 0.387895	 0.510619	 1.476940
C	 0.027642	 1.012027	 0.090274
H	 1.216538	 1.099099	 1.862699
H	 -0.447406	 0.640242	 2.159531
C	 -1.138737	 0.285728	 -0.581921
H	 0.907997	 0.921539	 -0.537654
H	 -0.196341	 2.073258	 0.166663
C	 -1.933983	 -0.631436	 0.343653
H	 -0.763151	 -0.285569	 -1.422081
H	 -1.808359	 1.035291	 -0.992333
H	 -2.789188	 -1.049673	 -0.174718
H	 -1.335629	 -1.461368	 0.700418
H	 -2.305435	 -0.092167	 1.209725

	symmetry c1
}
set optking {
	frozen_dihedral = ("
		8 4 7 11
	")
}

ee,wfn = optimize('scf', return_wfn=True)
oeprop( wfn, 'DIPOLE', 'QUADRUPOLE', 'MULLIKEN_CHARGES')
f=open( 'psi4out.xyz', 'w' )
f.write( "15  " )
f.write( str(ee) + "\n" )
f.write( MOL.save_string_xyz() )
f.close()
--------------------------------------------------------------------------

    Molecular point group: c1
  Charge       = 0
  Multiplicity = 1
  Basis Set: CC-PVTZ
  Basis Set:
  @DF-RHF Final Energy:  -232.22709653115118
    Total Energy =                       -232.2270965311512327
    Molecular point group: c1
  Basis Set: CC-PVTZ
  Basis Set:
  Basis Set: CC-PVTZ
  Basis Set:
  @DF-RHF Final Energy:  -232.22951081735269
    Total Energy =                       -232.2295108173526614
  Basis Set: CC-PVTZ
  Basis Set:
  Basis Set: CC-PVTZ
  Basis Set:
  @DF-RHF Final Energy:  -232.23030661847591
    Total Energy =                       -232.2303066184758222
  Basis Set: CC-PVTZ
  Basis Set:
  Basis Set: CC-PVTZ
  Basis Set:
  @DF-RHF Final Energy:  -232.23042471849183
    Total Energy =                       -232.2304247184918040
  Basis Set: CC-PVTZ
  Basis Set:
  Basis Set: CC-PVTZ
  Basis Set:
  @DF-RHF Final Energy:  -232.23048173985083
    Total Energy =                       -232.2304817398510863
  Basis Set: CC-PVTZ
  Basis Set:
  Basis Set: CC-PVTZ
  Basis Set:
  @DF-RHF Final Energy:  -232.23049417436360
    Total Energy =                       -232.2304941743637983
  Basis Set: CC-PVTZ
  Basis Set:
  Basis Set: CC-PVTZ
  Basis Set:
  @DF-RHF Final Energy:  -232.23049526434090
    Total Energy =                       -232.2304952643408456
  Basis Set: CC-PVTZ
  Basis Set:
  Charge       = 0
  Multiplicity = 1
  Basis Set: CC-PVTZ
  Basis Set:

    Orbital Energies (a.u.)
    -----------------------

    Doubly Occupied:

       1A    -20.546797     2A    -11.265373     3A    -11.211406
       4A    -11.209685     5A    -11.199748     6A     -1.364307
       7A     -1.061110     8A     -0.971637     9A     -0.871257
      10A     -0.771102    11A     -0.708694    12A     -0.650056
      13A     -0.609963    14A     -0.572031    15A     -0.560703
      16A     -0.531863    17A     -0.516970    18A     -0.476541
      19A     -0.458585    20A     -0.453242    21A     -0.431939

  @DF-RHF Final Energy:  -232.23049531356233

   => Energetics <=

    Nuclear Repulsion Energy =            193.0559277208876381
    One-Electron Energy =                -697.6868197077909599
    Two-Electron Energy =                 272.4003966733407651
    DFT Exchange-Correlation Energy =       0.0000000000000000
    Empirical Dispersion Energy =           0.0000000000000000
    PCM Polarization Energy =               0.0000000000000000
    EFP Energy =                            0.0000000000000000
    Total Energy =                       -232.2304953135625283
    Molecular point group: c1
  Basis Set: CC-PVTZ
  Basis Set:

  -Total Gradient:
     Atom            X                  Y                   Z
    ------   -----------------  -----------------  -----------------
       1        0.000003916570    -0.000002913423     0.000001234733
       2        0.000000993572    -0.000002622069     0.000008016309
       3        0.000000545918    -0.000012503415    -0.000009960182
       4       -0.001551591183     0.006146414819    -0.003749971721
       5        0.000006051752    -0.000000013976    -0.000000432347
       6       -0.000003564282     0.000000653785     0.000005095232
       7        0.001011313622    -0.005827126410     0.004382454200
       8        0.001143674362    -0.004255542587     0.002474976565
       9       -0.000003284061     0.000005274166    -0.000001756985
      10        0.000006066040     0.000011700021    -0.000008565429
      11       -0.000613153835     0.003944600984    -0.003100648507
      12        0.000002823695     0.000001677633    -0.000004954595
      13       -0.000009019049    -0.000004491619    -0.000006417284
      14        0.000005866711    -0.000009533547     0.000007131082
      15       -0.000000639831     0.000004425639     0.000003798928

  **** Optimization is complete! (in 8 steps) ****
    Final optimized geometry and variables:
    Molecular point group: c1

    Geometry (in Angstrom), charge = 0, multiplicity = 1:

    H            1.544211976394    -1.181149178453     1.619344206426
    O            1.289132413576    -0.855010738920     0.776178788302
    C            0.780805357481     0.449818001694     0.895406374602
    C            0.366171728299     0.945144313563    -0.479540760706
    H            1.546964651257     1.114204760406     1.287227329726
    H           -0.053802971893     0.471752676625     1.589715500133
    C           -0.837832170176     0.234407826590    -1.145615953658
    H            1.242210749883     0.817455361338    -1.104948557070
    H            0.170517941358     2.008599321649    -0.397501049927
    C           -1.740053787438    -0.607624378449    -0.248185378607
    H           -0.481358602038    -0.363266405341    -1.976109618086
    H           -1.452786410869     0.999534484223    -1.610783227502
    H           -2.549211584268    -1.030273597543    -0.832918154343
    H           -1.198936709823    -1.422156910383     0.212987665157
    H           -2.189689144887    -0.010811382931     0.538578338360

  Mulliken Charges: (a.u.)
   Center  Symbol    Alpha    Beta     Spin     Total
       1     H     0.39426  0.39426  0.00000  0.21149
       2     O     4.20289  4.20289  0.00000 -0.40579
       3     C     2.98091  2.98091  0.00000  0.03819
       4     C     3.09805  3.09805  0.00000 -0.19610
       5     H     0.45806  0.45806  0.00000  0.08388
       6     H     0.46775  0.46775  0.00000  0.06450
       7     C     3.08083  3.08083  0.00000 -0.16166
       8     H     0.45046  0.45046  0.00000  0.09909
       9     H     0.45111  0.45111  0.00000  0.09777
      10     C     3.16009  3.16009  0.00000 -0.32017
      11     H     0.45102  0.45102  0.00000  0.09796
      12     H     0.45458  0.45458  0.00000  0.09083
      13     H     0.44653  0.44653  0.00000  0.10694
      14     H     0.44623  0.44623  0.00000  0.10754
      15     H     0.45723  0.45723  0.00000  0.08554

   Total alpha = 21.00000, Total beta = 21.00000, Total charge =  0.00000

*** Psi4 exiting successfully. Buy a developer a beer!
