  ==> Input File <==

--------------------------------------------------------------------------
set {
	reference rhf
	basis cc-pvtz
}

set_num_threads( 4 )
memory 2 gb

molecule MOL {
0 1

H	 -3.144994	 -1.202467	 -0.018751
O	 -2.321472	 -0.864941	 -0.318626
C	 -2.021813	 0.336996	 0.342658
C	 -0.669613	 0.837286	 -0.127252
H	 -2.780861	 1.084746	 0.127159
H	 -2.006390	 0.184138	 1.420053
C	 0.490865	 -0.082543	 0.241244
H	 -0.708709	 0.967192	 -1.204587
H	 -0.507562	 1.822272	 0.303070
C	 1.839800	 0.429565	 -0.255472
H	 0.305636	 -1.070211	 -0.165276
H	 0.527397	 -0.195943	 1.322876
C	 2.990474	 0.094342	 0.687588
H	 2.043963	 0.007151	 -1.235567
H	 1.789847	 1.506715	 -0.393104
H	 3.088551	 -0.978209	 0.817707
H	 3.933678	 0.469128	 0.306527
H	 2.833048	 0.531543	 1.668158

	symmetry c1
}
set optking {
	frozen_dihedral = ("
		14 10 7 11
	")
}

ee = optimize('scf')
oeprop('DIPOLE', 'QUADRUPOLE', 'MULLIKEN_CHARGES')
f=open( 'psi4out.xyz', 'w' )
f.write( "18  " )
f.write( str(ee) + "\n" )
f.write( MOL.save_string_xyz() )
f.close()
--------------------------------------------------------------------------

    Molecular point group: c1
  Charge       = 0
  Multiplicity = 1
  Basis Set: CC-PVTZ
  Basis Set:
  @DF-RHF Final Energy:  -271.28341650252582
    Total Energy =                       -271.2834165025257107
    Molecular point group: c1
  Basis Set: CC-PVTZ
  Basis Set:
  Basis Set: CC-PVTZ
  Basis Set:
  @DF-RHF Final Energy:  -271.28371620779740
    Total Energy =                       -271.2837162077972835
  Basis Set: CC-PVTZ
  Basis Set:
  Basis Set: CC-PVTZ
  Basis Set:
  @DF-RHF Final Energy:  -271.28377584897373
    Total Energy =                       -271.2837758489737325
  Basis Set: CC-PVTZ
  Basis Set:
  Charge       = 0
  Multiplicity = 1
  Basis Set: CC-PVTZ
  Basis Set:

    Orbital Energies (a.u.)
    -----------------------

    Doubly Occupied:

       1A    -20.546356     2A    -11.265769     3A    -11.210441
       4A    -11.209021     5A    -11.204837     6A    -11.203210
       7A     -1.364202     8A     -1.075290     9A     -1.009852
      10A     -0.914045    11A     -0.818718    12A     -0.784391
      13A     -0.708706    14A     -0.640633    15A     -0.626315
      16A     -0.587894    17A     -0.573748    18A     -0.555811
      19A     -0.523870    20A     -0.501713    21A     -0.491658
      22A     -0.467481    23A     -0.456950    24A     -0.449009
      25A     -0.430443

  @DF-RHF Final Energy:  -271.28377641096608

   => Energetics <=

    Nuclear Repulsion Energy =            249.1327623833391272
    One-Electron Energy =                -861.5923510127498730
    Two-Electron Energy =                 341.1758122184446052
    DFT Exchange-Correlation Energy =       0.0000000000000000
    Empirical Dispersion Energy =           0.0000000000000000
    PCM Polarization Energy =               0.0000000000000000
    EFP Energy =                            0.0000000000000000
    Total Energy =                       -271.2837764109661407
    Molecular point group: c1
  Basis Set: CC-PVTZ
  Basis Set:

  -Total Gradient:
     Atom            X                  Y                   Z
    ------   -----------------  -----------------  -----------------
       1       -0.000002018396    -0.000002858999    -0.000002529125
       2        0.000019084223    -0.000005707602     0.000041627024
       3       -0.000053407569     0.000025141158    -0.000077798327
       4        0.000048975498    -0.000026605181     0.000079559815
       5       -0.000020372257     0.000005602537     0.000013415022
       6        0.000007801849    -0.000013709145    -0.000014081830
       7        0.002972881271    -0.002962267718     0.004715179721
       8       -0.000005404197    -0.000000546977     0.000011409194
       9       -0.000008147301     0.000018919857     0.000000483511
      10       -0.002948246367     0.004607333906    -0.003142207654
      11       -0.002037801859     0.001760934764    -0.003499739277
      12        0.000008166676     0.000019994042    -0.000022059616
      13       -0.000016571803     0.000028039538    -0.000031424957
      14        0.002020042848    -0.003429975883     0.001897972569
      15       -0.000011137510    -0.000014589440     0.000016888373
      16        0.000000242413    -0.000001104347     0.000006353932
      17        0.000021897239    -0.000002338713     0.000004886487
      18        0.000004015237    -0.000006261795     0.000002065138

  **** Optimization is complete! (in 4 steps) ****
    Final optimized geometry and variables:
    Molecular point group: c1

    Geometry (in Angstrom), charge = 0, multiplicity = 1:

    H           -3.125888770827    -1.331218167980    -0.161586865731
    O           -2.301132809514    -0.980274667313    -0.441748505519
    C           -2.035848236447     0.225336366417     0.227673881319
    C           -0.680179452288     0.746440350062    -0.208298315612
    H           -2.800877218590     0.961683878866    -0.005285817665
    H           -2.044241167809     0.071075648959     1.305025225561
    C            0.487708417587    -0.152513028000     0.195874977506
    H           -0.692231403058     0.869480005585    -1.287346359683
    H           -0.545634361181     1.736495930468     0.219647041597
    C            1.835729492699     0.350222292107    -0.338468514964
    H            0.289071501696    -1.143253446190    -0.193342024628
    H            0.520140574055    -0.226055079629     1.279349773461
    C            3.009761995074    -0.023845168325     0.563814355683
    H            2.016751327364    -0.084945832575    -1.316078767123
    H            1.812156799827     1.427989925111    -0.464505077211
    H            3.064645573217    -1.098322161004     0.705938921447
    H            3.953002588049     0.301634665776     0.139454560752
    H            2.911530916096     0.432156086019     1.543493078676

  Mulliken Charges: (a.u.)
   Center  Symbol    Alpha    Beta     Spin     Total
       1     H     0.39562  0.39562  0.00000  0.20876
       2     O     4.19896  4.19896  0.00000 -0.39793
       3     C     2.97381  2.97381  0.00000  0.05237
       4     C     3.09116  3.09116  0.00000 -0.18231
       5     H     0.46524  0.46524  0.00000  0.06951
       6     H     0.47368  0.47368  0.00000  0.05265
       7     C     3.08958  3.08958  0.00000 -0.17916
       8     H     0.45171  0.45171  0.00000  0.09657
       9     H     0.45447  0.45447  0.00000  0.09105
      10     C     3.08469  3.08469  0.00000 -0.16938
      11     H     0.44370  0.44370  0.00000  0.11259
      12     H     0.45898  0.45898  0.00000  0.08205
      13     C     3.14881  3.14881  0.00000 -0.29762
      14     H     0.45212  0.45212  0.00000  0.09576
      15     H     0.45626  0.45626  0.00000  0.08748
      16     H     0.45422  0.45422  0.00000  0.09156
      17     H     0.45000  0.45000  0.00000  0.09999
      18     H     0.45697  0.45697  0.00000  0.08605

   Total alpha = 25.00000, Total beta = 25.00000, Total charge =  0.00000
