  ==> Input File <==

--------------------------------------------------------------------------
set {
	reference rhf
	basis 6-31G*
}

set_num_threads( 4 )
memory 2 gb

molecule MOL {
0 1

O	 -2.324811	 1.361668	 -0.277141
C	 -2.105949	 0.203097	 -0.092081
C	 -0.889235	 -0.467034	 -0.705952
C	 -3.002726	 -0.644460	 0.782455
C	 -0.826910	 -1.952797	 -0.316378
H	 -0.008599	 0.042716	 -0.330532
H	 -0.902723	 -0.367001	 -1.787542
C	 0.406991	 -2.651634	 -0.892338
H	 -0.832988	 -2.019153	 0.765723
H	 -1.723307	 -2.461585	 -0.667597
C	 0.482402	 -4.153062	 -0.592202
H	 1.303649	 -2.164272	 -0.513909
H	 0.416845	 -2.512981	 -1.971471
C	 0.665883	 -4.495822	 0.887273
H	 1.313313	 -4.572435	 -1.153813
H	 -0.414506	 -4.640501	 -0.969093
H	 1.550560	 -4.012588	 1.292928
H	 0.784278	 -5.566484	 1.021682
H	 -0.184074	 -4.185548	 1.485682
H	 -3.496582	 -1.399307	 0.176174
H	 -3.747939	 -0.023774	 1.260148
H	 -2.421318	 -1.168775	 1.535358

	symmetry c1
}
set optking {
	frozen_dihedral = ("
		6 3 2 1
	")
}

ee = optimize('scf')
oeprop('DIPOLE', 'QUADRUPOLE', 'MULLIKEN_CHARGES')
f=open( 'psi4out.xyz', 'w' )
f.write( "22  " )
f.write( str(ee) + "\n" )
f.write( MOL.save_string_xyz() )
f.close()
--------------------------------------------------------------------------

    Molecular point group: c1
  Charge       = 0
  Multiplicity = 1
  Basis Set: 6-31G*
  Basis Set:
  @DF-RHF Final Energy:  -348.08983086791631
    Total Energy =                       -348.0898308679163620
    Molecular point group: c1
  Basis Set: 6-31G*
  Basis Set:
  Basis Set: 6-31G*
  Basis Set:
  @DF-RHF Final Energy:  -348.09241401868115
    Total Energy =                       -348.0924140186807563
  Basis Set: 6-31G*
  Basis Set:
  Basis Set: 6-31G*
  Basis Set:
  @DF-RHF Final Energy:  -348.09514049538910
    Total Energy =                       -348.0951404953895576
  Basis Set: 6-31G*
  Basis Set:
  Basis Set: 6-31G*
  Basis Set:
  @DF-RHF Final Energy:  -348.09555155711553
    Total Energy =                       -348.0955515571158685
  Basis Set: 6-31G*
  Basis Set:
  @DF-RHF Final Energy:  -348.09551629645227
    Total Energy =                       -348.0955162964520468
  @DF-RHF Final Energy:  -348.09566257511159
    Total Energy =                       -348.0956625751117599
  @DF-RHF Final Energy:  -348.09562751476375
    Total Energy =                       -348.0956275147638621
  @DF-RHF Final Energy:  -348.09555197056142
    Total Energy =                       -348.0955519705613028
  Basis Set: 6-31G*
  Basis Set:
  @DF-RHF Final Energy:  -348.09567996022690
    Total Energy =                       -348.0956799602269029
  Basis Set: 6-31G*
  Basis Set:
  Basis Set: 6-31G*
  Basis Set:
  @DF-RHF Final Energy:  -348.09561864999256
    Total Energy =                       -348.0956186499923888
  Basis Set: 6-31G*
  Basis Set:
  Basis Set: 6-31G*
  Basis Set:
  @DF-RHF Final Energy:  -348.09569116113755
    Total Energy =                       -348.0956911611376654
  Basis Set: 6-31G*
  Basis Set:
  Charge       = 0
  Multiplicity = 1
  Basis Set: 6-31G*
  Basis Set:

    Orbital Energies (a.u.)
    -----------------------

    Doubly Occupied:

       1A    -20.544784     2A    -11.325961     3A    -11.230848
       4A    -11.230129     5A    -11.227545     6A    -11.224833
       7A    -11.223326     8A    -11.215373     9A     -1.392146
      10A     -1.098682    11A     -1.044809    12A     -0.996449
      13A     -0.941446    14A     -0.864178    15A     -0.789351
      16A     -0.731468    17A     -0.660725    18A     -0.647963
      19A     -0.631887    20A     -0.615081    21A     -0.604808
      22A     -0.583448    23A     -0.556809    24A     -0.544029
      25A     -0.538197    26A     -0.516878    27A     -0.510738
      28A     -0.477789    29A     -0.474543    30A     -0.467934
      31A     -0.464102    32A     -0.395823

  @DF-RHF Final Energy:  -348.09569067035534

   => Energetics <=

    Nuclear Repulsion Energy =            372.4086712319029857
    One-Electron Energy =               -1209.4645601341085239
    Two-Electron Energy =                 488.9601982318500859
    DFT Exchange-Correlation Energy =       0.0000000000000000
    Empirical Dispersion Energy =           0.0000000000000000
    PCM Polarization Energy =               0.0000000000000000
    EFP Energy =                            0.0000000000000000
    Total Energy =                       -348.0956906703554523
    Molecular point group: c1
  Basis Set: 6-31G*
  Basis Set:

  -Total Gradient:
     Atom            X                  Y                   Z
    ------   -----------------  -----------------  -----------------
       1        0.000133649026     0.000106724965     0.000393492163
       2       -0.000266346006    -0.000086444108    -0.000553492719
       3        0.000075187203    -0.000306194390     0.000627318237
       4       -0.000018172495     0.000059400080     0.000027384048
       5        0.000089369874    -0.000007603195    -0.000005678225
       6        0.000011560721     0.000248530322    -0.000381521727
       7       -0.000025040080    -0.000022217080     0.000030945891
       8       -0.000017417524    -0.000016872512    -0.000032043952
       9       -0.000001746845    -0.000060544799    -0.000002816419
      10        0.000029552062     0.000042452734    -0.000017607763
      11        0.000101312098    -0.000021475311    -0.000001131358
      12        0.000010835066     0.000008147890    -0.000066057616
      13       -0.000050691318    -0.000002709661     0.000011270257
      14       -0.000031419891     0.000011005872    -0.000018985600
      15        0.000027793012    -0.000050146189     0.000053983309
      16        0.000030323093    -0.000007350244    -0.000030341888
      17       -0.000012578203    -0.000006049079    -0.000024148977
      18       -0.000012095306    -0.000006752043     0.000011572730
      19       -0.000026688449     0.000041940855     0.000016586027
      20        0.000016980768     0.000048179327    -0.000023458979
      21       -0.000033016426     0.000014788505     0.000005573102
      22       -0.000031350372     0.000013188056    -0.000020840538

  **** Optimization is complete! (in 12 steps) ****
    Final optimized geometry and variables:
    Molecular point group: c1

    Geometry (in Angstrom), charge = 0, multiplicity = 1:

    O           -1.333319683088     2.977917417884    -0.277039759933
    C           -1.192528978379     1.837245678783     0.045038129893
    C            0.011582505560     1.060189777798    -0.478977024471
    C           -2.182282040829     1.168210025136     0.974089452013
    C            0.122383318197    -0.425541593005    -0.131343949609
    H            0.889177686740     1.594762740149    -0.123368594405
    H            0.007547870848     1.194473858958    -1.556943737263
    C            1.385240973888    -1.053876503114    -0.728603539078
    H            0.124850544768    -0.552683864655     0.946681791436
    H           -0.747983598970    -0.960636341765    -0.504857733482
    C            1.522034027131    -2.561524691949    -0.487952796705
    H            2.262085712336    -0.545823525216    -0.330794875941
    H            1.390544106641    -0.872715452136    -1.801172000359
    C            1.697179251538    -2.958578013622     0.978954333503
    H            2.379440255611    -2.921207900273    -1.050942949477
    H            0.653896982059    -3.071797408640    -0.900085208242
    H            2.550922132663    -2.452172903142     1.421136366885
    H            1.864513899306    -4.027154580907     1.070533159114
    H            0.823108162340    -2.715668685242     1.574256386452
    H           -2.627103593294     0.297101749463     0.503733765385
    H           -2.957675628143     1.876295673390     1.230498526894
    H           -1.688833030533     0.828667011022     1.879643227855

  Mulliken Charges: (a.u.)
   Center  Symbol    Alpha    Beta     Spin     Total
       1     O     4.26371  4.26371  0.00000 -0.52741
       2     C     2.73729  2.73729  0.00000  0.52541
       3     C     3.20483  3.20483  0.00000 -0.40966
       4     C     3.29163  3.29163  0.00000 -0.58327
       5     C     3.16315  3.16315  0.00000 -0.32631
       6     H     0.40061  0.40061  0.00000  0.19879
       7     H     0.39992  0.39992  0.00000  0.20016
       8     C     3.15329  3.15329  0.00000 -0.30657
       9     H     0.41785  0.41785  0.00000  0.16429
      10     H     0.42037  0.42037  0.00000  0.15926
      11     C     3.15289  3.15289  0.00000 -0.30578
      12     H     0.42164  0.42164  0.00000  0.15671
      13     H     0.41945  0.41945  0.00000  0.16111
      14     C     3.24191  3.24191  0.00000 -0.48381
      15     H     0.41856  0.41856  0.00000  0.16287
      16     H     0.42246  0.42246  0.00000  0.15508
      17     H     0.42118  0.42118  0.00000  0.15765
      18     H     0.41732  0.41732  0.00000  0.16537
      19     H     0.42104  0.42104  0.00000  0.15792
      20     H     0.40767  0.40767  0.00000  0.18467
      21     H     0.39545  0.39545  0.00000  0.20910
      22     H     0.40779  0.40779  0.00000  0.18443

   Total alpha = 32.00000, Total beta = 32.00000, Total charge =  0.00000
