                              Psi4 1.0.54 Driver

  ==> Input File <==

--------------------------------------------------------------------------
set {
	reference rhf
	basis cc-pvtz
}

set_num_threads( 4 )
memory 2 gb

molecule MOL {
0 1

H	 -3.436473	 1.252944	 -1.023892
O	 -3.458596	 0.315260	 -0.960865
C	 -3.176635	 -0.080824	 0.355601
C	 -1.763371	 0.265266	 0.799691
H	 -3.321825	 -1.153438	 0.379502
H	 -3.895468	 0.357385	 1.043382
C	 -0.673390	 -0.426948	 -0.013392
H	 -1.631049	 1.344913	 0.747560
H	 -1.664587	 -0.001624	 1.849167
C	 0.710996	 -0.315864	 0.619937
H	 -0.651295	 -0.006314	 -1.012638
H	 -0.932655	 -1.476494	 -0.130617
C	 1.796439	 -1.015015	 -0.196182
H	 0.958440	 0.734077	 0.743570
H	 0.685873	 -0.743207	 1.620239
C	 3.188354	 -1.000825	 0.438025
H	 1.849089	 -0.563088	 -1.184027
H	 1.500583	 -2.048725	 -0.352813
C	 3.826570	 0.381985	 0.546015
H	 3.840058	 -1.638714	 -0.151174
H	 3.136842	 -1.451699	 1.425688
H	 3.885938	 0.860101	 -0.426588
H	 4.834107	 0.310634	 0.939740
H	 3.267059	 1.037155	 1.202753

	symmetry c1
}
set optking {
	frozen_dihedral = ("
		11 7 4 3
	")
}

ee,wfn = optimize('scf', return_wfn=True)
oeprop( wfn, 'DIPOLE', 'QUADRUPOLE', 'MULLIKEN_CHARGES')
f=open( 'psi4out.xyz', 'w' )
f.write( "24  " )
f.write( str(ee) + "\n" )
f.write( MOL.save_string_xyz() )
f.close()
--------------------------------------------------------------------------

    Molecular point group: c1
  Charge       = 0
  Multiplicity = 1
  Basis Set: CC-PVTZ
  Basis Set:
  @DF-RHF Final Energy:  -349.37981622175778
    Total Energy =                       -349.3798162217581194
    Molecular point group: c1
  Basis Set: CC-PVTZ
  Basis Set:
  Basis Set: CC-PVTZ
  Basis Set:
  @DF-RHF Final Energy:  -349.37985775124292
    Total Energy =                       -349.3798577512425823
  Basis Set: CC-PVTZ
  Basis Set:
  Basis Set: CC-PVTZ
  Basis Set:
  @DF-RHF Final Energy:  -349.37991109876896
    Total Energy =                       -349.3799110987687868
  Basis Set: CC-PVTZ
  Basis Set:
  Charge       = 0
  Multiplicity = 1
  Basis Set: CC-PVTZ
  Basis Set:

    Orbital Energies (a.u.)
    -----------------------

    Doubly Occupied:

       1A    -20.545788     2A    -11.265329     3A    -11.215168
       4A    -11.212149     5A    -11.210299     6A    -11.209638
       7A    -11.209340     8A    -11.205380     9A     -1.363565
      10A     -1.089963    11A     -1.049442    12A     -0.986804
      13A     -0.916185    14A     -0.851216    15A     -0.801310
      16A     -0.776704    17A     -0.681259    18A     -0.654526
      19A     -0.627856    20A     -0.619797    21A     -0.599916
      22A     -0.585022    23A     -0.556512    24A     -0.544585
      25A     -0.516659    26A     -0.505272    27A     -0.501994
      28A     -0.474436    29A     -0.468494    30A     -0.461254
      31A     -0.456120    32A     -0.451007    33A     -0.420902

  @DF-RHF Final Energy:  -349.37991191688042

   => Energetics <=

    Nuclear Repulsion Energy =            384.6145845387400755
    One-Electron Energy =               -1235.9212121535697406
    Two-Electron Energy =                 501.9267156979490210
    DFT Exchange-Correlation Energy =       0.0000000000000000
    Empirical Dispersion Energy =           0.0000000000000000
    PCM Polarization Energy =               0.0000000000000000
    EFP Energy =                            0.0000000000000000
    Total Energy =                       -349.3799119168807010
    Molecular point group: c1
  Basis Set: CC-PVTZ
  Basis Set:

  -Total Gradient:
     Atom            X                  Y                   Z
    ------   -----------------  -----------------  -----------------
       1       -0.000011578027    -0.000090707641     0.000007609398
       2       -0.000017173274     0.000135749598    -0.000123311749
       3       -0.000020094392    -0.001277871656     0.001165677489
       4        0.000364544702     0.002086022855    -0.001315112652
       5        0.000021096664     0.000070176684     0.000017180861
       6        0.000045722865    -0.000038634808    -0.000035990635
       7       -0.001820861200    -0.002297675327    -0.000416465423
       8       -0.000013637307    -0.000026395746    -0.000004650598
       9        0.000008738220    -0.000002680291     0.000003113433
      10       -0.000059163086    -0.000066688027     0.000049236556
      11        0.001458683557     0.001467817763     0.000639520982
      12        0.000004463979     0.000029953839     0.000030313347
      13        0.000034621559     0.000009489395    -0.000024270309
      14        0.000007225673    -0.000008376077     0.000006142846
      15        0.000009257998    -0.000002906586     0.000024795909
      16        0.000002702327     0.000009110061    -0.000024762072
      17        0.000002070233    -0.000015507083    -0.000009136946
      18        0.000009506004     0.000013182041     0.000017185004
      19       -0.000006959063     0.000005446987     0.000001150715
      20       -0.000000835371     0.000003146558     0.000004588760
      21       -0.000012729580     0.000003375483    -0.000013016837
      22       -0.000004029516     0.000000766083     0.000004657805
      23        0.000004203950    -0.000000616920    -0.000000113485
      24       -0.000005776923    -0.000006177184    -0.000004342404

  **** Optimization is complete! (in 4 steps) ****
    Final optimized geometry and variables:
    Molecular point group: c1

    Geometry (in Angstrom), charge = 0, multiplicity = 1:

    H           -3.390736068584     1.441879662077    -1.251251408230
    O           -3.443673518097     0.508763475278    -1.151109884917
    C           -3.179609071749     0.156293824171     0.181628324913
    C           -1.760826661955     0.479003387664     0.623236630610
    H           -3.351219990218    -0.910530267487     0.244453177191
    H           -3.891200589896     0.637792684269     0.847713639001
    C           -0.680783462766    -0.239501513554    -0.182727686508
    H           -1.601527399286     1.554744508266     0.577453868124
    H           -1.675384340128     0.205169741447     1.672460742953
    C            0.706596041583    -0.121164160609     0.445060422545
    H           -0.647826451876     0.171177940007    -1.185962930770
    H           -0.943887311098    -1.288862815843    -0.283780139556
    C            1.795172497859    -0.798751413416    -0.385018227866
    H            0.943806462244     0.929909631169     0.580332441581
    H            0.690928740333    -0.560577500193     1.440169493891
    C            3.189347809518    -0.781086044331     0.244099375028
    H            1.840263771643    -0.332621721624    -1.366637642833
    H            1.507812093202    -1.832727272333    -0.555308450786
    C            3.813835225116     0.606208888492     0.373002946205
    H            3.845206183142    -1.402380596809    -0.358059462410
    H            3.146178135068    -1.248952905693     1.224204750667
    H            3.862810758717     1.102025467065    -0.591294941277
    H            4.824251605986     0.538559042810     0.759939919249
    H            3.251186071763     1.243786755141     1.044190531727

  Mulliken Charges: (a.u.)
   Center  Symbol    Alpha    Beta     Spin     Total
       1     H     0.39524  0.39524  0.00000  0.20952
       2     O     4.20429  4.20429  0.00000 -0.40858
       3     C     2.97787  2.97787  0.00000  0.04427
       4     C     3.10477  3.10477  0.00000 -0.20955
       5     H     0.45849  0.45849  0.00000  0.08301
       6     H     0.46120  0.46120  0.00000  0.07760
       7     C     3.08076  3.08076  0.00000 -0.16153
       8     H     0.45701  0.45701  0.00000  0.08597
       9     H     0.45452  0.45452  0.00000  0.09096
      10     C     3.09230  3.09230  0.00000 -0.18460
      11     H     0.44990  0.44990  0.00000  0.10019
      12     H     0.45396  0.45396  0.00000  0.09208
      13     C     3.09479  3.09479  0.00000 -0.18958
      14     H     0.45364  0.45364  0.00000  0.09272
      15     H     0.45594  0.45594  0.00000  0.08813
      16     C     3.09008  3.09008  0.00000 -0.18016
      17     H     0.45380  0.45380  0.00000  0.09240
      18     H     0.44944  0.44944  0.00000  0.10112
      19     C     3.15252  3.15252  0.00000 -0.30505
      20     H     0.44857  0.44857  0.00000  0.10286
      21     H     0.45515  0.45515  0.00000  0.08969
      22     H     0.45498  0.45498  0.00000  0.09004
      23     H     0.44661  0.44661  0.00000  0.10678
      24     H     0.45414  0.45414  0.00000  0.09172

   Total alpha = 33.00000, Total beta = 33.00000, Total charge = -0.00000

*** Psi4 exiting successfully. Buy a developer a beer!
