  ==> Input File <==

--------------------------------------------------------------------------
set {
	reference rhf
	basis 6-31G*
}

set_num_threads( 1 )
memory 2 gb

molecule MOL {
0 1

O	 3.225979	 0.970355	 -0.599647
C	 2.701189	 0.057885	 -0.047330
C	 1.245376	 -0.013843	 0.345420
O	 3.347903	 -1.046386	 0.304773
C	 0.455112	 1.231400	 -0.050772
H	 0.838542	 -0.913825	 -0.103701
H	 1.208210	 -0.175333	 1.419774
C	 -0.998893	 1.219485	 0.433193
H	 0.482531	 1.345121	 -1.130325
H	 0.957290	 2.103070	 0.354729
C	 -1.883438	 0.145884	 -0.207175
H	 -1.431207	 2.195402	 0.224832
H	 -1.019646	 1.105716	 1.516076
C	 -3.100916	 0.729625	 -0.926892
H	 -1.290032	 -0.431148	 -0.914792
H	 -2.226174	 -0.557046	 0.548731
C	 -3.994900	 -0.334433	 -1.566192
H	 -2.765771	 1.424801	 -1.694775
H	 -3.689006	 1.315634	 -0.222305
C	 -5.206340	 0.257010	 -2.286130
H	 -3.408564	 -0.921594	 -2.269821
H	 -4.334426	 -1.027728	 -0.799482
H	 -5.820254	 -0.521453	 -2.728522
H	 -4.899447	 0.928828	 -3.082793
H	 -5.832036	 0.822358	 -1.601178
C	 4.728119	 -1.109107	 -0.004993
H	 4.882018	 -1.033965	 -1.071845
H	 5.068212	 -2.067527	 0.355250
H	 5.265056	 -0.311663	 0.488280

	symmetry c1
}
set optking {
	frozen_dihedral = ("
		21 17 14 11,
		17 14 11 15,
		6 3 5 9,
		11 8 5 9,
		2 4 26 27,
		1 2 4 26,
		6 3 2 1
	")
}

ee = energy('scf')
oeprop('DIPOLE', 'QUADRUPOLE', 'MULLIKEN_CHARGES')
f=open( 'psi4out.xyz', 'w' )
f.write( "29  " )
f.write( str(ee) + "\n" )
f.write( MOL.save_string_xyz() )
f.close()
--------------------------------------------------------------------------

    Molecular point group: c1

    Geometry (in Angstrom), charge = 0, multiplicity = 1:

       Center              X                  Y                   Z               Mass
    ------------   -----------------  -----------------  -----------------  -----------------
           O          3.135315254741     0.791413923985    -0.174412477298    15.994914619560
           C          2.610525254741    -0.121056076015     0.377904522702    12.000000000000
           C          1.154712254741    -0.192784076015     0.770654522702    12.000000000000
           O          3.257239254741    -1.225327076015     0.730007522702    15.994914619560
           C          0.364448254741     1.052458923985     0.374462522702    12.000000000000
           H          0.747878254741    -1.092766076015     0.321533522702     1.007825032070
           H          1.117546254741    -0.354274076015     1.845008522702     1.007825032070
           C         -1.089556745259     1.040543923985     0.858427522702    12.000000000000
           H          0.391867254741     1.166179923985    -0.705090477298     1.007825032070
           H          0.866626254741     1.924128923985     0.779963522702     1.007825032070
           C         -1.974101745259    -0.033057076015     0.218059522702    12.000000000000
           H         -1.521870745259     2.016460923985     0.650066522702     1.007825032070
           H         -1.110309745259     0.926774923985     1.941310522702     1.007825032070
           C         -3.191579745259     0.550683923985    -0.501657477298    12.000000000000
           H         -1.380695745259    -0.610089076015    -0.489557477298     1.007825032070
           H         -2.316837745259    -0.735987076015     0.973965522702     1.007825032070
           C         -4.085563745259    -0.513374076015    -1.140957477298    12.000000000000
           H         -2.856434745259     1.245859923985    -1.269540477298     1.007825032070
           H         -3.779669745259     1.136692923985     0.202929522702     1.007825032070
           C         -5.297003745259     0.078068923985    -1.860895477298    12.000000000000
           H         -3.499227745259    -1.100535076015    -1.844586477298     1.007825032070
           H         -4.425089745259    -1.206669076015    -0.374247477298     1.007825032070
           H         -5.910917745259    -0.700394076015    -2.303287477298     1.007825032070
           H         -4.990110745259     0.749886923985    -2.657558477298     1.007825032070
           H         -5.922699745259     0.643416923985    -1.175943477298     1.007825032070
           C          4.637455254741    -1.288048076015     0.420241522702    12.000000000000
           H          4.791354254741    -1.212906076015    -0.646610477298     1.007825032070
           H          4.977548254741    -2.246468076015     0.780484522702     1.007825032070
           H          5.174392254741    -0.490604076015     0.913514522702     1.007825032070

  Charge       = 0
  Multiplicity = 1
  Basis Set: 6-31G*
  Basis Set:

    Orbital Energies (a.u.)
    -----------------------

    Doubly Occupied:

       1A    -20.603470     2A    -20.545373     3A    -11.372196
       4A    -11.280728     5A    -11.234902     6A    -11.219342
       7A    -11.216003     8A    -11.215172     9A    -11.214690
      10A    -11.214151    11A    -11.208575    12A     -1.469198
      13A     -1.362658    14A     -1.098323    15A     -1.066357
      16A     -1.019256    17A     -0.976852    18A     -0.927926
      19A     -0.862631    20A     -0.800826    21A     -0.789271
      22A     -0.762944    23A     -0.700084    24A     -0.682906
      25A     -0.671727    26A     -0.651078    27A     -0.628123
      28A     -0.606460    29A     -0.593432    30A     -0.577318
      31A     -0.565914    32A     -0.555589    33A     -0.531747
      34A     -0.526923    35A     -0.519931    36A     -0.512173
      37A     -0.494092    38A     -0.476842    39A     -0.472624
      40A     -0.459414    41A     -0.456313    42A     -0.455177
      43A     -0.440948    44A     -0.434825

  @DF-RHF Final Energy:  -501.03879523243108

   => Energetics <=

    Nuclear Repulsion Energy =            612.2996798981630491
    One-Electron Energy =               -1895.7281424148309270
    Two-Electron Energy =                 782.3896672842378166
    DFT Exchange-Correlation Energy =       0.0000000000000000
    Empirical Dispersion Energy =           0.0000000000000000
    PCM Polarization Energy =               0.0000000000000000
    EFP Energy =                            0.0000000000000000
    Total Energy =                       -501.0387952324300613

  Mulliken Charges: (a.u.)
   Center  Symbol    Alpha    Beta     Spin     Total
       1     O     4.28583  4.28583  0.00000 -0.57166
       2     C     2.60549  2.60549  0.00000  0.78902
       3     C     3.20851  3.20851  0.00000 -0.41701
       4     O     4.30738  4.30738  0.00000 -0.61477
       5     C     3.15553  3.15553  0.00000 -0.31106
       6     H     0.39892  0.39892  0.00000  0.20216
       7     H     0.40106  0.40106  0.00000  0.19787
       8     C     3.16024  3.16024  0.00000 -0.32048
       9     H     0.41340  0.41340  0.00000  0.17319
      10     H     0.40935  0.40935  0.00000  0.18131
      11     C     3.15523  3.15523  0.00000 -0.31046
      12     H     0.41531  0.41531  0.00000  0.16938
      13     H     0.42162  0.42162  0.00000  0.15677
      14     C     3.15346  3.15346  0.00000 -0.30693
      15     H     0.42268  0.42268  0.00000  0.15465
      16     H     0.42061  0.42061  0.00000  0.15878
      17     C     3.15204  3.15204  0.00000 -0.30408
      18     H     0.42281  0.42281  0.00000  0.15437
      19     H     0.42300  0.42300  0.00000  0.15399
      20     C     3.23933  3.23933  0.00000 -0.47866
      21     H     0.42312  0.42312  0.00000  0.15377
      22     H     0.42330  0.42330  0.00000  0.15339
      23     H     0.41935  0.41935  0.00000  0.16130
      24     H     0.42152  0.42152  0.00000  0.15696
      25     H     0.42182  0.42182  0.00000  0.15637
      26     C     3.09237  3.09237  0.00000 -0.18474
      27     H     0.40912  0.40912  0.00000  0.18177
      28     H     0.40849  0.40849  0.00000  0.18302
      29     H     0.40911  0.40911  0.00000  0.18178

   Total alpha = 44.00000, Total beta = 44.00000, Total charge = -0.00000
