  ==> Input File <==

--------------------------------------------------------------------------
set {
	reference rhf
	basis cc-pvtz
}

set_num_threads( 4 )
memory 2 gb

molecule MOL {
0 1

O	 1.847685	 1.294399	 -0.000190
C	 1.704209	 0.119472	 -0.000093
C	 0.380337	 -0.600947	 -0.000234
O	 2.715427	 -0.733672	 0.000025
C	 -0.824290	 0.329213	 -0.000115
H	 0.371455	 -1.255476	 -0.865660
H	 0.371410	 -1.255787	 0.864952
C	 -2.146151	 -0.432825	 -0.000068
H	 -0.773936	 0.979158	 -0.866319
H	 -0.773838	 0.979034	 0.866186
C	 -3.366283	 0.483552	 0.000557
H	 -2.189286	 -1.084450	 -0.869996
H	 -2.188867	 -1.085083	 0.869399
C	 -4.448094	 0.040007	 0.979518
H	 -3.782539	 0.525909	 -1.001987
H	 -3.053753	 1.495432	 0.242599
H	 -4.806222	 -0.956393	 0.742526
H	 -5.298828	 0.711100	 0.954620
H	 -4.071795	 0.021174	 1.997004
C	 4.020999	 -0.192556	 0.000019
H	 4.182809	 0.412891	 -0.879449
H	 4.692590	 -1.035653	 0.000152
H	 4.182726	 0.413087	 0.879368

	symmetry c1
}
set optking {
	frozen_dihedral = ("
		15 11 8 12
	")
}

ee = optimize('scf')
oeprop('DIPOLE', 'QUADRUPOLE', 'MULLIKEN_CHARGES')
f=open( 'psi4out.xyz', 'w' )
f.write( "23  " )
f.write( str(ee) + "\n" )
f.write( MOL.save_string_xyz() )
f.close()
--------------------------------------------------------------------------

    Molecular point group: c1
  Charge       = 0
  Multiplicity = 1
  Basis Set: CC-PVTZ
  Basis Set:
  @DF-RHF Final Energy:  -423.12621978603448
    Total Energy =                       -423.1262197860346532
    Molecular point group: c1
  Basis Set: CC-PVTZ
  Basis Set:
  Basis Set: CC-PVTZ
  Basis Set:
  @DF-RHF Final Energy:  -423.12649807742730
    Total Energy =                       -423.1264980774272999
  Basis Set: CC-PVTZ
  Basis Set:
  Basis Set: CC-PVTZ
  Basis Set:
  @DF-RHF Final Energy:  -423.12655808576022
    Total Energy =                       -423.1265580857594841
  Basis Set: CC-PVTZ
  Basis Set:
  Basis Set: CC-PVTZ
  Basis Set:
  @DF-RHF Final Energy:  -423.12629178271322
    Total Energy =                       -423.1262917827137926
  Basis Set: CC-PVTZ
  Basis Set:
  Basis Set: CC-PVTZ
  Basis Set:
  @DF-RHF Final Energy:  -423.12656950035148
    Total Energy =                       -423.1265695003515930
  Basis Set: CC-PVTZ
  Basis Set:
  Charge       = 0
  Multiplicity = 1
  Basis Set: CC-PVTZ
  Basis Set:

    Orbital Energies (a.u.)
    -----------------------

    Doubly Occupied:

       1A    -20.596265     2A    -20.534068     3A    -11.364543
       4A    -11.278449     5A    -11.233540     6A    -11.217382
       7A    -11.215708     8A    -11.214382     9A    -11.207765
      10A     -1.472156    11A     -1.365729    12A     -1.093278
      13A     -1.043457    14A     -0.987908    15A     -0.932269
      16A     -0.844489    17A     -0.795204    18A     -0.769398
      19A     -0.699020    20A     -0.686660    21A     -0.675623
      22A     -0.648463    23A     -0.612487    24A     -0.600334
      25A     -0.576504    26A     -0.566835    27A     -0.547880
      28A     -0.526255    29A     -0.523364    30A     -0.504447
      31A     -0.490875    32A     -0.469267    33A     -0.463672
      34A     -0.461398    35A     -0.457573    36A     -0.437992

  @DF-RHF Final Energy:  -423.12656967649747

   => Energetics <=

    Nuclear Repulsion Energy =            453.2655470869439682
    One-Electron Energy =               -1474.5549565090389024
    Two-Electron Energy =                 598.1628397455973527
    DFT Exchange-Correlation Energy =       0.0000000000000000
    Empirical Dispersion Energy =           0.0000000000000000
    PCM Polarization Energy =               0.0000000000000000
    EFP Energy =                            0.0000000000000000
    Total Energy =                       -423.1265696764975246
    Molecular point group: c1
  Basis Set: CC-PVTZ
  Basis Set:

  -Total Gradient:
     Atom            X                  Y                   Z
    ------   -----------------  -----------------  -----------------
       1       -0.000003075268     0.000001326631    -0.000009122327
       2        0.000006666442    -0.000006670200     0.000015253464
       3        0.000006592833    -0.000005995136    -0.000020467159
       4        0.000000680223     0.000000098766    -0.000007553917
       5       -0.000024106839    -0.000004936210     0.000043915735
       6        0.000003739442    -0.000003538203    -0.000000465423
       7        0.000001859701     0.000005201119    -0.000001412672
       8       -0.002729206258    -0.003542008643     0.002437257040
       9       -0.000005058179     0.000010013459     0.000002487872
      10        0.000010340695    -0.000000412569    -0.000000168353
      11        0.002982797325     0.003923828047    -0.001336094624
      12        0.001822457269     0.002354855553    -0.001849092786
      13       -0.000010293542     0.000020179217     0.000004090784
      14        0.000019614841     0.000007803825    -0.000002260670
      15       -0.002084488574    -0.002740640816     0.000710954736
      16        0.000009837218    -0.000016459054     0.000002880561
      17        0.000000785137     0.000000338638     0.000002482323
      18       -0.000005869555     0.000001914778     0.000000692482
      19       -0.000005429943    -0.000004774519     0.000004868549
      20        0.000002927634     0.000000402486     0.000003600758
      21       -0.000000866528    -0.000000154868    -0.000000403657
      22       -0.000000226866    -0.000000109429    -0.000000563403
      23        0.000000322791    -0.000000262871    -0.000000879314

  **** Optimization is complete! (in 6 steps) ****
    Final optimized geometry and variables:
    Molecular point group: c1

    Geometry (in Angstrom), charge = 0, multiplicity = 1:

    O            1.827418356676     1.255923332159    -0.108895905514
    C            1.683495314113     0.081051470086    -0.114945106303
    C            0.359411628683    -0.638885072017    -0.105017244639
    O            2.694444453593    -0.772327444047    -0.131856729390
    C           -0.844697911301     0.291301784481    -0.085737597882
    H            0.341031128841    -1.288294670980    -0.974161564413
    H            0.359649911644    -1.299075316115     0.756278199166
    C           -2.169126322399    -0.470343184560    -0.068666214743
    H           -0.807406753590     0.943520481687    -0.951262537117
    H           -0.782979812486     0.939566467976     0.781029959559
    C           -3.396124321639     0.458417774864    -0.101431129243
    H           -2.190810478345    -1.129690682459    -0.931447972042
    H           -2.205657723472    -1.103006771658     0.813149382518
    C           -4.517931055601     0.003357650921     0.829246951069
    H           -3.792917654766     0.497512930063    -1.110322215224
    H           -3.103105697031     1.468613668896     0.162733594220
    H           -4.847374065119    -1.000644895479     0.581939278166
    H           -5.377838898473     0.659842619917     0.759170004851
    H           -4.189074667424    -0.003969259838     1.863201377558
    C            4.000022779366    -0.231547541583    -0.142832746118
    H            4.152242339339     0.379804086046    -1.019942967027
    H            4.671379063517    -1.074752835793    -0.155931588958
    H            4.171880527514     0.368116931346     0.738706583806

  Mulliken Charges: (a.u.)
   Center  Symbol    Alpha    Beta     Spin     Total
       1     O     4.19696  4.19696  0.00000 -0.39391
       2     C     2.80625  2.80625  0.00000  0.38750
       3     C     3.10277  3.10277  0.00000 -0.20554
       4     O     4.14650  4.14650  0.00000 -0.29301
       5     C     3.08438  3.08438  0.00000 -0.16876
       6     H     0.44018  0.44018  0.00000  0.11964
       7     H     0.43988  0.43988  0.00000  0.12023
       8     C     3.09326  3.09326  0.00000 -0.18651
       9     H     0.44521  0.44521  0.00000  0.10957
      10     H     0.44655  0.44655  0.00000  0.10690
      11     C     3.08696  3.08696  0.00000 -0.17392
      12     H     0.45342  0.45342  0.00000  0.09316
      13     H     0.45481  0.45481  0.00000  0.09038
      14     C     3.14823  3.14823  0.00000 -0.29647
      15     H     0.45180  0.45180  0.00000  0.09639
      16     H     0.45142  0.45142  0.00000  0.09717
      17     H     0.45480  0.45480  0.00000  0.09040
      18     H     0.44906  0.44906  0.00000  0.10188
      19     H     0.45579  0.45579  0.00000  0.08843
      20     C     3.03769  3.03769  0.00000 -0.07539
      21     H     0.45436  0.45436  0.00000  0.09127
      22     H     0.44535  0.44535  0.00000  0.10929
      23     H     0.45436  0.45436  0.00000  0.09128

   Total alpha = 36.00000, Total beta = 36.00000, Total charge =  0.00000
