  ==> Input File <==

--------------------------------------------------------------------------
set {
	reference rhf
	basis cc-pvtz
}

set_num_threads( 4 )
memory 2 gb

molecule MOL {
0 1

H	 -2.044579	 -0.883726	 0.435910
O	 -1.432053	 -0.565244	 -0.200812
C	 -0.727158	 0.534527	 0.310686
C	 0.680222	 0.664433	 -0.252229
H	 -1.306802	 1.408001	 0.044211
H	 -0.690821	 0.490158	 1.397609
C	 1.605391	 -0.489360	 0.123098
H	 0.615089	 0.745647	 -1.332226
H	 1.101414	 1.597893	 0.110950
H	 1.247627	 -1.432485	 -0.275204
H	 2.601435	 -0.332816	 -0.273062
H	 1.691776	 -0.589902	 1.200774

	symmetry c1
}
set optking {
	frozen_dihedral = ("
		1 2 3 4
	")
}

ee = optimize('scf')
oeprop('DIPOLE', 'QUADRUPOLE', 'MULLIKEN_CHARGES')
f=open( 'psi4out.xyz', 'w' )
f.write( "12  " )
f.write( str(ee) + "\n" )
f.write( MOL.save_string_xyz() )
f.close()
--------------------------------------------------------------------------

    Molecular point group: c1
  Charge       = 0
  Multiplicity = 1
  Basis Set: CC-PVTZ
  Basis Set:
  @DF-RHF Final Energy:  -193.18922465600713
    Total Energy =                       -193.1892246560071271
    Molecular point group: c1
  Basis Set: CC-PVTZ
  Basis Set:
  Basis Set: CC-PVTZ
  Basis Set:
  @DF-RHF Final Energy:  -193.19037531501780
    Total Energy =                       -193.1903753150178602
  Basis Set: CC-PVTZ
  Basis Set:
  Basis Set: CC-PVTZ
  Basis Set:
  @DF-RHF Final Energy:  -193.19062691715195
    Total Energy =                       -193.1906269171518602
  Basis Set: CC-PVTZ
  Basis Set:
  Basis Set: CC-PVTZ
  Basis Set:
  @DF-RHF Final Energy:  -193.19063246268476
    Total Energy =                       -193.1906324626846754
  Basis Set: CC-PVTZ
  Basis Set:
  Basis Set: CC-PVTZ
  Basis Set:
  @DF-RHF Final Energy:  -193.19063617756996
    Total Energy =                       -193.1906361775698713
  Basis Set: CC-PVTZ
  Basis Set:
  Charge       = 0
  Multiplicity = 1
  Basis Set: CC-PVTZ
  Basis Set:

    Orbital Energies (a.u.)
    -----------------------

    Doubly Occupied:

       1A    -20.546055     2A    -11.266433     3A    -11.212950
       4A    -11.202812     5A     -1.363859     6A     -1.048405
       7A     -0.920498     8A     -0.799451     9A     -0.708997
      10A     -0.641841    11A     -0.591272    12A     -0.583319
      13A     -0.529902    14A     -0.504095    15A     -0.485548
      16A     -0.466425    17A     -0.434848

  @DF-RHF Final Energy:  -193.19063625341025

   => Energetics <=

    Nuclear Repulsion Energy =            133.3347272467809432
    One-Electron Energy =                -526.4373104025514749
    Two-Electron Energy =                 199.9119469023603983
    DFT Exchange-Correlation Energy =       0.0000000000000000
    Empirical Dispersion Energy =           0.0000000000000000
    PCM Polarization Energy =               0.0000000000000000
    EFP Energy =                            0.0000000000000000
    Total Energy =                       -193.1906362534101049
    Molecular point group: c1
  Basis Set: CC-PVTZ
  Basis Set:

  -Total Gradient:
     Atom            X                  Y                   Z
    ------   -----------------  -----------------  -----------------
       1        0.000992013511    -0.000839347748     0.000517126439
       2       -0.001122137188     0.000855353337    -0.000389631699
       3       -0.000188795214     0.000469080886    -0.000782877729
       4        0.000311159670    -0.000488321951     0.000666721960
       5       -0.000000390925     0.000006204987     0.000005506031
       6        0.000005104102    -0.000005568387    -0.000005367809
       7        0.000000745841    -0.000002472488    -0.000013948715
       8       -0.000001241135    -0.000007729489     0.000007285907
       9        0.000005091206     0.000011980857    -0.000003386990
      10        0.000000859595    -0.000003536974     0.000000002981
      11        0.000001766669     0.000000037135     0.000002427201
      12       -0.000004176133     0.000004319834    -0.000003857577

  **** Optimization is complete! (in 6 steps) ****
    Final optimized geometry and variables:
    Molecular point group: c1

    Geometry (in Angstrom), charge = 0, multiplicity = 1:

    H           -1.983916980013    -0.937273648456     0.372305637532
    O           -1.365879625326    -0.578474738050    -0.235532103373
    C           -0.722176423045     0.540563337039     0.320144773672
    C            0.678260083994     0.656762971892    -0.251801709438
    H           -1.288275035427     1.440368662131     0.096081470769
    H           -0.667432659198     0.448996826532     1.402443052062
    C            1.592026606972    -0.500839648937     0.134071635335
    H            0.601971098737     0.721443704139    -1.332475045430
    H            1.105047552323     1.595659896365     0.089504210513
    H            1.185316671865    -1.443712232427    -0.206638661401
    H            2.575746053859    -0.379823470817    -0.304458155635
    H            1.715960402591    -0.557793196864     1.211185742732

  Mulliken Charges: (a.u.)
   Center  Symbol    Alpha    Beta     Spin     Total
       1     H     0.39286  0.39286  0.00000  0.21427
       2     O     4.20333  4.20333  0.00000 -0.40665
       3     C     2.97156  2.97156  0.00000  0.05687
       4     C     3.08003  3.08003  0.00000 -0.16006
       5     H     0.46355  0.46355  0.00000  0.07289
       6     H     0.47407  0.47407  0.00000  0.05187
       7     C     3.15166  3.15166  0.00000 -0.30331
       8     H     0.45208  0.45208  0.00000  0.09584
       9     H     0.45550  0.45550  0.00000  0.08899
      10     H     0.44597  0.44597  0.00000  0.10806
      11     H     0.44987  0.44987  0.00000  0.10025
      12     H     0.45951  0.45951  0.00000  0.08098

   Total alpha = 17.00000, Total beta = 17.00000, Total charge =  0.00000
