  ==> Input File <==

--------------------------------------------------------------------------
set {
	reference rhf
	basis 6-31G*
}

set_num_threads( 4 )
memory 2 gb

molecule MOL {
0 1

H	 -1.116781	 -0.133951	 0.874220
C	 -0.790252	 0.431209	 0.000000
N	 0.538815	 0.649616	 0.000000
O	 -1.558490	 0.796449	 -0.840011
C	 1.521968	 -0.411503	 0.000000
H	 0.852804	 1.592852	 0.000000
H	 2.150599	 -0.357004	 -0.881901
H	 0.999455	 -1.354525	 0.000000
H	 2.150599	 -0.357004	 0.881901

	symmetry c1
}
set optking {
	frozen_dihedral = ("
		1 2 3 6
	")
}

ee = optimize('scf')
oeprop('DIPOLE', 'QUADRUPOLE', 'MULLIKEN_CHARGES')
f=open( 'psi4out.xyz', 'w' )
f.write( "9  " )
f.write( str(ee) + "\n" )
f.write( MOL.save_string_xyz() )
f.close()
--------------------------------------------------------------------------

    Molecular point group: c1
  Charge       = 0
  Multiplicity = 1
  Basis Set: 6-31G*
  Basis Set:
  @DF-RHF Final Energy:  -207.92875430129368
    Total Energy =                       -207.9287543012937363
    Molecular point group: c1
  Basis Set: 6-31G*
  Basis Set:
  Basis Set: 6-31G*
  Basis Set:
  @DF-RHF Final Energy:  -207.93383634342268
    Total Energy =                       -207.9338363434227119
  Basis Set: 6-31G*
  Basis Set:
  Basis Set: 6-31G*
  Basis Set:
  @DF-RHF Final Energy:  -207.93892432272784
    Total Energy =                       -207.9389243227278143
  Basis Set: 6-31G*
  Basis Set:
  Basis Set: 6-31G*
  Basis Set:
  @DF-RHF Final Energy:  -207.94352894802861
    Total Energy =                       -207.9435289480286713
  Basis Set: 6-31G*
  Basis Set:
  @DF-RHF Final Energy:  -207.94408622984105
    Total Energy =                       -207.9440862298410764
  @DF-RHF Final Energy:  -207.94440112808869
    Total Energy =                       -207.9444011280886571
  @DF-RHF Final Energy:  -207.94448910715843
    Total Energy =                       -207.9444891071585175
  @DF-RHF Final Energy:  -207.94456009537612
    Total Energy =                       -207.9445600953761470
  @DF-RHF Final Energy:  -207.94461815358329
    Total Energy =                       -207.9446181535833489
  @DF-RHF Final Energy:  -207.94479405282675
    Total Energy =                       -207.9447940528268077
  @DF-RHF Final Energy:  -207.94197818562236
    Total Energy =                       -207.9419781856223040
  @DF-RHF Final Energy:  -207.94488401050955
    Total Energy =                       -207.9448840105094973
  @DF-RHF Final Energy:  -207.94515736462284
    Total Energy =                       -207.9451573646227871
  @DF-RHF Final Energy:  -207.94520273433182
    Total Energy =                       -207.9452027343318434
  @DF-RHF Final Energy:  -207.94521680691804
    Total Energy =                       -207.9452168069180686
  @DF-RHF Final Energy:  -207.94522027442579
    Total Energy =                       -207.9452202744256795
  @DF-RHF Final Energy:  -207.94522120699258
    Total Energy =                       -207.9452212069926986
  @DF-RHF Final Energy:  -207.94522091309881
    Total Energy =                       -207.9452209130988649
  @DF-RHF Final Energy:  -207.94522067183141
    Total Energy =                       -207.9452206718314073
  @DF-RHF Final Energy:  -207.94522025981470
    Total Energy =                       -207.9452202598147323
  @DF-RHF Final Energy:  -207.94512064154461
    Total Energy =                       -207.9451206415446052
  @DF-RHF Final Energy:  -207.94521968364919
    Total Energy =                       -207.9452196836492419
  @DF-RHF Final Energy:  -207.94521971240746
    Total Energy =                       -207.9452197124074360
  @DF-RHF Final Energy:  -207.94521960295384
    Total Energy =                       -207.9452196029538413
  @DF-RHF Final Energy:  -207.94521949159602
    Total Energy =                       -207.9452194915960774
  @DF-RHF Final Energy:  -207.94521963143501
    Total Energy =                       -207.9452196314350658
  @DF-RHF Final Energy:  -207.94521793819308
    Total Energy =                       -207.9452179381930819
  @DF-RHF Final Energy:  -207.94521960117061
    Total Energy =                       -207.9452196011706633
  @DF-RHF Final Energy:  -207.94521938843724
    Total Energy =                       -207.9452193884372093
  @DF-RHF Final Energy:  -207.94521931166122
    Total Energy =                       -207.9452193116611625
  @DF-RHF Final Energy:  -207.94521194272767
    Total Energy =                       -207.9452119427277239
  @DF-RHF Final Energy:  -207.94521949144041
    Total Energy =                       -207.9452194914404686
  @DF-RHF Final Energy:  -207.94521938113465
    Total Energy =                       -207.9452193811346774
  @DF-RHF Final Energy:  -207.94521872956116
    Total Energy =                       -207.9452187295611907
  @DF-RHF Final Energy:  -207.94521944555663
    Total Energy =                       -207.9452194455566882
  @DF-RHF Final Energy:  -207.94521934109423
    Total Energy =                       -207.9452193410942300
  Basis Set: 6-31G*
  Basis Set:
  @DF-RHF Final Energy:  -207.94521909802751
    Total Energy =                       -207.9452190980275077
  Basis Set: 6-31G*
  Basis Set:
  Basis Set: 6-31G*
  Basis Set:
  @DF-RHF Final Energy:  -207.94512557918478
    Total Energy =                       -207.9451255791848041
  Basis Set: 6-31G*
  Basis Set:
  Basis Set: 6-31G*
  Basis Set:
  @DF-RHF Final Energy:  -207.94521876309813
    Total Energy =                       -207.9452187630980973
  Basis Set: 6-31G*
  Basis Set:
  Charge       = 0
  Multiplicity = 1
  Basis Set: 6-31G*
  Basis Set:

    Orbital Energies (a.u.)
    -----------------------

    Doubly Occupied:

       1A    -20.548094     2A    -15.581864     3A    -11.351189
       4A    -11.268809     5A     -1.405920     6A     -1.235264
       7A     -0.952620     8A     -0.836158     9A     -0.699890
      10A     -0.675496    11A     -0.640739    12A     -0.583711
      13A     -0.565665    14A     -0.535926    15A     -0.437268
      16A     -0.400392

  @DF-RHF Final Energy:  -207.94521374866696

   => Energetics <=

    Nuclear Repulsion Energy =            120.1902254734112176
    One-Electron Energy =                -520.8328672944569462
    Two-Electron Energy =                 192.6974280723788411
    DFT Exchange-Correlation Energy =       0.0000000000000000
    Empirical Dispersion Energy =           0.0000000000000000
    PCM Polarization Energy =               0.0000000000000000
    EFP Energy =                            0.0000000000000000
    Total Energy =                       -207.9452137486669017
    Molecular point group: c1
  Basis Set: 6-31G*
  Basis Set:

  -Total Gradient:
     Atom            X                  Y                   Z
    ------   -----------------  -----------------  -----------------
       1        0.002302890682     0.009029163363     0.008520902333
       2       -0.002275035771    -0.014075322293    -0.007880620205
       3       -0.006373289318     0.006892699193    -0.011409710860
       4        0.000417845194     0.000293579079    -0.000261602352
       5        0.000052303923    -0.001094144274    -0.000990408913
       6        0.005573770084    -0.001324545895     0.011246347973
       7        0.000012181341    -0.000032454468     0.000109613731
       8        0.000038067633     0.000251429158    -0.000000698751
       9        0.000251266230     0.000059596138     0.000666177045

    Molecular point group: c1

    Geometry (in Angstrom), charge = 0, multiplicity = 1:

    H           -0.784016525907    -0.670314947173     1.049022187277
    C           -0.673951175728     0.018582997449     0.208081941994
    N            0.611737309355     0.122733272194    -0.288701076414
    O           -1.577651027130     0.700833694217    -0.151303385825
    C            1.583284141553    -0.848642914181     0.187609985690
    H            0.961112134856     1.058622140362    -0.227081309534
    H            2.514526365081    -0.702492238895    -0.343027452527
    H            1.235858520282    -1.848729572473    -0.034181830356
    H            1.784021890461    -0.781742539238     1.256440820424

  Mulliken Charges: (a.u.)
   Center  Symbol    Alpha    Beta     Spin     Total
       1     H     0.42932  0.42932  0.00000  0.14136
       2     C     2.75428  2.75428  0.00000  0.49145
       3     N     3.85841  3.85841  0.00000 -0.71682
       4     O     4.25688  4.25688  0.00000 -0.51375
       5     C     3.16027  3.16027  0.00000 -0.32055
       6     H     0.30904  0.30904  0.00000  0.38192
       7     H     0.40415  0.40415  0.00000  0.19170
       8     H     0.40683  0.40683  0.00000  0.18635
       9     H     0.42083  0.42083  0.00000  0.15834

   Total alpha = 16.00000, Total beta = 16.00000, Total charge =  0.00000
