  ==> Input File <==

--------------------------------------------------------------------------
set {
	reference rhf
	basis 6-31G*
}

set_num_threads( 1 )
memory 2 gb

molecule MOL {
0 1

H	 -3.161837	 0.500524	 -0.000234
C	 -2.367097	 -0.232926	 -0.000000
O	 -1.158440	 0.455814	 -0.000122
H	 -2.468853	 -0.861886	 -0.882833
H	 -2.468942	 -0.861421	 0.883154
C	 -0.029776	 -0.365156	 0.000148
C	 1.212217	 0.508981	 0.000007
H	 -0.036772	 -1.013236	 -0.877259
H	 -0.036869	 -1.012778	 0.877897
C	 1.040276	 1.768798	 0.847461
H	 2.047219	 -0.079284	 0.367943
H	 1.445187	 0.776013	 -1.026209
H	 0.830267	 1.523200	 1.884766
H	 1.940632	 2.373667	 0.829099
H	 0.223392	 2.384342	 0.481115

	symmetry c1
}
set optking {
	frozen_dihedral = ("
		6 3 2 4,
		8 6 3 2
	")
}

ee = energy('scf')
oeprop('DIPOLE', 'QUADRUPOLE', 'MULLIKEN_CHARGES')
f=open( 'psi4out.xyz', 'w' )
f.write( "15  " )
f.write( str(ee) + "\n" )
f.write( MOL.save_string_xyz() )
f.close()
--------------------------------------------------------------------------

    Molecular point group: c1

    Geometry (in Angstrom), charge = 0, multiplicity = 1:

       Center              X                  Y                   Z               Mass
    ------------   -----------------  -----------------  -----------------  -----------------
           H         -2.865353348722     0.079246042112    -0.172047033401     1.007825032070
           C         -2.070613348722    -0.654203957888    -0.171813033401    12.000000000000
           O         -0.861956348722     0.034536042112    -0.171935033401    15.994914619560
           H         -2.172369348722    -1.283163957888    -1.054646033401     1.007825032070
           H         -2.172458348722    -1.282698957888     0.711340966599     1.007825032070
           C          0.266707651278    -0.786433957888    -0.171665033401    12.000000000000
           C          1.508700651278     0.087703042112    -0.171806033401    12.000000000000
           H          0.259711651278    -1.434513957888    -1.049072033401     1.007825032070
           H          0.259614651278    -1.434055957888     0.706083966599     1.007825032070
           C          1.336759651278     1.347520042112     0.675647966599    12.000000000000
           H          2.343702651278    -0.500561957888     0.196129966599     1.007825032070
           H          1.741670651278     0.354735042112    -1.198022033401     1.007825032070
           H          1.126750651278     1.101922042112     1.712952966599     1.007825032070
           H          2.237115651278     1.952389042112     0.657285966599     1.007825032070
           H          0.519875651278     1.963064042112     0.309301966599     1.007825032070

  Charge       = 0
  Multiplicity = 1
  Basis Set: 6-31G*
  Basis Set:

    Orbital Energies (a.u.)
    -----------------------

    Doubly Occupied:

       1A    -20.554520     2A    -11.266263     3A    -11.264816
       4A    -11.213855     5A    -11.199742     6A     -1.380153
       7A     -1.052699     8A     -0.947245     9A     -0.889710
      10A     -0.794194    11A     -0.672406    12A     -0.660968
      13A     -0.634661    14A     -0.598313    15A     -0.551606
      16A     -0.542768    17A     -0.505045    18A     -0.482120
      19A     -0.473571    20A     -0.458683    21A     -0.412512

  @DF-RHF Final Energy:  -232.13605015815898

   => Energetics <=

    Nuclear Repulsion Energy =            194.3553571833295450
    One-Electron Energy =                -699.8713131025567691
    Two-Electron Energy =                 273.3799057610685850
    DFT Exchange-Correlation Energy =       0.0000000000000000
    Empirical Dispersion Energy =           0.0000000000000000
    PCM Polarization Energy =               0.0000000000000000
    EFP Energy =                            0.0000000000000000
    Total Energy =                       -232.1360501581586391

  Mulliken Charges: (a.u.)
   Center  Symbol    Alpha    Beta     Spin     Total
       1     H     0.41237  0.41237  0.00000  0.17526
       2     C     3.07866  3.07866  0.00000 -0.15732
       3     O     4.30388  4.30388  0.00000 -0.60775
       4     H     0.43035  0.43035  0.00000  0.13931
       5     H     0.42999  0.42999  0.00000  0.14002
       6     C     2.98701  2.98701  0.00000  0.02598
       7     C     3.16558  3.16558  0.00000 -0.33116
       8     H     0.43000  0.43000  0.00000  0.14000
       9     H     0.43265  0.43265  0.00000  0.13469
      10     C     3.23664  3.23664  0.00000 -0.47328
      11     H     0.42159  0.42159  0.00000  0.15681
      12     H     0.41821  0.41821  0.00000  0.16358
      13     H     0.42370  0.42370  0.00000  0.15259
      14     H     0.42396  0.42396  0.00000  0.15209
      15     H     0.40541  0.40541  0.00000  0.18918

   Total alpha = 21.00000, Total beta = 21.00000, Total charge = -0.00000
