                              Psi4 1.0.54 Driver

  ==> Input File <==

--------------------------------------------------------------------------
set {
	reference rhf
	basis cc-pvtz
}

set_num_threads( 4 )
memory 2 gb

molecule MOL {
0 1

H	 2.391907	 -1.737114	 -0.813346
N	 1.411925	 -1.557188	 -0.826390
C	 1.149093	 -0.179395	 -1.190325
C	 0.812289	 -1.894989	 0.448824
H	 1.590334	 0.021426	 -2.158999
H	 1.574774	 0.526519	 -0.474714
C	 -0.350384	 0.045853	 -1.260382
H	 1.009474	 -2.937327	 0.667915
H	 1.216691	 -1.297467	 1.267998
C	 -0.686747	 -1.667493	 0.376619
H	 -0.760580	 -0.545521	 -2.084159
H	 -0.549615	 1.089218	 -1.474426
N	 -0.976577	 -0.298712	 -0.000000
H	 -1.129189	 -1.862985	 1.346231
H	 -1.120115	 -2.376902	 -0.334382
C	 -2.391156	 -0.021003	 -0.000000
H	 -2.853954	 -0.458728	 -0.875714
H	 -2.853954	 -0.458728	 0.875714
H	 -2.614037	 1.049773	 -0.000000

	symmetry c1
}
set optking {
	frozen_dihedral = ("
		7 13 16 19
	")
}

ee,wfn = optimize('scf', return_wfn=True)
oeprop( wfn, 'DIPOLE', 'QUADRUPOLE', 'MULLIKEN_CHARGES')
f=open( 'psi4out.xyz', 'w' )
f.write( "19  " )
f.write( str(ee) + "\n" )
f.write( MOL.save_string_xyz() )
f.close()
--------------------------------------------------------------------------

    Molecular point group: c1
  Charge       = 0
  Multiplicity = 1
  Basis Set: CC-PVTZ
  Basis Set:
  @DF-RHF Final Energy:  -305.30771496704176
    Total Energy =                       -305.3077149670415338
    Molecular point group: c1
  Basis Set: CC-PVTZ
  Basis Set:
  Basis Set: CC-PVTZ
  Basis Set:
  @DF-RHF Final Energy:  -305.30843014391598
    Total Energy =                       -305.3084301439157571
  Basis Set: CC-PVTZ
  Basis Set:
  Basis Set: CC-PVTZ
  Basis Set:
  @DF-RHF Final Energy:  -305.30850596171814
    Total Energy =                       -305.3085059617184243
  Basis Set: CC-PVTZ
  Basis Set:
  Charge       = 0
  Multiplicity = 1
  Basis Set: CC-PVTZ
  Basis Set:

    Orbital Energies (a.u.)
    -----------------------

    Doubly Occupied:

       1A    -15.536990     2A    -15.531174     3A    -11.237239
       4A    -11.237219     5A    -11.235855     6A    -11.235734
       7A    -11.233105     8A     -1.249317     9A     -1.187780
      10A     -1.023776    11A     -0.965743    12A     -0.861489
      13A     -0.858367    14A     -0.757951    15A     -0.692795
      16A     -0.634929    17A     -0.626964    18A     -0.610150
      19A     -0.604868    20A     -0.581386    21A     -0.543149
      22A     -0.530813    23A     -0.511518    24A     -0.490379
      25A     -0.467048    26A     -0.458102    27A     -0.366017
      28A     -0.349409

  @DF-RHF Final Energy:  -305.30850666842287

   => Energetics <=

    Nuclear Repulsion Energy =            340.3240696972633259
    One-Electron Energy =               -1088.0266171470696008
    Two-Electron Energy =                 442.3940407813832962
    DFT Exchange-Correlation Energy =       0.0000000000000000
    Empirical Dispersion Energy =           0.0000000000000000
    PCM Polarization Energy =               0.0000000000000000
    EFP Energy =                            0.0000000000000000
    Total Energy =                       -305.3085066684229787
    Molecular point group: c1
  Basis Set: CC-PVTZ
  Basis Set:

  -Total Gradient:
     Atom            X                  Y                   Z
    ------   -----------------  -----------------  -----------------
       1       -0.000003596527     0.000001388977    -0.000007742775
       2        0.000017707932    -0.000009104055    -0.000025655514
       3        0.000020337624    -0.000003293454    -0.000000499199
       4        0.000003500522     0.000021314188    -0.000006510796
       5        0.000001051644    -0.000009799121     0.000005509909
       6        0.000002355757     0.000004556999     0.000000492975
       7       -0.000418799576    -0.001869841319    -0.000608158586
       8       -0.000009086414     0.000006341864    -0.000004864231
       9       -0.000004448285    -0.000002201073     0.000007964386
      10       -0.000044072517     0.000053408901     0.000067052969
      11       -0.000006792286    -0.000009297775     0.000007222908
      12        0.000005768518     0.000015248620    -0.000038385248
      13        0.000494003880     0.002555620716     0.001585851945
      14       -0.000009458352    -0.000028024748     0.000010626187
      15        0.000009889446     0.000007329292    -0.000005925334
      16       -0.000076862229    -0.000727488043    -0.003723879405
      17       -0.000020545678    -0.000009148432    -0.000022262677
      18        0.000020031071    -0.000004305153     0.000000218916
      19        0.000019015471     0.000007293616     0.002758943573

  **** Optimization is complete! (in 4 steps) ****
    Final optimized geometry and variables:
    Molecular point group: c1

    Geometry (in Angstrom), charge = 0, multiplicity = 1:

    H            2.547884371277    -0.930177563358    -0.494062233283
    N            1.567060191460    -0.754056580359    -0.497386867781
    C            1.294636266861     0.624842095471    -0.849037918760
    C            0.979066408379    -1.104363328831     0.779681904918
    H            1.722099742061     0.833641603277    -1.822299707567
    H            1.726723722027     1.328382767568    -0.134863762354
    C           -0.206639989501     0.843114437797    -0.897916120158
    H            1.180301950750    -2.148191791008     0.988194423776
    H            1.389089891154    -0.513148802075     1.600773255195
    C           -0.521413244842    -0.879643159577     0.724744436096
    H           -0.626141858788     0.248898011006    -1.714563930780
    H           -0.414508382941     1.885513187790    -1.110901882323
    N           -0.816902116609     0.495320482651     0.370134232716
    H           -0.952157505201    -1.089460973268     1.696360508875
    H           -0.959376651098    -1.581169827224     0.008727498256
    C           -2.233789368798     0.769522178455     0.374624326613
    H           -2.757999170638     0.326964316269    -0.475752538085
    H           -2.678577970065     0.376490804585     1.280342992072
    H           -2.406732955214     1.839177895971     0.373286132657

  Mulliken Charges: (a.u.)
   Center  Symbol    Alpha    Beta     Spin     Total
       1     H     0.43998  0.43998  0.00000  0.12005
       2     N     3.64290  3.64290  0.00000 -0.28581
       3     C     3.04050  3.04050  0.00000 -0.08100
       4     C     3.04122  3.04122  0.00000 -0.08243
       5     H     0.45243  0.45243  0.00000  0.09513
       6     H     0.46526  0.46526  0.00000  0.06948
       7     C     3.03550  3.03550  0.00000 -0.07099
       8     H     0.45247  0.45247  0.00000  0.09506
       9     H     0.46537  0.46537  0.00000  0.06926
      10     C     3.03361  3.03361  0.00000 -0.06722
      11     H     0.46743  0.46743  0.00000  0.06514
      12     H     0.45413  0.45413  0.00000  0.09173
      13     N     3.61517  3.61517  0.00000 -0.23033
      14     H     0.45388  0.45388  0.00000  0.09224
      15     H     0.46905  0.46905  0.00000  0.06190
      16     C     3.09693  3.09693  0.00000 -0.19386
      17     H     0.46924  0.46924  0.00000  0.06151
      18     H     0.45381  0.45381  0.00000  0.09238
      19     H     0.45113  0.45113  0.00000  0.09774

   Total alpha = 28.00000, Total beta = 28.00000, Total charge =  0.00000

*** Psi4 exiting successfully. Buy a developer a beer!
