                              Psi4 1.0.54 Driver

  ==> Input File <==

--------------------------------------------------------------------------
set {
	reference rhf
	basis cc-pvtz
}

set_num_threads( 4 )
memory 2 gb

molecule MOL {
0 1

H	 -4.340537	 -0.784487	 0.000000
O	 -3.958786	 0.074640	 0.000000
C	 -2.613554	 0.009900	 0.000000
C	 -2.011372	 -0.809204	 0.940544
C	 -1.833981	 0.721385	 -0.891594
H	 -2.625885	 -1.356557	 1.627304
C	 -0.638794	 -0.912787	 0.985216
H	 -2.293885	 1.358907	 -1.624139
C	 -0.455749	 0.616226	 -0.845371
H	 -0.174842	 -1.546921	 1.713495
C	 0.136400	 -0.199053	 0.091194
H	 0.144736	 1.169773	 -1.538700
Br	 2.028005	 -0.345301	 0.156919

	symmetry c1
}
set optking {
	frozen_dihedral = ("
		4 3 2 1
	")
}

ee,wfn = optimize('scf', return_wfn=True)
oeprop( wfn, 'DIPOLE', 'QUADRUPOLE', 'MULLIKEN_CHARGES')
f=open( 'psi4out.xyz', 'w' )
f.write( "13  " )
f.write( str(ee) + "\n" )
f.write( MOL.save_string_xyz() )
f.close()
--------------------------------------------------------------------------

    Molecular point group: c1
  Charge       = 0
  Multiplicity = 1
  Basis Set: CC-PVTZ
  Basis Set:
  @DF-RHF Final Energy: -2877.54285389845245
    Total Energy =                      -2877.5428538984533589
    Molecular point group: c1
  Basis Set: CC-PVTZ
  Basis Set:
  Basis Set: CC-PVTZ
  Basis Set:
  @DF-RHF Final Energy: -2877.54437498291190
    Total Energy =                      -2877.5443749829123590
  Basis Set: CC-PVTZ
  Basis Set:
  Basis Set: CC-PVTZ
  Basis Set:
  @DF-RHF Final Energy: -2877.54449426707833
    Total Energy =                      -2877.5444942670774253
  Basis Set: CC-PVTZ
  Basis Set:
  Basis Set: CC-PVTZ
  Basis Set:
  @DF-RHF Final Energy: -2877.54450659437953
    Total Energy =                      -2877.5445065943758891
  Basis Set: CC-PVTZ
  Basis Set:
  Charge       = 0
  Multiplicity = 1
  Basis Set: CC-PVTZ
  Basis Set:

    Orbital Energies (a.u.)
    -----------------------

    Doubly Occupied:

       1A   -490.019817     2A    -65.160146     3A    -58.515370
       4A    -58.514004     5A    -58.513994     6A    -20.588589
       7A    -11.306781     8A    -11.291290     9A    -11.253070
      10A    -11.251834    11A    -11.242945    12A    -11.239281
      13A     -9.833946    14A     -7.445567    15A     -7.438797
      16A     -7.438754    17A     -3.189258    18A     -3.185709
      19A     -3.185586    20A     -3.176943    21A     -3.176939
      22A     -1.417928    23A     -1.180342    24A     -1.067284
      25A     -1.041907    26A     -0.970556    27A     -0.865183
      28A     -0.827228    29A     -0.755421    30A     -0.684173
      31A     -0.656977    32A     -0.642635    33A     -0.610281
      34A     -0.603019    35A     -0.559251    36A     -0.528588
      37A     -0.502741    38A     -0.499167    39A     -0.431217
      40A     -0.414775    41A     -0.359477    42A     -0.323861

  @DF-RHF Final Energy: -2877.54451024268701

   => Energetics <=

    Nuclear Repulsion Energy =            525.2889104522532762
    One-Electron Energy =               -5041.8455822979803997
    Two-Electron Energy =                1639.0121616030387486
    DFT Exchange-Correlation Energy =       0.0000000000000000
    Empirical Dispersion Energy =           0.0000000000000000
    PCM Polarization Energy =               0.0000000000000000
    EFP Energy =                            0.0000000000000000
    Total Energy =                      -2877.5445102426879203
    Molecular point group: c1
  Basis Set: CC-PVTZ
  Basis Set:

  -Total Gradient:
     Atom            X                  Y                   Z
    ------   -----------------  -----------------  -----------------
       1        0.000079403970     0.000148395076    -0.002486245554
       2       -0.000096287233     0.000520676448     0.003759380553
       3        0.000007622481    -0.001924905858    -0.002582526572
       4        0.000030253419     0.001267021835     0.001345777441
       5       -0.000146964047     0.000013952552    -0.000053553871
       6        0.000052859920    -0.000003922499     0.000000847006
       7       -0.000120531951    -0.000128239983     0.000099273490
       8       -0.000047019257    -0.000012442266     0.000015791983
       9        0.000264270691    -0.000046991921     0.000034519294
      10        0.000036554185    -0.000003435171     0.000016706186
      11       -0.000001580857     0.000185353663    -0.000177563113
      12       -0.000024167699     0.000017343644    -0.000009995003
      13       -0.000034413632    -0.000032805515     0.000037588139

  **** Optimization is complete! (in 5 steps) ****
    Final optimized geometry and variables:
    Molecular point group: c1

    Geometry (in Angstrom), charge = 0, multiplicity = 1:

    H           -4.367408655323    -0.626960810753    -0.208381558425
    O           -3.956687059919     0.218386457754    -0.169863326351
    C           -2.605339987921     0.101855788909    -0.117496272495
    C           -1.985624493472    -0.737431885554     0.789622891702
    C           -1.844603660374     0.897929741188    -0.951357591825
    H           -2.577646690109    -1.335942304187     1.455733163824
    C           -0.606964002037    -0.800476001395     0.844959217858
    H           -2.337783335495     1.553106103352    -1.641698267433
    C           -0.466198297333     0.847004911290    -0.888301495783
    H           -0.127296459364    -1.455079827286     1.544267964064
    C            0.145472986751    -0.006370783903     0.006039833107
    H            0.123083927178     1.464586833626    -1.535526655340
    BR           2.040155555502    -0.085148673336     0.087482496383

  Mulliken Charges: (a.u.)
   Center  Symbol    Alpha    Beta     Spin     Total
       1     H     0.38472  0.38472  0.00000  0.23057
       2     O     4.18203  4.18203  0.00000 -0.36405
       3     C     2.87498  2.87498  0.00000  0.25004
       4     C     3.10716  3.10716  0.00000 -0.21432
       5     C     3.09110  3.09110  0.00000 -0.18220
       6     H     0.42086  0.42086  0.00000  0.15828
       7     C     3.08651  3.08651  0.00000 -0.17302
       8     H     0.41356  0.41356  0.00000  0.17288
       9     C     3.08241  3.08241  0.00000 -0.16482
      10     H     0.41047  0.41047  0.00000  0.17905
      11     C     2.97046  2.97046  0.00000  0.05909
      12     H     0.41038  0.41038  0.00000  0.17923
      13    BR    17.56536 17.56536  0.00000 -0.13072

   Total alpha = 42.00000, Total beta = 42.00000, Total charge =  0.00000

*** Psi4 exiting successfully. Buy a developer a beer!
