                              Psi4 1.0.54 Driver

  ==> Input File <==

--------------------------------------------------------------------------
set {
	reference rhf
	basis cc-pvtz
}

set_num_threads( 4 )
memory 2 gb

molecule MOL {
0 1

H	 2.777407	 0.801444	 -0.176687
N	 2.326826	 -0.066186	 0.000000
C	 0.934676	 -0.005420	 0.000000
H	 2.707895	 -0.791060	 -0.562464
C	 0.226436	 -0.001077	 -1.195129
C	 0.226436	 -0.001077	 1.195129
H	 0.759091	 -0.011439	 -2.128123
C	 -1.153391	 0.009141	 -1.189028
H	 0.759091	 -0.011439	 2.128123
C	 -1.153391	 0.009141	 1.189028
H	 -1.680905	 0.012964	 -2.124348
C	 -1.857876	 0.014675	 0.000000
H	 -1.680905	 0.012964	 2.124348
H	 -2.930222	 0.022904	 0.000000

	symmetry c1
}
set optking {
	frozen_dihedral = ("
		1 2 3 5
	")
}

ee,wfn = optimize('scf', return_wfn=True)
oeprop( wfn, 'DIPOLE', 'QUADRUPOLE', 'MULLIKEN_CHARGES')
f=open( 'psi4out.xyz', 'w' )
f.write( "14  " )
f.write( str(ee) + "\n" )
f.write( MOL.save_string_xyz() )
f.close()
--------------------------------------------------------------------------

    Molecular point group: c1
  Charge       = 0
  Multiplicity = 1
  Basis Set: CC-PVTZ
  Basis Set:
  @DF-RHF Final Energy:  -285.82555686375201
    Total Energy =                       -285.8255568637520696
    Molecular point group: c1
  Basis Set: CC-PVTZ
  Basis Set:
  Basis Set: CC-PVTZ
  Basis Set:
  @DF-RHF Final Energy:  -285.82740038291058
    Total Energy =                       -285.8274003829106391
  Basis Set: CC-PVTZ
  Basis Set:
  Basis Set: CC-PVTZ
  Basis Set:
  @DF-RHF Final Energy:  -285.82777353148049
    Total Energy =                       -285.8277735314803749
  Basis Set: CC-PVTZ
  Basis Set:
  Basis Set: CC-PVTZ
  Basis Set:
  @DF-RHF Final Energy:  -285.82781308803902
    Total Energy =                       -285.8278130880390222
  Basis Set: CC-PVTZ
  Basis Set:
  Charge       = 0
  Multiplicity = 1
  Basis Set: CC-PVTZ
  Basis Set:

    Orbital Energies (a.u.)
    -----------------------

    Doubly Occupied:

       1A    -15.544281     2A    -11.260760     3A    -11.228726
       4A    -11.227189     5A    -11.223773     6A    -11.223085
       7A    -11.219315     8A     -1.211709     9A     -1.132114
      10A     -1.016035    11A     -0.990383    12A     -0.831207
      13A     -0.811071    14A     -0.706106    15A     -0.666245
      16A     -0.648812    17A     -0.627830    18A     -0.594128
      19A     -0.585807    20A     -0.510061    21A     -0.502036
      22A     -0.495339    23A     -0.419177    24A     -0.336617
      25A     -0.324831

  @DF-RHF Final Energy:  -285.82781462461838

   => Energetics <=

    Nuclear Repulsion Energy =            273.0214252399125030
    One-Electron Energy =                -927.0251999086181058
    Two-Electron Energy =                 368.1759600440869917
    DFT Exchange-Correlation Energy =       0.0000000000000000
    Empirical Dispersion Energy =           0.0000000000000000
    PCM Polarization Energy =               0.0000000000000000
    EFP Energy =                            0.0000000000000000
    Total Energy =                       -285.8278146246185543
    Molecular point group: c1
  Basis Set: CC-PVTZ
  Basis Set:

  -Total Gradient:
     Atom            X                  Y                   Z
    ------   -----------------  -----------------  -----------------
       1        0.000037144406    -0.000380237161    -0.002153876911
       2        0.000021598641     0.001237170629     0.002649274606
       3       -0.000064701138    -0.002616255189    -0.000387102693
       4       -0.000053033016     0.000095743555     0.000068607611
       5       -0.000065704183     0.001710006338    -0.000087383967
       6        0.000163262925    -0.000028923362    -0.000048730635
       7       -0.000002652221     0.000007014503     0.000024064329
       8        0.000077724353    -0.000080190724    -0.000050990648
       9        0.000004983720     0.000005198180    -0.000002308482
      10       -0.000093429150    -0.000049271524    -0.000081557662
      11       -0.000027283527     0.000010892673     0.000001477931
      12       -0.000005205525     0.000092671903     0.000092465096
      13        0.000008747137     0.000003489414    -0.000003283783
      14       -0.000001452421    -0.000007309237    -0.000020654792

  **** Optimization is complete! (in 5 steps) ****
    Final optimized geometry and variables:
    Molecular point group: c1

    Geometry (in Angstrom), charge = 0, multiplicity = 1:

    H            2.738663747876     0.839031546663    -0.100640008843
    N            2.352702529668    -0.069954038008     0.049736846053
    C            0.925620940899    -0.035884842095     0.002032572212
    H            2.720295740185    -0.663826202003    -0.662748188460
    C            0.221220635829    -0.019808517512    -1.192120871160
    C            0.223866895831    -0.002968815502     1.194194477764
    H            0.757166277535    -0.036918636406    -2.123206009961
    C           -1.160043772747     0.014971139853    -1.192520483515
    H            0.771762413469    -0.023863123696     2.115908479610
    C           -1.157694752361     0.047423252391     1.193659247645
    H           -1.691622477146     0.020364404882    -2.125208359303
    C           -1.855498172924     0.053263767785     0.001224854272
    H           -1.688237939126     0.073513241015     2.126521096677
    H           -2.928077325273     0.085023248202     0.001277062885

  Mulliken Charges: (a.u.)
   Center  Symbol    Alpha    Beta     Spin     Total
       1     H     0.42320  0.42320  0.00000  0.15361
       2     N     3.69787  3.69787  0.00000 -0.39574
       3     C     2.90261  2.90261  0.00000  0.19477
       4     H     0.42316  0.42316  0.00000  0.15368
       5     C     3.11387  3.11387  0.00000 -0.22774
       6     C     3.09969  3.09969  0.00000 -0.19939
       7     H     0.42740  0.42740  0.00000  0.14520
       8     C     3.07223  3.07223  0.00000 -0.14447
       9     H     0.41800  0.41800  0.00000  0.16401
      10     C     3.06527  3.06527  0.00000 -0.13055
      11     H     0.42359  0.42359  0.00000  0.15282
      12     C     3.08621  3.08621  0.00000 -0.17242
      13     H     0.42315  0.42315  0.00000  0.15371
      14     H     0.42375  0.42375  0.00000  0.15249

   Total alpha = 25.00000, Total beta = 25.00000, Total charge = -0.00000

*** Psi4 exiting successfully. Buy a developer a beer!
