  ==> Input File <==

--------------------------------------------------------------------------
set {
	reference rhf
	basis 6-31G*
}

set_num_threads( 1 )
memory 2 gb

molecule MOL {
0 1

O	 3.225979	 0.970355	 -0.599647
C	 2.701189	 0.057885	 -0.047330
C	 1.245376	 -0.013843	 0.345420
O	 3.347903	 -1.046386	 0.304773
C	 0.455112	 1.231400	 -0.050772
H	 0.838542	 -0.913825	 -0.103701
H	 1.208210	 -0.175333	 1.419774
C	 -0.998893	 1.219485	 0.433193
H	 0.482531	 1.345121	 -1.130325
H	 0.957290	 2.103070	 0.354729
C	 -1.883438	 0.145884	 -0.207175
H	 -1.431207	 2.195402	 0.224832
H	 -1.019646	 1.105716	 1.516076
C	 -3.347647	 0.245583	 0.225435
H	 -1.822183	 0.231698	 -1.291012
H	 -1.510341	 -0.844814	 0.042401
C	 -4.330702	 0.190081	 -0.945315
H	 -3.497780	 1.172729	 0.775974
H	 -3.573230	 -0.560941	 0.921374
C	 -5.790527	 0.294114	 -0.505101
H	 -4.106063	 0.994743	 -1.642236
H	 -4.185128	 -0.737953	 -1.494261
H	 -6.462578	 0.251736	 -1.356664
H	 -5.976900	 1.228383	 0.017012
H	 -6.056292	 -0.517344	 0.166596
C	 4.728119	 -1.109107	 -0.004993
H	 4.882018	 -1.033965	 -1.071845
H	 5.068212	 -2.067527	 0.355250
H	 5.265056	 -0.311663	 0.488280

	symmetry c1
}
set optking {
	frozen_dihedral = ("
		21 17 14 11,
		15 11 8 5,
		6 3 5 9,
		11 8 5 9,
		2 4 26 27,
		1 2 4 26,
		6 3 2 1
	")
}

ee = energy('scf')
oeprop('DIPOLE', 'QUADRUPOLE', 'MULLIKEN_CHARGES')
f=open( 'psi4out.xyz', 'w' )
f.write( "29  " )
f.write( str(ee) + "\n" )
f.write( MOL.save_string_xyz() )
f.close()
--------------------------------------------------------------------------

    Molecular point group: c1

    Geometry (in Angstrom), charge = 0, multiplicity = 1:

       Center              X                  Y                   Z               Mass
    ------------   -----------------  -----------------  -----------------  -----------------
           O          3.242494402747     0.784344143409    -0.500880384046    15.994914619560
           C          2.717704402747    -0.128125856591     0.051436615954    12.000000000000
           C          1.261891402747    -0.199853856591     0.444186615954    12.000000000000
           O          3.364418402747    -1.232396856591     0.403539615954    15.994914619560
           C          0.471627402747     1.045389143409     0.047994615954    12.000000000000
           H          0.855057402747    -1.099835856591    -0.004934384046     1.007825032070
           H          1.224725402747    -0.361343856591     1.518540615954     1.007825032070
           C         -0.982377597253     1.033474143409     0.531959615954    12.000000000000
           H          0.499046402747     1.159110143409    -1.031558384046     1.007825032070
           H          0.973805402747     1.917059143409     0.453495615954     1.007825032070
           C         -1.866922597253    -0.040126856591    -0.108408384046    12.000000000000
           H         -1.414691597253     2.009391143409     0.323598615954     1.007825032070
           H         -1.003130597253     0.919705143409     1.614842615954     1.007825032070
           C         -3.331131597253     0.059572143409     0.324201615954    12.000000000000
           H         -1.805667597253     0.045687143409    -1.192245384046     1.007825032070
           H         -1.493825597253    -1.030824856591     0.141167615954     1.007825032070
           C         -4.314186597253     0.004070143409    -0.846548384046    12.000000000000
           H         -3.481264597253     0.986718143409     0.874740615954     1.007825032070
           H         -3.556714597253    -0.746951856591     1.020140615954     1.007825032070
           C         -5.774011597253     0.108103143409    -0.406334384046    12.000000000000
           H         -4.089547597253     0.808732143409    -1.543469384046     1.007825032070
           H         -4.168612597253    -0.923963856591    -1.395494384046     1.007825032070
           H         -6.446062597253     0.065725143409    -1.257897384046     1.007825032070
           H         -5.960384597253     1.042372143409     0.115778615954     1.007825032070
           H         -6.039776597253    -0.703354856591     0.265362615954     1.007825032070
           C          4.744634402747    -1.295117856591     0.093773615954    12.000000000000
           H          4.898533402747    -1.219975856591    -0.973078384046     1.007825032070
           H          5.084727402747    -2.253537856591     0.454016615954     1.007825032070
           H          5.281571402747    -0.497673856591     0.587046615954     1.007825032070

  Charge       = 0
  Multiplicity = 1
  Basis Set: 6-31G*
  Basis Set:

    Orbital Energies (a.u.)
    -----------------------

    Doubly Occupied:

       1A    -20.603296     2A    -20.545094     3A    -11.371895
       4A    -11.280606     5A    -11.234621     6A    -11.218717
       7A    -11.217908     8A    -11.215974     9A    -11.214503
      10A    -11.212911    11A    -11.208436    12A     -1.468983
      13A     -1.362418    14A     -1.098106    15A     -1.066541
      16A     -1.019016    17A     -0.977028    18A     -0.928364
      19A     -0.861360    20A     -0.801621    21A     -0.789265
      22A     -0.763874    23A     -0.700961    24A     -0.682213
      25A     -0.671803    26A     -0.645544    27A     -0.627038
      28A     -0.607607    29A     -0.597737    30A     -0.579743
      31A     -0.563916    32A     -0.554038    33A     -0.532404
      34A     -0.529847    35A     -0.519655    36A     -0.507859
      37A     -0.495867    38A     -0.476392    39A     -0.473176
      40A     -0.462094    41A     -0.455892    42A     -0.451412
      43A     -0.441279    44A     -0.435352

  @DF-RHF Final Energy:  -501.03898205577650

   => Energetics <=

    Nuclear Repulsion Energy =            610.4330707241887239
    One-Electron Energy =               -1891.9992034647045784
    Two-Electron Energy =                 780.5271506847359433
    DFT Exchange-Correlation Energy =       0.0000000000000000
    Empirical Dispersion Energy =           0.0000000000000000
    PCM Polarization Energy =               0.0000000000000000
    EFP Energy =                            0.0000000000000000
    Total Energy =                       -501.0389820557800249

  Mulliken Charges: (a.u.)
   Center  Symbol    Alpha    Beta     Spin     Total
       1     O     4.28598  4.28598  0.00000 -0.57195
       2     C     2.60485  2.60485  0.00000  0.79031
       3     C     3.20962  3.20962  0.00000 -0.41923
       4     O     4.30745  4.30745  0.00000 -0.61491
       5     C     3.15426  3.15426  0.00000 -0.30853
       6     H     0.39889  0.39889  0.00000  0.20221
       7     H     0.40129  0.40129  0.00000  0.19742
       8     C     3.15914  3.15914  0.00000 -0.31829
       9     H     0.41305  0.41305  0.00000  0.17390
      10     H     0.40892  0.40892  0.00000  0.18216
      11     C     3.15717  3.15717  0.00000 -0.31434
      12     H     0.41802  0.41802  0.00000  0.16396
      13     H     0.42330  0.42330  0.00000  0.15341
      14     C     3.15272  3.15272  0.00000 -0.30544
      15     H     0.42029  0.42029  0.00000  0.15941
      16     H     0.42129  0.42129  0.00000  0.15742
      17     C     3.15361  3.15361  0.00000 -0.30721
      18     H     0.42126  0.42126  0.00000  0.15748
      19     H     0.42186  0.42186  0.00000  0.15629
      20     C     3.23996  3.23996  0.00000 -0.47992
      21     H     0.42249  0.42249  0.00000  0.15502
      22     H     0.42265  0.42265  0.00000  0.15471
      23     H     0.41931  0.41931  0.00000  0.16138
      24     H     0.42159  0.42159  0.00000  0.15682
      25     H     0.42187  0.42187  0.00000  0.15625
      26     C     3.09240  3.09240  0.00000 -0.18480
      27     H     0.40909  0.40909  0.00000  0.18182
      28     H     0.40854  0.40854  0.00000  0.18293
      29     H     0.40913  0.40913  0.00000  0.18174

   Total alpha = 44.00000, Total beta = 44.00000, Total charge = -0.00000
