                              Psi4 1.0.54 Driver

  ==> Input File <==

--------------------------------------------------------------------------
set {
	reference rhf
	basis cc-pvtz
}

set_num_threads( 4 )
memory 2 gb

molecule MOL {
0 1

O	 -1.278239	 1.034789	 -0.784693
C	 -1.204115	 0.062668	 -0.112312
C	 -2.386398	 -0.667698	 0.460323
O	 -0.068058	 -0.518372	 0.226882
H	 -2.382952	 -1.693172	 0.114333
H	 -3.296656	 -0.175702	 0.158400
H	 -2.312537	 -0.685191	 1.540100
C	 -0.041146	 -1.932177	 0.448767
C	 1.101354	 -2.188755	 1.411042
C	 0.122234	 -2.658686	 -0.874146
H	 -0.978834	 -2.214303	 0.902896
H	 0.949708	 -1.649699	 2.337417
H	 1.165845	 -3.246383	 1.636820
H	 2.044086	 -1.871807	 0.981232
H	 0.155083	 -3.728915	 -0.706720
H	 -0.706863	 -2.445482	 -1.534291
H	 1.044418	 -2.360546	 -1.359915

	symmetry c1
}
set optking {
	frozen_dihedral = ("
		8 4 2 1
	")
}

ee,wfn = optimize('scf', return_wfn=True)
oeprop( wfn, 'DIPOLE', 'QUADRUPOLE', 'MULLIKEN_CHARGES')
f=open( 'psi4out.xyz', 'w' )
f.write( "17  " )
f.write( str(ee) + "\n" )
f.write( MOL.save_string_xyz() )
f.close()
--------------------------------------------------------------------------

    Molecular point group: c1
  Charge       = 0
  Multiplicity = 1
  Basis Set: CC-PVTZ
  Basis Set:
  @DF-RHF Final Energy:  -345.01679880189533
    Total Energy =                       -345.0167988018952201
    Molecular point group: c1
  Basis Set: CC-PVTZ
  Basis Set:
  Basis Set: CC-PVTZ
  Basis Set:
  @DF-RHF Final Energy:  -344.97610658370354
    Total Energy =                       -344.9761065837035403
  Basis Set: CC-PVTZ
  Basis Set:
  Basis Set: CC-PVTZ
  Basis Set:
  @DF-RHF Final Energy:  -345.02299951370401
    Total Energy =                       -345.0229995137040078
  Basis Set: CC-PVTZ
  Basis Set:
  Basis Set: CC-PVTZ
  Basis Set:
  @DF-RHF Final Energy:  -345.02003462631899
    Total Energy =                       -345.0200346263187612
  Basis Set: CC-PVTZ
  Basis Set:
  @DF-RHF Final Energy:  -345.02760454613014
    Total Energy =                       -345.0276045461301919
  @DF-RHF Final Energy:  -345.02805378686509
    Total Energy =                       -345.0280537868654847
  Basis Set: CC-PVTZ
  Basis Set:
  @DF-RHF Final Energy:  -345.02797672239456
    Total Energy =                       -345.0279767223947829
  Basis Set: CC-PVTZ
  Basis Set:
  Basis Set: CC-PVTZ
  Basis Set:
  @DF-RHF Final Energy:  -345.02809918324840
    Total Energy =                       -345.0280991832485142
  Basis Set: CC-PVTZ
  Basis Set:
  Basis Set: CC-PVTZ
  Basis Set:
  @DF-RHF Final Energy:  -345.02814274110108
    Total Energy =                       -345.0281427411005666
  Basis Set: CC-PVTZ
  Basis Set:
  Charge       = 0
  Multiplicity = 1
  Basis Set: CC-PVTZ
  Basis Set:

    Orbital Energies (a.u.)
    -----------------------

    Doubly Occupied:

       1A    -20.585881     2A    -20.529024     3A    -11.367519
       4A    -11.302039     5A    -11.238948     6A    -11.226379
       7A    -11.223158     8A     -1.462105     9A     -1.366276
      10A     -1.078088    11A     -1.016465    12A     -0.957781
      13A     -0.861067    14A     -0.772419    15A     -0.699486
      16A     -0.671711    17A     -0.664056    18A     -0.625907
      19A     -0.595450    20A     -0.584997    21A     -0.562662
      22A     -0.556732    23A     -0.545770    24A     -0.532176
      25A     -0.509491    26A     -0.489358    27A     -0.446281
      28A     -0.434685

  @DF-RHF Final Energy:  -345.02814325712791

   => Energetics <=

    Nuclear Repulsion Energy =            323.3360386015225458
    One-Electron Energy =               -1110.9165406127347069
    Two-Electron Energy =                 442.5523587540839117
    DFT Exchange-Correlation Energy =       0.0000000000000000
    Empirical Dispersion Energy =           0.0000000000000000
    PCM Polarization Energy =               0.0000000000000000
    EFP Energy =                            0.0000000000000000
    Total Energy =                       -345.0281432571282494
    Molecular point group: c1
  Basis Set: CC-PVTZ
  Basis Set:

  -Total Gradient:
     Atom            X                  Y                   Z
    ------   -----------------  -----------------  -----------------
       1        0.000483927837    -0.001697470088    -0.001481937814
       2       -0.000096531085     0.002050879799     0.001193981623
       3       -0.000007406297    -0.000004021375    -0.000005955550
       4       -0.001405951268     0.000299133173     0.001843332548
       5        0.000000522877    -0.000002298559     0.000001539753
       6        0.000002876773     0.000001944509     0.000001199530
       7       -0.000002154711     0.000000226571     0.000009182128
       8        0.000998124024    -0.000616457120    -0.001534403581
       9       -0.000001455517    -0.000007730470    -0.000009491414
      10        0.000038352908    -0.000041408216    -0.000017322309
      11        0.000001822500    -0.000006875043    -0.000001567698
      12        0.000000295701     0.000004586387     0.000004289216
      13       -0.000005315815    -0.000001944303    -0.000004817542
      14        0.000006258568     0.000004816924     0.000002852285
      15       -0.000000787280    -0.000002179395    -0.000004940220
      16       -0.000011281537     0.000011733647     0.000003237509
      17       -0.000001297678     0.000007063559     0.000000821537

  **** Optimization is complete! (in 10 steps) ****
    Final optimized geometry and variables:
    Molecular point group: c1

    Geometry (in Angstrom), charge = 0, multiplicity = 1:

    O           -0.296552319186     1.714048639471    -1.468313493603
    C           -0.571446889458     0.916050546020    -0.645228363811
    C           -1.982162075584     0.416038088562    -0.443730016571
    O            0.374180600384     0.460462125963     0.173657560033
    H           -2.068909627979    -0.626508823116    -0.721802502337
    H           -2.635529324513     1.001240699060    -1.069117583697
    H           -2.280177533698     0.513301099352     0.592405668381
    C            0.366285343064    -0.842407139331     0.741475333183
    C            1.283239062052    -0.784928582091     1.947585718783
    C            0.822852271475    -1.859310731987    -0.291829938093
    H           -0.633762482781    -1.086443044670     1.076126537072
    H            0.929625740581    -0.049710347161     2.658567849191
    H            1.319227675024    -1.750487636912     2.437592689686
    H            2.286448047914    -0.511844678569     1.645507300642
    H            0.832030712299    -2.853515556938     0.139081613484
    H            0.164989610613    -1.872768295227    -1.152695112430
    H            1.821258968642    -1.620376428940    -0.635916594806

  Mulliken Charges: (a.u.)
   Center  Symbol    Alpha    Beta     Spin     Total
       1     O     4.18030  4.18030  0.00000 -0.36059
       2     C     2.81937  2.81937  0.00000  0.36126
       3     C     3.16490  3.16490  0.00000 -0.32979
       4     O     4.14487  4.14487  0.00000 -0.28974
       5     H     0.44770  0.44770  0.00000  0.10460
       6     H     0.42722  0.42722  0.00000  0.14555
       7     H     0.44467  0.44467  0.00000  0.11065
       8     C     2.94972  2.94972  0.00000  0.10057
       9     C     3.13609  3.13609  0.00000 -0.27218
      10     C     3.14390  3.14390  0.00000 -0.28779
      11     H     0.45221  0.45221  0.00000  0.09559
      12     H     0.44551  0.44551  0.00000  0.10898
      13     H     0.45603  0.45603  0.00000  0.08794
      14     H     0.44687  0.44687  0.00000  0.10626
      15     H     0.44828  0.44828  0.00000  0.10344
      16     H     0.44874  0.44874  0.00000  0.10252
      17     H     0.44362  0.44362  0.00000  0.11275

   Total alpha = 28.00000, Total beta = 28.00000, Total charge =  0.00000

*** Psi4 exiting successfully. Buy a developer a beer!
