  ==> Input File <==

--------------------------------------------------------------------------
set {
	reference rhf
	basis 6-31G*
}

set_num_threads( 4 )
memory 2 gb

molecule MOL {
0 1

H	 -2.698709	 -0.000305	 0.034435
C	 -1.693833	 0.000034	 0.434417
O	 -0.828952	 -0.000968	 -0.659236
H	 -1.574200	 0.882896	 1.055746
H	 -1.574147	 -0.881698	 1.057355
C	 -1.034357	 0.945646	 -1.682092
C	 -2.367600	 0.750204	 -2.401247
C	 -0.840600	 2.381469	 -1.198533
H	 -0.241711	 0.723012	 -2.386491
H	 -2.493078	 -0.289136	 -2.685108
H	 -2.395391	 1.355017	 -3.302171
H	 -3.212978	 1.042327	 -1.786297
H	 0.090426	 2.471053	 -0.649331
H	 -0.801417	 3.056848	 -2.047528
H	 -1.650808	 2.711772	 -0.556424

	symmetry c1
}
set optking {
	frozen_dihedral = ("
		6 3 2 1
	")
}

ee = optimize('scf')
oeprop('DIPOLE', 'QUADRUPOLE', 'MULLIKEN_CHARGES')
f=open( 'psi4out.xyz', 'w' )
f.write( "15  " )
f.write( str(ee) + "\n" )
f.write( MOL.save_string_xyz() )
f.close()
--------------------------------------------------------------------------

    Molecular point group: c1
  Charge       = 0
  Multiplicity = 1
  Basis Set: 6-31G*
  Basis Set:
  @DF-RHF Final Energy:  -232.13497144983080
    Total Energy =                       -232.1349714498307435
    Molecular point group: c1
  Basis Set: 6-31G*
  Basis Set:
  Basis Set: 6-31G*
  Basis Set:
  @DF-RHF Final Energy:  -232.13700362497261
    Total Energy =                       -232.1370036249725217
  Basis Set: 6-31G*
  Basis Set:
  Basis Set: 6-31G*
  Basis Set:
  @DF-RHF Final Energy:  -232.13762719235666
    Total Energy =                       -232.1376271923566605
  Basis Set: 6-31G*
  Basis Set:
  Basis Set: 6-31G*
  Basis Set:
  @DF-RHF Final Energy:  -232.13763658450338
    Total Energy =                       -232.1376365845034115
  Basis Set: 6-31G*
  Basis Set:
  Basis Set: 6-31G*
  Basis Set:
  @DF-RHF Final Energy:  -232.13764832421379
    Total Energy =                       -232.1376483242135578
  Basis Set: 6-31G*
  Basis Set:
  Charge       = 0
  Multiplicity = 1
  Basis Set: 6-31G*
  Basis Set:

    Orbital Energies (a.u.)
    -----------------------

    Doubly Occupied:

       1A    -20.548137     2A    -11.274363     3A    -11.261169
       4A    -11.211344     5A    -11.209758     6A     -1.370342
       7A     -1.050405     8A     -0.940037     9A     -0.930899
      10A     -0.781299    11A     -0.674623    12A     -0.640284
      13A     -0.633146    14A     -0.572654    15A     -0.564596
      16A     -0.552916    17A     -0.534432    18A     -0.498443
      19A     -0.496686    20A     -0.443206    21A     -0.406028

  @DF-RHF Final Energy:  -232.13764915147030

   => Energetics <=

    Nuclear Repulsion Energy =            198.8110913070655954
    One-Electron Energy =                -708.7079457448853645
    Two-Electron Energy =                 277.7592052863492427
    DFT Exchange-Correlation Energy =       0.0000000000000000
    Empirical Dispersion Energy =           0.0000000000000000
    PCM Polarization Energy =               0.0000000000000000
    EFP Energy =                            0.0000000000000000
    Total Energy =                       -232.1376491514705549
    Molecular point group: c1
  Basis Set: 6-31G*
  Basis Set:

  -Total Gradient:
     Atom            X                  Y                   Z
    ------   -----------------  -----------------  -----------------
       1        0.000113552796     0.000717258996    -0.000076208192
       2       -0.000156346552    -0.001192724395     0.000022404312
       3        0.000454927192     0.000876252975     0.000351744029
       4        0.000014357679    -0.000009696413    -0.000071165424
       5       -0.000038223898     0.000010899803     0.000043937028
       6       -0.000363396610    -0.000344561013    -0.000334261933
       7        0.000012984162     0.000027660670    -0.000013289685
       8       -0.000025580680    -0.000035061998     0.000051858152
       9        0.000012035424    -0.000009034387    -0.000004207421
      10       -0.000019325599    -0.000003827098     0.000030486660
      11       -0.000009483064    -0.000016418551    -0.000007763346
      12        0.000020905677     0.000006238392    -0.000029442097
      13       -0.000007989505    -0.000005348048     0.000020674291
      14        0.000004642117    -0.000043766354     0.000009093552
      15       -0.000013059140     0.000022127423     0.000006140074

  **** Optimization is complete! (in 6 steps) ****
    Final optimized geometry and variables:
    Molecular point group: c1

    Geometry (in Angstrom), charge = 0, multiplicity = 1:

    H           -1.366954733716    -0.679672682924     1.287466619052
    C           -0.314210673628    -0.766310236418     1.539199908908
    O            0.502898836044    -0.835809144739     0.411164040867
    H           -0.046195417103     0.066076436455     2.183991314569
    H           -0.167892747451    -1.685714061920     2.089782291310
    C            0.333775953209     0.127840210703    -0.602352032445
    C           -0.977148563632    -0.060551155424    -1.363635649930
    C            0.511223397870     1.556556424465    -0.093281345847
    H            1.146856986345    -0.085789556651    -1.285940304301
    H           -1.085664777487    -1.095089730780    -1.670039600576
    H           -0.984147904038     0.561677188722    -2.253314516213
    H           -1.842423920482     0.212751528740    -0.768440448072
    H            1.430413338839     1.643880277340     0.476121817958
    H            0.563527344730     2.245217258911    -0.930624193660
    H           -0.314156946317     1.871035768348     0.537899224325

  Mulliken Charges: (a.u.)
   Center  Symbol    Alpha    Beta     Spin     Total
       1     H     0.43049  0.43049  0.00000  0.13902
       2     C     3.08153  3.08153  0.00000 -0.16306
       3     O     4.31211  4.31211  0.00000 -0.62422
       4     H     0.42813  0.42813  0.00000  0.14373
       5     H     0.41271  0.41271  0.00000  0.17457
       6     C     2.90913  2.90913  0.00000  0.18174
       7     C     3.25100  3.25100  0.00000 -0.50201
       8     C     3.25500  3.25500  0.00000 -0.51001
       9     H     0.41528  0.41528  0.00000  0.16944
      10     H     0.41126  0.41126  0.00000  0.17747
      11     H     0.42029  0.42029  0.00000  0.15942
      12     H     0.42180  0.42180  0.00000  0.15640
      13     H     0.41164  0.41164  0.00000  0.17672
      14     H     0.41855  0.41855  0.00000  0.16289
      15     H     0.42105  0.42105  0.00000  0.15790

   Total alpha = 21.00000, Total beta = 21.00000, Total charge =  0.00000
