  ==> Input File <==

--------------------------------------------------------------------------
set {
	reference rhf
	basis 6-31G*
}

set_num_threads( 4 )
memory 2 gb

molecule MOL {
0 1

O	 -0.682937	 1.318834	 -0.186099
C	 -0.860635	 0.152188	 -0.042321
C	 -2.173363	 -0.477127	 0.338347
O	 0.083258	 -0.765189	 -0.202595
H	 -2.477673	 -1.180929	 -0.427595
H	 -2.923125	 0.290956	 0.455536
H	 -2.058825	 -1.029004	 1.264191
C	 -0.003796	 -1.638691	 -1.326078
C	 0.585199	 -1.003310	 -2.571881
H	 -1.034976	 -1.918934	 -1.478625
H	 0.559790	 -2.513025	 -1.033828
H	 0.573715	 -1.718022	 -3.389062
H	 0.010661	 -0.135667	 -2.870993
H	 1.612384	 -0.701999	 -2.397187

	symmetry c1
}
set optking {
	frozen_dihedral = ("
		8 4 2 1
	")
}

ee = optimize('scf')
oeprop('DIPOLE', 'QUADRUPOLE', 'MULLIKEN_CHARGES')
f=open( 'psi4out.xyz', 'w' )
f.write( "14  " )
f.write( str(ee) + "\n" )
f.write( MOL.save_string_xyz() )
f.close()
--------------------------------------------------------------------------

    Molecular point group: c1
  Charge       = 0
  Multiplicity = 1
  Basis Set: 6-31G*
  Basis Set:
  @DF-RHF Final Energy:  -305.85145160669140
    Total Energy =                       -305.8514516066912847
    Molecular point group: c1
  Basis Set: 6-31G*
  Basis Set:
  Basis Set: 6-31G*
  Basis Set:
  @DF-RHF Final Energy:  -305.85043401595141
    Total Energy =                       -305.8504340159514641
  Basis Set: 6-31G*
  Basis Set:
  Basis Set: 6-31G*
  Basis Set:
  @DF-RHF Final Energy:  -305.85367300129610
    Total Energy =                       -305.8536730012960447
  Basis Set: 6-31G*
  Basis Set:
  Basis Set: 6-31G*
  Basis Set:
  @DF-RHF Final Energy:  -305.85474240724272
    Total Energy =                       -305.8547424072428385
  Basis Set: 6-31G*
  Basis Set:
  @DF-RHF Final Energy:  -305.85480441036793
    Total Energy =                       -305.8548044103679331
  @DF-RHF Final Energy:  -305.85482292557765
    Total Energy =                       -305.8548229255776505
  @DF-RHF Final Energy:  -305.85483169726263
    Total Energy =                       -305.8548316972626822
  Basis Set: 6-31G*
  Basis Set:
  @DF-RHF Final Energy:  -305.85483271186143
    Total Energy =                       -305.8548327118613201
  Basis Set: 6-31G*
  Basis Set:
  Basis Set: 6-31G*
  Basis Set:
  @DF-RHF Final Energy:  -305.85483415734075
    Total Energy =                       -305.8548341573409743
  Basis Set: 6-31G*
  Basis Set:
  Basis Set: 6-31G*
  Basis Set:
  @DF-RHF Final Energy:  -305.85483591032124
    Total Energy =                       -305.8548359103213556
  Basis Set: 6-31G*
  Basis Set:
  Charge       = 0
  Multiplicity = 1
  Basis Set: 6-31G*
  Basis Set:

    Orbital Energies (a.u.)
    -----------------------

    Doubly Occupied:

       1A    -20.585643     2A    -20.554080     3A    -11.377605
       4A    -11.298529     5A    -11.238824     6A    -11.224572
       7A     -1.457805     8A     -1.367079     9A     -1.046475
      10A     -1.010805    11A     -0.889958    12A     -0.766533
      13A     -0.691175    14A     -0.681718    15A     -0.671914
      16A     -0.610201    17A     -0.596878    18A     -0.583811
      19A     -0.547128    20A     -0.546731    21A     -0.522388
      22A     -0.482443    23A     -0.453993    24A     -0.436283

  @DF-RHF Final Energy:  -305.85483616673878

   => Energetics <=

    Nuclear Repulsion Energy =            248.3005967020438902
    One-Electron Energy =                -909.0257246934953628
    Two-Electron Energy =                 354.8702918247124671
    DFT Exchange-Correlation Energy =       0.0000000000000000
    Empirical Dispersion Energy =           0.0000000000000000
    PCM Polarization Energy =               0.0000000000000000
    EFP Energy =                            0.0000000000000000
    Total Energy =                       -305.8548361667390054
    Molecular point group: c1
  Basis Set: 6-31G*
  Basis Set:

  -Total Gradient:
     Atom            X                  Y                   Z
    ------   -----------------  -----------------  -----------------
       1       -0.000151794426    -0.000081010549    -0.000960558171
       2        0.000415591014     0.000435299585     0.001183353603
       3        0.000008626821    -0.000024116080     0.000012042936
       4       -0.000764949957    -0.000861638901     0.000139369691
       5        0.000005765956     0.000006251634     0.000003518634
       6       -0.000001877320     0.000002458735    -0.000000268445
       7       -0.000001439983     0.000000586979    -0.000000982764
       8        0.000483505380     0.000512212253    -0.000369431059
       9       -0.000004564334     0.000010874024     0.000015896264
      10        0.000009045939     0.000014471940    -0.000009818342
      11        0.000006329279     0.000000925673    -0.000006887091
      12       -0.000000263006    -0.000008570195    -0.000005561477
      13       -0.000004107757    -0.000001879858    -0.000001077348
      14        0.000000132390    -0.000005865241     0.000000403565

  **** Optimization is complete! (in 11 steps) ****
    Final optimized geometry and variables:
    Molecular point group: c1

    Geometry (in Angstrom), charge = 0, multiplicity = 1:

    O           -0.073675838584     1.678130611647     0.527509435074
    C           -0.354658814029     0.534412726070     0.622028369392
    C           -1.736678072952     0.037702225102     0.969307103936
    O            0.580814229432    -0.429275036801     0.491260771840
    H           -2.148418156866    -0.562054307811     0.165151093522
    H           -2.387031457577     0.880280259659     1.150978288255
    H           -1.683804448997    -0.590150668113     1.851497802307
    C            0.571547675792    -1.271545330731    -0.651036793070
    C            1.011373612952    -0.535306706456    -1.904510237631
    H           -0.409518739535    -1.716159474530    -0.782726887105
    H            1.261910126300    -2.066668416393    -0.411863064196
    H            1.064553216832    -1.228377744798    -2.738724611725
    H            0.318678011200     0.256992805735    -2.166351444106
    H            1.988594592936    -0.092303746128    -1.755881835503

  Mulliken Charges: (a.u.)
   Center  Symbol    Alpha    Beta     Spin     Total
       1     O     4.25076  4.25076  0.00000 -0.50153
       2     C     2.62510  2.62510  0.00000  0.74980
       3     C     3.29305  3.29305  0.00000 -0.58611
       4     O     4.31382  4.31382  0.00000 -0.62764
       5     H     0.40641  0.40641  0.00000  0.18717
       6     H     0.39411  0.39411  0.00000  0.21179
       7     H     0.39850  0.39850  0.00000  0.20299
       8     C     3.00637  3.00637  0.00000 -0.01274
       9     C     3.25159  3.25159  0.00000 -0.50318
      10     H     0.42298  0.42298  0.00000  0.15403
      11     H     0.40451  0.40451  0.00000  0.19098
      12     H     0.41783  0.41783  0.00000  0.16434
      13     H     0.41152  0.41152  0.00000  0.17696
      14     H     0.40343  0.40343  0.00000  0.19314

   Total alpha = 24.00000, Total beta = 24.00000, Total charge = -0.00000
