  ==> Input File <==

--------------------------------------------------------------------------
set {
	reference rhf
	basis 6-31G*
}

set_num_threads( 4 )
memory 2 gb

molecule MOL {
0 1

H	 2.522566	 2.093586	 0.132553
O	 3.276715	 1.737329	 -0.314001
C	 3.534829	 0.438294	 0.154974
C	 2.522891	 -0.590581	 -0.337088
H	 4.521559	 0.184156	 -0.210339
H	 3.580718	 0.428192	 1.243354
C	 1.096735	 -0.349768	 0.163869
H	 2.532673	 -0.591423	 -1.423950
H	 2.857478	 -1.575639	 -0.016026
C	 0.115918	 -1.429151	 -0.302766
H	 0.756711	 0.622880	 -0.180667
H	 1.096838	 -0.314215	 1.253399
C	 -1.309753	 -1.282496	 0.241564
H	 0.086350	 -1.439760	 -1.390819
H	 0.501336	 -2.400793	 -0.000994
C	 -2.037799	 -0.007733	 -0.193645
H	 -1.890610	 -2.142323	 -0.085726
H	 -1.285946	 -1.330893	 1.329189
C	 -3.489788	 0.042957	 0.286558
H	 -2.017067	 0.064384	 -1.280144
H	 -1.513726	 0.868678	 0.179924
C	 -4.216917	 1.317354	 -0.141063
H	 -4.025645	 -0.823308	 -0.095450
H	 -3.513059	 -0.038752	 1.371301
H	 -4.239342	 1.411634	 -1.223113
H	 -5.243387	 1.322503	 0.212445
H	 -3.726170	 2.201406	 0.256408

	symmetry c1
}
set optking {
	frozen_dihedral = ("
		14 10 13 16
	")
}

ee = optimize('scf')
oeprop('DIPOLE', 'QUADRUPOLE', 'MULLIKEN_CHARGES')
f=open( 'psi4out.xyz', 'w' )
f.write( "27  " )
f.write( str(ee) + "\n" )
f.write( MOL.save_string_xyz() )
f.close()
--------------------------------------------------------------------------

    Molecular point group: c1
  Charge       = 0
  Multiplicity = 1
  Basis Set: 6-31G*
  Basis Set:
  @DF-RHF Final Energy:  -388.28170907972344
    Total Energy =                       -388.2817090797245783
    Molecular point group: c1
  Basis Set: 6-31G*
  Basis Set:
  Basis Set: 6-31G*
  Basis Set:
  @DF-RHF Final Energy:  -388.28165553667321
    Total Energy =                       -388.2816555366728153
  Basis Set: 6-31G*
  Basis Set:
  Basis Set: 6-31G*
  Basis Set:
  @DF-RHF Final Energy:  -388.28172141562277
    Total Energy =                       -388.2817214156227692
  Basis Set: 6-31G*
  Basis Set:
  Charge       = 0
  Multiplicity = 1
  Basis Set: 6-31G*
  Basis Set:

    Orbital Energies (a.u.)
    -----------------------

    Doubly Occupied:

       1A    -20.552305     2A    -11.267065     3A    -11.219848
       4A    -11.217325     5A    -11.216191     6A    -11.215765
       7A    -11.215238     8A    -11.214404     9A    -11.209476
      10A     -1.359058    11A     -1.095326    12A     -1.061584
      13A     -1.011595    14A     -0.948468    15A     -0.888437
      16A     -0.819981    17A     -0.802280    18A     -0.777410
      19A     -0.693717    20A     -0.652668    21A     -0.637536
      22A     -0.614701    23A     -0.600205    24A     -0.583468
      25A     -0.579956    26A     -0.552521    27A     -0.540984
      28A     -0.532109    29A     -0.505307    30A     -0.494190
      31A     -0.485566    32A     -0.474362    33A     -0.468848
      34A     -0.460741    35A     -0.452448    36A     -0.441781
      37A     -0.422991

  @DF-RHF Final Energy:  -388.28172113073077

   => Energetics <=

    Nuclear Repulsion Energy =            459.8967605790101629
    One-Electron Energy =               -1437.7852541648346687
    Two-Electron Energy =                 589.6067724550937328
    DFT Exchange-Correlation Energy =       0.0000000000000000
    Empirical Dispersion Energy =           0.0000000000000000
    PCM Polarization Energy =               0.0000000000000000
    EFP Energy =                            0.0000000000000000
    Total Energy =                       -388.2817211307308298
    Molecular point group: c1
  Basis Set: 6-31G*
  Basis Set:

  -Total Gradient:
     Atom            X                  Y                   Z
    ------   -----------------  -----------------  -----------------
       1        0.000035366053     0.000005182424    -0.000002038483
       2        0.000029428243    -0.000000731684    -0.000012653817
       3       -0.000029884436     0.000011927351     0.000076451197
       4       -0.000025025638    -0.000037110135    -0.000024922534
       5       -0.000009916076     0.000004751126     0.000001497508
       6        0.000010750998     0.000010587282     0.000007996739
       7        0.000023275676     0.000011215924     0.000017814749
       8       -0.000010466317     0.000022181006    -0.000005688004
       9       -0.000013989293    -0.000011475464    -0.000029715092
      10        0.000152577665     0.000915504316     0.000163874352
      11       -0.000029955334    -0.000049520872    -0.000030941429
      12        0.000007292683     0.000028653302    -0.000018088837
      13       -0.000250716718    -0.000496529187    -0.000551309271
      14       -0.000054125747    -0.000622657346     0.000031029915
      15       -0.000015872691    -0.000035645849    -0.000029914335
      16        0.000163431765     0.000239137513     0.000373199950
      17        0.000024464660    -0.000028072579     0.000017130736
      18        0.000000155403     0.000036433241    -0.000006738793
      19        0.000005674058     0.000007533787     0.000026164168
      20       -0.000003310578     0.000031106499    -0.000015428629
      21       -0.000003490053    -0.000031650877     0.000022584031
      22       -0.000011463051    -0.000018747639    -0.000031820480
      23        0.000005007321    -0.000004759562     0.000019415124
      24        0.000002408313     0.000016617074     0.000009384986
      25        0.000002235109     0.000009768111    -0.000005642793
      26       -0.000001711875    -0.000004586916    -0.000010300326
      27       -0.000002140141    -0.000009110846     0.000008659366

  **** Optimization is complete! (in 4 steps) ****
    Final optimized geometry and variables:
    Molecular point group: c1

    Geometry (in Angstrom), charge = 0, multiplicity = 1:

    H            2.564976002650     2.061916429858     0.170198867919
    O            3.318335854688     1.695054834155    -0.269030863257
    C            3.559592445814     0.396344893664     0.209616580823
    C            2.541448164918    -0.625460729555    -0.284489831844
    H            4.546464630214     0.130407821032    -0.146731495052
    H            3.597222125643     0.392156567168     1.298358603562
    C            1.114450603424    -0.369838643339     0.206544347823
    H            2.557948305890    -0.631072785900    -1.371265787119
    H            2.865159277179    -1.612058082580     0.042806886859
    C            0.128654433161    -1.445067078783    -0.258230340230
    H            0.783907655312     0.602625020022    -0.147336337800
    H            1.108662510304    -0.326063262695     1.295820000393
    C           -1.294465547753    -1.301189449674     0.293145921030
    H            0.094085620013    -1.456689734568    -1.346154259038
    H            0.512567032215    -2.418811820554     0.039306336469
    C           -2.030142392309    -0.029378840389    -0.137701942452
    H           -1.873016515603    -2.165136613590    -0.027089993415
    H           -1.263189217823    -1.345281773770     1.380819248968
    C           -3.484554316535     0.006854505623     0.336541335386
    H           -2.005267006300     0.051237061271    -1.223663793538
    H           -1.514342511623     0.847833569459     0.245057840684
    C           -4.220970605177     1.276478557300    -0.089327501673
    H           -4.011197160769    -0.862519925141    -0.051097212576
    H           -3.511694146045    -0.079291132379     1.420879368048
    H           -4.238177348687     1.375581199148    -1.171036771734
    H           -5.249416603684     1.270513991869     0.258343630489
    H           -3.740672426959     2.163139456759     0.315041538396

  Mulliken Charges: (a.u.)
   Center  Symbol    Alpha    Beta     Spin     Total
       1     H     0.27994  0.27994  0.00000  0.44011
       2     O     4.37092  4.37092  0.00000 -0.74184
       3     C     2.99737  2.99737  0.00000  0.00525
       4     C     3.16097  3.16097  0.00000 -0.32194
       5     H     0.41445  0.41445  0.00000  0.17111
       6     H     0.43205  0.43205  0.00000  0.13589
       7     C     3.16346  3.16346  0.00000 -0.32693
       8     H     0.41491  0.41491  0.00000  0.17018
       9     H     0.42431  0.42431  0.00000  0.15138
      10     C     3.15196  3.15196  0.00000 -0.30392
      11     H     0.42257  0.42257  0.00000  0.15485
      12     H     0.42552  0.42552  0.00000  0.14897
      13     C     3.15329  3.15329  0.00000 -0.30657
      14     H     0.42161  0.42161  0.00000  0.15679
      15     H     0.42164  0.42164  0.00000  0.15672
      16     C     3.15252  3.15252  0.00000 -0.30504
      17     H     0.42120  0.42120  0.00000  0.15759
      18     H     0.42433  0.42433  0.00000  0.15135
      19     C     3.15124  3.15124  0.00000 -0.30248
      20     H     0.42367  0.42367  0.00000  0.15267
      21     H     0.42387  0.42387  0.00000  0.15226
      22     C     3.23916  3.23916  0.00000 -0.47832
      23     H     0.42281  0.42281  0.00000  0.15438
      24     H     0.42328  0.42328  0.00000  0.15344
      25     H     0.42143  0.42143  0.00000  0.15714
      26     H     0.41919  0.41919  0.00000  0.16162
      27     H     0.42233  0.42233  0.00000  0.15533

   Total alpha = 37.00000, Total beta = 37.00000, Total charge =  0.00000
