  ==> Input File <==

--------------------------------------------------------------------------
set {
	reference rhf
	basis 6-31G*
}

set_num_threads( 4 )
memory 2 gb

molecule MOL {
0 1

H	 -3.161837	 0.500524	 -0.000234
C	 -2.367097	 -0.232926	 -0.000000
O	 -1.158440	 0.455814	 -0.000122
H	 -2.468853	 -0.861886	 -0.882833
H	 -2.468942	 -0.861421	 0.883154
C	 -0.029776	 -0.365156	 0.000148
C	 1.212217	 0.508981	 0.000007
H	 -0.036772	 -1.013236	 -0.877259
H	 -0.036869	 -1.012778	 0.877897
C	 1.874339	 0.583385	 -1.375107
H	 0.933605	 1.502958	 0.336232
H	 1.910636	 0.114977	 0.731902
H	 1.199159	 0.998425	 -2.118275
H	 2.757501	 1.212692	 -1.346071
H	 2.182554	 -0.399633	 -1.720193

	symmetry c1
}
set optking {
	frozen_dihedral = ("
		11 7 6 8
	")
}

ee = optimize('scf')
oeprop('DIPOLE', 'QUADRUPOLE', 'MULLIKEN_CHARGES')
f=open( 'psi4out.xyz', 'w' )
f.write( "15  " )
f.write( str(ee) + "\n" )
f.write( MOL.save_string_xyz() )
f.close()
--------------------------------------------------------------------------

    Molecular point group: c1
  Charge       = 0
  Multiplicity = 1
  Basis Set: 6-31G*
  Basis Set:
  @DF-RHF Final Energy:  -232.13429168692562
    Total Energy =                       -232.1342916869257920
    Molecular point group: c1
  Basis Set: 6-31G*
  Basis Set:
  Basis Set: 6-31G*
  Basis Set:
  @DF-RHF Final Energy:  -232.13479901666022
    Total Energy =                       -232.1347990166601107
  Basis Set: 6-31G*
  Basis Set:
  Basis Set: 6-31G*
  Basis Set:
  @DF-RHF Final Energy:  -232.13494498931851
    Total Energy =                       -232.1349449893183987
  Basis Set: 6-31G*
  Basis Set:
  Basis Set: 6-31G*
  Basis Set:
  @DF-RHF Final Energy:  -232.13494893890879
    Total Energy =                       -232.1349489389087921
  Basis Set: 6-31G*
  Basis Set:
  Charge       = 0
  Multiplicity = 1
  Basis Set: 6-31G*
  Basis Set:

    Orbital Energies (a.u.)
    -----------------------

    Doubly Occupied:

       1A    -20.552766     2A    -11.266601     3A    -11.263446
       4A    -11.214165     5A    -11.208285     6A     -1.376655
       7A     -1.053180     8A     -0.952129     9A     -0.880017
      10A     -0.806182    11A     -0.668344    12A     -0.659651
      13A     -0.630983    14A     -0.585167    15A     -0.579111
      16A     -0.545676    17A     -0.490621    18A     -0.485944
      19A     -0.483264    20A     -0.460620    21A     -0.411779

  @DF-RHF Final Energy:  -232.13494955827707

   => Energetics <=

    Nuclear Repulsion Energy =            191.1086300621421969
    One-Electron Energy =                -693.3379870702478911
    Two-Electron Energy =                 270.0944074498284522
    DFT Exchange-Correlation Energy =       0.0000000000000000
    Empirical Dispersion Energy =           0.0000000000000000
    PCM Polarization Energy =               0.0000000000000000
    EFP Energy =                            0.0000000000000000
    Total Energy =                       -232.1349495582772420
    Molecular point group: c1
  Basis Set: 6-31G*
  Basis Set:

  -Total Gradient:
     Atom            X                  Y                   Z
    ------   -----------------  -----------------  -----------------
       1       -0.000028106672    -0.000015968161     0.000004792384
       2       -0.000089250498     0.000020227804    -0.000006111263
       3        0.000016243855    -0.000048072350     0.000008164392
       4       -0.000007207842    -0.000000368253     0.000005199912
       5       -0.000011331453     0.000003140681    -0.000004439794
       6        0.002691202671    -0.003605217341     0.001873966760
       7        0.000519309582    -0.000506450715     0.004474088337
       8       -0.002183884481     0.003076952020    -0.002207043637
       9       -0.000004669952     0.000047397043    -0.000015096121
      10       -0.000029583768    -0.000035855673    -0.000034628207
      11       -0.000826894222     0.001119400021    -0.004059475819
      12       -0.000061751853    -0.000053627276    -0.000042283635
      13       -0.000001601586    -0.000031506018    -0.000000306531
      14       -0.000006521841     0.000013097390     0.000008000023
      15        0.000024048061     0.000016850827    -0.000004826802

  **** Optimization is complete! (in 5 steps) ****
    Final optimized geometry and variables:
    Molecular point group: c1

    Geometry (in Angstrom), charge = 0, multiplicity = 1:

    H           -3.022855511428     0.346283295410     0.220057551061
    C           -2.236987773146    -0.396449174887     0.244572445229
    O           -1.020740453427     0.276964807009     0.278764249497
    H           -2.321241887166    -1.026498582429    -0.639554442251
    H           -2.372584174693    -1.022152275360     1.125408998504
    C            0.099417680695    -0.564285850453     0.319591605036
    C            1.359881916125     0.303718465153     0.290016489525
    H            0.067073030770    -1.222696338958    -0.548039027111
    H            0.061506796349    -1.182283269671     1.215007722072
    C            1.972920114641     0.417959051215    -1.107173056956
    H            1.074679771311     1.295235810444     0.622424229227
    H            2.098496355639    -0.083292002767     0.985085950041
    H            1.244076831019     0.801585761812    -1.814581654300
    H            2.824072232372     1.091707937290    -1.107207871948
    H            2.315246358023    -0.547106006515    -1.470453828906

  Mulliken Charges: (a.u.)
   Center  Symbol    Alpha    Beta     Spin     Total
       1     H     0.41242  0.41242  0.00000  0.17516
       2     C     3.07927  3.07927  0.00000 -0.15853
       3     O     4.30587  4.30587  0.00000 -0.61175
       4     H     0.43080  0.43080  0.00000  0.13841
       5     H     0.43080  0.43080  0.00000  0.13841
       6     C     2.98962  2.98962  0.00000  0.02076
       7     C     3.16393  3.16393  0.00000 -0.32787
       8     H     0.43057  0.43057  0.00000  0.13885
       9     H     0.42929  0.42929  0.00000  0.14142
      10     C     3.24412  3.24412  0.00000 -0.48823
      11     H     0.40472  0.40472  0.00000  0.19055
      12     H     0.42072  0.42072  0.00000  0.15857
      13     H     0.41519  0.41519  0.00000  0.16962
      14     H     0.41917  0.41917  0.00000  0.16165
      15     H     0.42351  0.42351  0.00000  0.15297

   Total alpha = 21.00000, Total beta = 21.00000, Total charge =  0.00000
