  ==> Input File <==

--------------------------------------------------------------------------
set {
	reference rhf
	basis 6-31G*
}

set_num_threads( 4 )
memory 2 gb

molecule MOL {
0 1

O	 -0.682937	 1.318834	 -0.186099
C	 -0.860635	 0.152188	 -0.042321
C	 -2.173363	 -0.477127	 0.338347
O	 0.083258	 -0.765189	 -0.202595
H	 -2.477673	 -1.180929	 -0.427595
H	 -2.923125	 0.290956	 0.455536
H	 -2.058825	 -1.029004	 1.264191
C	 -0.111779	 -1.773251	 -1.191822
C	 0.306671	 -1.290525	 -2.568239
H	 -1.145380	 -2.084253	 -1.182567
H	 0.507205	 -2.596551	 -0.865425
H	 0.218514	 -2.101783	 -3.284353
H	 -0.323809	 -0.474868	 -2.899246
H	 1.338339	 -0.955910	 -2.557770

	symmetry c1
}
set optking {
	frozen_dihedral = ("
		8 4 2 1
	")
}

ee = optimize('scf')
oeprop('DIPOLE', 'QUADRUPOLE', 'MULLIKEN_CHARGES')
f=open( 'psi4out.xyz', 'w' )
f.write( "14  " )
f.write( str(ee) + "\n" )
f.write( MOL.save_string_xyz() )
f.close()
--------------------------------------------------------------------------

    Molecular point group: c1
  Charge       = 0
  Multiplicity = 1
  Basis Set: 6-31G*
  Basis Set:
  @DF-RHF Final Energy:  -305.84968523510577
    Total Energy =                       -305.8496852351056532
    Molecular point group: c1
  Basis Set: 6-31G*
  Basis Set:
  Basis Set: 6-31G*
  Basis Set:
  @DF-RHF Final Energy:  -305.84955287465880
    Total Energy =                       -305.8495528746587979
  Basis Set: 6-31G*
  Basis Set:
  Basis Set: 6-31G*
  Basis Set:
  @DF-RHF Final Energy:  -305.85420312204894
    Total Energy =                       -305.8542031220490003
  Basis Set: 6-31G*
  Basis Set:
  Basis Set: 6-31G*
  Basis Set:
  @DF-RHF Final Energy:  -305.85509323711125
    Total Energy =                       -305.8550932371113049
  Basis Set: 6-31G*
  Basis Set:
  @DF-RHF Final Energy:  -305.85543762478312
    Total Energy =                       -305.8554376247829509
  @DF-RHF Final Energy:  -305.85550877894798
    Total Energy =                       -305.8555087789479785
  @DF-RHF Final Energy:  -305.85555984174147
    Total Energy =                       -305.8555598417416377
  @DF-RHF Final Energy:  -305.85557310731372
    Total Energy =                       -305.8555731073136030
  @DF-RHF Final Energy:  -305.85558169866744
    Total Energy =                       -305.8555816986676632
  @DF-RHF Final Energy:  -305.85558855090994
    Total Energy =                       -305.8555885509098289
  @DF-RHF Final Energy:  -305.85560380702816
    Total Energy =                       -305.8556038070282739
  @DF-RHF Final Energy:  -305.85561063280551
    Total Energy =                       -305.8556106328056785
  @DF-RHF Final Energy:  -305.85561028714926
    Total Energy =                       -305.8556102871493749
  @DF-RHF Final Energy:  -305.85560995598223
    Total Energy =                       -305.8556099559822314
  @DF-RHF Final Energy:  -305.85088882774699
    Total Energy =                       -305.8508888277470419
  Basis Set: 6-31G*
  Basis Set:
  @DF-RHF Final Energy:  -305.85559100427332
    Total Energy =                       -305.8555910042730943
  Basis Set: 6-31G*
  Basis Set:
  Basis Set: 6-31G*
  Basis Set:
  @DF-RHF Final Energy:  -305.85561506556746
    Total Energy =                       -305.8556150655678039
  Basis Set: 6-31G*
  Basis Set:
  Basis Set: 6-31G*
  Basis Set:
  @DF-RHF Final Energy:  -305.85561616379118
    Total Energy =                       -305.8556161637909554
  Basis Set: 6-31G*
  Basis Set:
  Charge       = 0
  Multiplicity = 1
  Basis Set: 6-31G*
  Basis Set:

    Orbital Energies (a.u.)
    -----------------------

    Doubly Occupied:

       1A    -20.588079     2A    -20.551297     3A    -11.377258
       4A    -11.299138     5A    -11.239799     6A    -11.227727
       7A     -1.458642     8A     -1.367144     9A     -1.046580
      10A     -1.013110    11A     -0.892936    12A     -0.766490
      13A     -0.691374    14A     -0.684021    15A     -0.671460
      16A     -0.613970    17A     -0.596129    18A     -0.584783
      19A     -0.550056    20A     -0.545587    21A     -0.523732
      22A     -0.484979    23A     -0.453243    24A     -0.435758

  @DF-RHF Final Energy:  -305.85561683188564

   => Energetics <=

    Nuclear Repulsion Energy =            248.7882032506553287
    One-Electron Energy =                -909.9610560563107811
    Two-Electron Energy =                 355.3172359737699253
    DFT Exchange-Correlation Energy =       0.0000000000000000
    Empirical Dispersion Energy =           0.0000000000000000
    PCM Polarization Energy =               0.0000000000000000
    EFP Energy =                            0.0000000000000000
    Total Energy =                       -305.8556168318855271
    Molecular point group: c1
  Basis Set: 6-31G*
  Basis Set:

  -Total Gradient:
     Atom            X                  Y                   Z
    ------   -----------------  -----------------  -----------------
       1       -0.000398323759    -0.000179869518    -0.002971976285
       2        0.001382614054     0.001112641758     0.003196647739
       3        0.000094498971    -0.000130868679     0.000272343261
       4       -0.002401251291    -0.002318861870     0.001300227028
       5       -0.000014489201     0.000033011802    -0.000027863321
       6       -0.000014540144     0.000003136703    -0.000069366699
       7        0.000003023295    -0.000015528360    -0.000015974798
       8        0.001350323757     0.001494041341    -0.001697455949
       9       -0.000001470752    -0.000002840453     0.000005528114
      10        0.000003907245     0.000002225814     0.000004118823
      11       -0.000002019660     0.000000760548     0.000001893462
      12       -0.000001881559     0.000001640291    -0.000000438165
      13        0.000001584565     0.000001238717    -0.000002894861
      14       -0.000001975522    -0.000000728097     0.000005211650

  **** Optimization is complete! (in 19 steps) ****
    Final optimized geometry and variables:
    Molecular point group: c1

    Geometry (in Angstrom), charge = 0, multiplicity = 1:

    O           -0.017706609993     1.752926469665     0.476249196834
    C           -0.286980912867     0.608449241415     0.595498458710
    C           -1.679420595548     0.111698452982     0.907828287886
    O            0.662659791890    -0.339726149260     0.490918045292
    H           -2.147389479406    -0.287208994815     0.013411084948
    H           -2.275298076501     0.939193028099     1.263471849537
    H           -1.647960046166    -0.676502982221     1.650119346054
    C            0.560102598741    -1.340295956952    -0.509095858168
    C            0.769649711535    -0.773526728983    -1.902622178076
    H           -0.392623193934    -1.853843370081    -0.432919610870
    H            1.335404002693    -2.051239462899    -0.265600646576
    H            0.766063408827    -1.577370762291    -2.632321270241
    H           -0.013026160887    -0.071611062435    -2.171642803047
    H            1.719427451524    -0.255681647396    -1.958104474722

  Mulliken Charges: (a.u.)
   Center  Symbol    Alpha    Beta     Spin     Total
       1     O     4.25192  4.25192  0.00000 -0.50383
       2     C     2.62320  2.62320  0.00000  0.75359
       3     C     3.29885  3.29885  0.00000 -0.59771
       4     O     4.31124  4.31124  0.00000 -0.62248
       5     H     0.40410  0.40410  0.00000  0.19181
       6     H     0.39155  0.39155  0.00000  0.21690
       7     H     0.40109  0.40109  0.00000  0.19782
       8     C     3.00750  3.00750  0.00000 -0.01499
       9     C     3.25321  3.25321  0.00000 -0.50642
      10     H     0.42111  0.42111  0.00000  0.15778
      11     H     0.40376  0.40376  0.00000  0.19247
      12     H     0.41630  0.41630  0.00000  0.16739
      13     H     0.41399  0.41399  0.00000  0.17201
      14     H     0.40218  0.40218  0.00000  0.19565

   Total alpha = 24.00000, Total beta = 24.00000, Total charge = -0.00000
