  ==> Input File <==

--------------------------------------------------------------------------
set {
	reference rhf
	basis cc-pvtz
}

set_num_threads( 4 )
memory 2 gb

molecule MOL {
0 1

O	 0.933161	 1.751544	 0.498396
C	 0.297705	 1.426058	 1.442491
C	 -0.974597	 0.619006	 1.405366
O	 0.633006	 1.737887	 2.683745
C	 -1.413045	 0.229353	 0.001137
H	 -0.816563	 -0.257523	 2.025206
H	 -1.739135	 1.202173	 1.908218
C	 -2.702562	 -0.586401	 0.000228
H	 -0.620922	 -0.335339	 -0.477616
H	 -1.545003	 1.125623	 -0.594540
C	 -3.953810	 0.284959	 -0.000782
H	 -2.717793	 -1.238567	 -0.869075
H	 -2.719108	 -1.238472	 0.869576
H	 -3.983727	 0.924403	 -0.876454
H	 -4.852989	 -0.320147	 -0.001515
H	 -3.985140	 0.924399	 0.874841
C	 1.810989	 2.497021	 2.866473
H	 2.669929	 1.966336	 2.483298
H	 1.908355	 2.644040	 3.929851
H	 1.732483	 3.449716	 2.364047

	symmetry c1
}
set optking {
	frozen_dihedral = ("
		9 5 8 12
	")
}

ee = optimize('scf')
oeprop('DIPOLE', 'QUADRUPOLE', 'MULLIKEN_CHARGES')
f=open( 'psi4out.xyz', 'w' )
f.write( "20  " )
f.write( str(ee) + "\n" )
f.write( MOL.save_string_xyz() )
f.close()
--------------------------------------------------------------------------

    Molecular point group: c1
  Charge       = 0
  Multiplicity = 1
  Basis Set: CC-PVTZ
  Basis Set:
  @DF-RHF Final Energy:  -384.08015202438850
    Total Energy =                       -384.0801520243890081
    Molecular point group: c1
  Basis Set: CC-PVTZ
  Basis Set:
  Basis Set: CC-PVTZ
  Basis Set:
  @DF-RHF Final Energy:  -384.08038523768431
    Total Energy =                       -384.0803852376842542
  Basis Set: CC-PVTZ
  Basis Set:
  Basis Set: CC-PVTZ
  Basis Set:
  @DF-RHF Final Energy:  -384.08008563290787
    Total Energy =                       -384.0800856329080943
  Basis Set: CC-PVTZ
  Basis Set:
  Basis Set: CC-PVTZ
  Basis Set:
  @DF-RHF Final Energy:  -384.08042987804225
    Total Energy =                       -384.0804298780426507
  Basis Set: CC-PVTZ
  Basis Set:
  Charge       = 0
  Multiplicity = 1
  Basis Set: CC-PVTZ
  Basis Set:

    Orbital Energies (a.u.)
    -----------------------

    Doubly Occupied:

       1A    -20.596422     2A    -20.534274     3A    -11.364706
       4A    -11.278561     5A    -11.234082     6A    -11.218387
       7A    -11.217197     8A    -11.210642     9A     -1.472327
      10A     -1.365915    11A     -1.089373    12A     -1.024107
      13A     -0.969110    14A     -0.892524    15A     -0.802495
      16A     -0.768052    17A     -0.703399    18A     -0.685905
      19A     -0.676464    20A     -0.632504    21A     -0.612337
      22A     -0.596478    23A     -0.572646    24A     -0.548326
      25A     -0.530319    26A     -0.524856    27A     -0.513541
      28A     -0.475214    29A     -0.473690    30A     -0.467321
      31A     -0.458893    32A     -0.440451

  @DF-RHF Final Energy:  -384.08043481416030

   => Energetics <=

    Nuclear Repulsion Energy =            384.5931951663244490
    One-Electron Energy =               -1285.4462276656622635
    Two-Electron Energy =                 516.7725976851774021
    DFT Exchange-Correlation Energy =       0.0000000000000000
    Empirical Dispersion Energy =           0.0000000000000000
    PCM Polarization Energy =               0.0000000000000000
    EFP Energy =                            0.0000000000000000
    Total Energy =                       -384.0804348141604123
    Molecular point group: c1
  Basis Set: CC-PVTZ
  Basis Set:

  -Total Gradient:
     Atom            X                  Y                   Z
    ------   -----------------  -----------------  -----------------
       1        0.000024885571    -0.000005712717    -0.000021755467
       2       -0.000047650123     0.000024607682     0.000015972866
       3        0.000016414048     0.000005021053     0.000088086659
       4       -0.000005720420    -0.000024877845    -0.000017739237
       5        0.001183385130    -0.002006751737     0.003600724313
       6       -0.000006530085    -0.000002381620    -0.000010739500
       7        0.000007457867    -0.000006846252    -0.000001133782
       8       -0.001764967023     0.002905197966    -0.002590775239
       9       -0.000725087627     0.001266164218    -0.002671426206
      10        0.000015392902    -0.000025195202    -0.000003464086
      11       -0.000044133702     0.000081912349     0.000004301415
      12        0.001312750848    -0.002181943540     0.001636792232
      13       -0.000001188893    -0.000006894714    -0.000024677394
      14        0.000015345648    -0.000006575631    -0.000005852565
      15        0.000023527307    -0.000009925921     0.000005545139
      16       -0.000007211451    -0.000008247366    -0.000004228019
      17        0.000004710310     0.000003912484     0.000000443461
      18       -0.000001163647     0.000000142291    -0.000000126994
      19        0.000000031155    -0.000000396455    -0.000000001503
      20       -0.000000247812    -0.000001209043     0.000000053908

  **** Optimization is complete! (in 5 steps) ****
    Final optimized geometry and variables:
    Molecular point group: c1

    Geometry (in Angstrom), charge = 0, multiplicity = 1:

    O            1.575794482968     0.736587873905    -0.631719239212
    C            0.945647342824     0.406003085199     0.314137628858
    C           -0.319888521789    -0.411994326020     0.281464776721
    O            1.282273909531     0.720101137545     1.554542894832
    C           -0.753647171622    -0.812073995754    -1.121931564103
    H           -0.152200838136    -1.286051802083     0.901935110365
    H           -1.085588388505     0.166490621568     0.786615785827
    C           -2.068875147625    -1.600035003685    -1.145865124039
    H            0.031992978525    -1.387267454002    -1.595702546537
    H           -0.855224712866     0.080414380653    -1.729576007990
    C           -3.318598771030    -0.725103910289    -1.127748385936
    H           -2.082289066563    -2.239097369805    -2.021888058522
    H           -2.096043202743    -2.280243508367    -0.297962708362
    H           -3.355046962966    -0.083733042143    -2.001514988535
    H           -4.217888367006    -1.330082077077    -1.122296845513
    H           -3.349295251566    -0.087873582308    -0.250478371087
    C            2.455134505491     1.487832960106     1.733978128460
    H            3.316813022953     0.963591280997     1.348085037165
    H            2.554626354686     1.635302809651     2.797103373129
    H            2.368132712147     2.440059210593     1.232056289881

  Mulliken Charges: (a.u.)
   Center  Symbol    Alpha    Beta     Spin     Total
       1     O     4.19674  4.19674  0.00000 -0.39349
       2     C     2.80532  2.80532  0.00000  0.38935
       3     C     3.09986  3.09986  0.00000 -0.19972
       4     O     4.14715  4.14715  0.00000 -0.29430
       5     C     3.08838  3.08838  0.00000 -0.17677
       6     H     0.43979  0.43979  0.00000  0.12041
       7     H     0.44026  0.44026  0.00000  0.11949
       8     C     3.09364  3.09364  0.00000 -0.18727
       9     H     0.44129  0.44129  0.00000  0.11741
      10     H     0.44818  0.44818  0.00000  0.10365
      11     C     3.14767  3.14767  0.00000 -0.29533
      12     H     0.44524  0.44524  0.00000  0.10951
      13     H     0.45790  0.45790  0.00000  0.08419
      14     H     0.45301  0.45301  0.00000  0.09399
      15     H     0.44729  0.44729  0.00000  0.10542
      16     H     0.45665  0.45665  0.00000  0.08671
      17     C     3.03777  3.03777  0.00000 -0.07555
      18     H     0.45428  0.45428  0.00000  0.09144
      19     H     0.44529  0.44529  0.00000  0.10943
      20     H     0.45429  0.45429  0.00000  0.09142

   Total alpha = 32.00000, Total beta = 32.00000, Total charge = -0.00000
