                              Psi4 1.0.54 Driver

  ==> Input File <==

--------------------------------------------------------------------------
set {
	reference rhf
	basis cc-pvtz
}

set_num_threads( 4 )
memory 2 gb

molecule MOL {
0 1

H	 0.114217	 1.946906	 -1.486780
C	 0.451463	 1.950783	 -0.441838
C	 0.692262	 0.592428	 0.156232
O	 0.595771	 2.975875	 0.129122
C	 -0.554654	 -0.292621	 0.086567
H	 1.027448	 0.721597	 1.176919
H	 1.497514	 0.126494	 -0.407995
C	 -1.846385	 0.513195	 -0.016346
H	 -0.473986	 -0.956115	 -0.769708
H	 -0.597929	 -0.929215	 0.966651
C	 -3.089953	 -0.365049	 -0.098564
H	 -1.798267	 1.154820	 -0.891143
H	 -1.925398	 1.173265	 0.842889
H	 -3.055079	 -1.012299	 -0.968245
H	 -3.988403	 0.236438	 -0.170014
H	 -3.183055	 -0.995885	 0.779079

	symmetry c1
}
set optking {
	frozen_dihedral = ("
		6 3 5 9
	")
}

ee,wfn = optimize('scf', return_wfn=True)
oeprop( wfn, 'DIPOLE', 'QUADRUPOLE', 'MULLIKEN_CHARGES')
f=open( 'psi4out.xyz', 'w' )
f.write( "16  " )
f.write( str(ee) + "\n" )
f.write( MOL.save_string_xyz() )
f.close()
--------------------------------------------------------------------------

    Molecular point group: c1
  Charge       = 0
  Multiplicity = 1
  Basis Set: CC-PVTZ
  Basis Set:
  @DF-RHF Final Energy:  -270.11054747520848
    Total Energy =                       -270.1105474752084206
    Molecular point group: c1
  Basis Set: CC-PVTZ
  Basis Set:
  Basis Set: CC-PVTZ
  Basis Set:
  @DF-RHF Final Energy:  -270.11298842093873
    Total Energy =                       -270.1129884209385636
  Basis Set: CC-PVTZ
  Basis Set:
  Basis Set: CC-PVTZ
  Basis Set:
  @DF-RHF Final Energy:  -270.11329475455216
    Total Energy =                       -270.1132947545521006
  Basis Set: CC-PVTZ
  Basis Set:
  Basis Set: CC-PVTZ
  Basis Set:
  @DF-RHF Final Energy:  -270.11298042219335
    Total Energy =                       -270.1129804221932318
  Basis Set: CC-PVTZ
  Basis Set:
  @DF-RHF Final Energy:  -270.11334288992805
    Total Energy =                       -270.1133428899278783
  Basis Set: CC-PVTZ
  Basis Set:
  @DF-RHF Final Energy:  -270.11336278552062
    Total Energy =                       -270.1133627855207351
  Basis Set: CC-PVTZ
  Basis Set:
  Basis Set: CC-PVTZ
  Basis Set:
  @DF-RHF Final Energy:  -270.11337460970697
    Total Energy =                       -270.1133746097070230
  Basis Set: CC-PVTZ
  Basis Set:
  Basis Set: CC-PVTZ
  Basis Set:
  @DF-RHF Final Energy:  -270.11337780445274
    Total Energy =                       -270.1133778044526252
  Basis Set: CC-PVTZ
  Basis Set:
  Charge       = 0
  Multiplicity = 1
  Basis Set: CC-PVTZ
  Basis Set:

    Orbital Energies (a.u.)
    -----------------------

    Doubly Occupied:

       1A    -20.550936     2A    -11.321152     3A    -11.234316
       4A    -11.233748     5A    -11.226569     6A    -11.216198
       7A     -1.405886     8A     -1.094886     9A     -1.017583
      10A     -0.906530    11A     -0.830701    12A     -0.778955
      13A     -0.672998    14A     -0.649589    15A     -0.627927
      16A     -0.606567    17A     -0.587340    18A     -0.556737
      19A     -0.526092    20A     -0.512652    21A     -0.494080
      22A     -0.476893    23A     -0.469454    24A     -0.411439

  @DF-RHF Final Energy:  -270.11337818319532

   => Energetics <=

    Nuclear Repulsion Energy =            234.1597419253319856
    One-Electron Energy =                -829.7277875536336751
    Two-Electron Energy =                 325.4546674451064519
    DFT Exchange-Correlation Energy =       0.0000000000000000
    Empirical Dispersion Energy =           0.0000000000000000
    PCM Polarization Energy =               0.0000000000000000
    EFP Energy =                            0.0000000000000000
    Total Energy =                       -270.1133781831952092
    Molecular point group: c1
  Basis Set: CC-PVTZ
  Basis Set:

  -Total Gradient:
     Atom            X                  Y                   Z
    ------   -----------------  -----------------  -----------------
       1        0.000008651585     0.000003919794     0.000023843126
       2       -0.000013441367     0.000039858151    -0.000000654941
       3       -0.003529407224     0.005332739075     0.001075084055
       4       -0.000005262213    -0.000057553343    -0.000022842836
       5       -0.001972118842     0.003719842362    -0.004597016441
       6        0.003267916155    -0.005010139295    -0.000150564933
       7       -0.000013359871     0.000004452906     0.000003134221
       8        0.000004838786     0.000013959624    -0.000012435864
       9        0.002250705521    -0.004036769561     0.003685721844
      10       -0.000000304840     0.000006145899    -0.000009380221
      11       -0.000005005396    -0.000006819534     0.000008773091
      12        0.000007404723    -0.000000820592    -0.000003758237
      13        0.000002807565    -0.000010140279     0.000001376652
      14        0.000003798872     0.000002703418     0.000000650907
      15       -0.000005584168     0.000003118184     0.000000933546
      16       -0.000001639280    -0.000004496807    -0.000002863968

  **** Optimization is complete! (in 9 steps) ****
    Final optimized geometry and variables:
    Molecular point group: c1

    Geometry (in Angstrom), charge = 0, multiplicity = 1:

    H            1.031774316414     0.955069755235    -1.539722293725
    C            1.244484817811     1.003959413124    -0.464421020177
    C            1.271049274215    -0.320287263431     0.244797840206
    O            1.453101476738     2.048498743264     0.048960405541
    C           -0.020557046214    -1.157617106669     0.115334830569
    H            1.544133762837    -0.173443384284     1.280654042559
    H            2.088816388798    -0.882342277963    -0.202012708511
    C           -1.319666671160    -0.360584832216     0.018601039384
    H            0.069514876708    -1.856205489419    -0.709966342664
    H           -0.073956812367    -1.788921933761     0.996588423738
    C           -2.553886669914    -1.255650706887     0.030119631115
    H           -1.326206011078     0.238431588644    -0.886712670345
    H           -1.371645306245     0.340179628334     0.846552269052
    H           -2.540682019098    -1.951374393410    -0.802237377891
    H           -3.461782636271    -0.669015108037    -0.043388089989
    H           -2.607269710214    -1.836118915021     0.944842415204

  Mulliken Charges: (a.u.)
   Center  Symbol    Alpha    Beta     Spin     Total
       1     H     0.46218  0.46218  0.00000  0.07565
       2     C     2.90283  2.90283  0.00000  0.19433
       3     C     3.09037  3.09037  0.00000 -0.18075
       4     O     4.16805  4.16805  0.00000 -0.33609
       5     C     3.10400  3.10400  0.00000 -0.20799
       6     H     0.44073  0.44073  0.00000  0.11854
       7     H     0.44575  0.44575  0.00000  0.10849
       8     C     3.09014  3.09014  0.00000 -0.18027
       9     H     0.44775  0.44775  0.00000  0.10449
      10     H     0.44746  0.44746  0.00000  0.10508
      11     C     3.15088  3.15088  0.00000 -0.30176
      12     H     0.45257  0.45257  0.00000  0.09487
      13     H     0.44331  0.44331  0.00000  0.11337
      14     H     0.45491  0.45491  0.00000  0.09019
      15     H     0.44560  0.44560  0.00000  0.10879
      16     H     0.45347  0.45347  0.00000  0.09306

   Total alpha = 24.00000, Total beta = 24.00000, Total charge = -0.00000

*** Psi4 exiting successfully. Buy a developer a beer!
