  ==> Input File <==

--------------------------------------------------------------------------
set {
	reference rhf
	basis 6-31G*
}

set_num_threads( 1 )
memory 2 gb

molecule MOL {
0 1

H	 0.804159	 -0.877737	 1.568792
O	 1.210317	 -0.606189	 0.756911
C	 0.679396	 0.628361	 0.372239
C	 -0.793441	 0.596080	 0.058728
H	 1.232542	 0.934205	 -0.508494
H	 0.865778	 1.384197	 1.134472
C	 -1.530462	 -0.493172	 -0.025500
H	 -1.244701	 1.562167	 -0.107175
H	 -1.092586	 -1.461565	 -0.186463
H	 -2.602122	 -0.450675	 0.050101

	symmetry c1
}
set optking {
	frozen_dihedral = ("
		5 3 2 1,
		5 3 4 7
	")
}

ee = energy('scf')
oeprop('DIPOLE', 'QUADRUPOLE', 'MULLIKEN_CHARGES')
f=open( 'psi4out.xyz', 'w' )
f.write( "10  " )
f.write( str(ee) + "\n" )
f.write( MOL.save_string_xyz() )
f.close()
--------------------------------------------------------------------------

    Molecular point group: c1

    Geometry (in Angstrom), charge = 0, multiplicity = 1:

       Center              X                  Y                   Z               Mass
    ------------   -----------------  -----------------  -----------------  -----------------
           H          0.845991494060    -0.880810860904     1.242495931778     1.007825032070
           O          1.252149494060    -0.609262860904     0.430614931778    15.994914619560
           C          0.721228494060     0.625287139096     0.045942931778    12.000000000000
           C         -0.751608505940     0.593006139096    -0.267568068222    12.000000000000
           H          1.274374494060     0.931131139096    -0.834790068222     1.007825032070
           H          0.907610494060     1.381123139096     0.808175931778     1.007825032070
           C         -1.488629505940    -0.496245860904    -0.351796068222    12.000000000000
           H         -1.202868505940     1.559093139096    -0.433471068222     1.007825032070
           H         -1.050753505940    -1.464638860904    -0.512759068222     1.007825032070
           H         -2.560289505940    -0.453748860904    -0.276195068222     1.007825032070

  Charge       = 0
  Multiplicity = 1
  Basis Set: 6-31G*
  Basis Set:

    Orbital Energies (a.u.)
    -----------------------

    Doubly Occupied:

       1A    -20.559473     2A    -11.278082     3A    -11.231886
       4A    -11.219027     5A     -1.368142     6A     -1.058057
       7A     -0.928078     8A     -0.768961     9A     -0.686564
      10A     -0.659146    11A     -0.616266    12A     -0.571227
      13A     -0.537626    14A     -0.497892    15A     -0.446529
      16A     -0.355898

  @DF-RHF Final Energy:  -191.90854049017233

   => Energetics <=

    Nuclear Repulsion Energy =            119.3375808630930521
    One-Electron Energy =                -496.9265231576515589
    Two-Electron Energy =                 185.6804018043867757
    DFT Exchange-Correlation Energy =       0.0000000000000000
    Empirical Dispersion Energy =           0.0000000000000000
    PCM Polarization Energy =               0.0000000000000000
    EFP Energy =                            0.0000000000000000
    Total Energy =                       -191.9085404901717027

  Mulliken Charges: (a.u.)
   Center  Symbol    Alpha    Beta     Spin     Total
       1     H     0.28120  0.28120  0.00000  0.43760
       2     O     4.36661  4.36661  0.00000 -0.73322
       3     C     3.00073  3.00073  0.00000 -0.00147
       4     C     3.09365  3.09365  0.00000 -0.18729
       5     H     0.40995  0.40995  0.00000  0.18009
       6     H     0.42372  0.42372  0.00000  0.15257
       7     C     3.20051  3.20051  0.00000 -0.40103
       8     H     0.40986  0.40986  0.00000  0.18029
       9     H     0.40253  0.40253  0.00000  0.19495
      10     H     0.41124  0.41124  0.00000  0.17752

   Total alpha = 16.00000, Total beta = 16.00000, Total charge =  0.00000
