  ==> Input File <==

--------------------------------------------------------------------------
set {
	reference rhf
	basis 6-31G*
}

set_num_threads( 1 )
memory 2 gb

molecule MOL {
0 1

O	 2.862325	 1.357334	 0.000267
C	 2.843464	 0.164689	 -0.000222
C	 1.546494	 -0.624492	 -0.000609
C	 4.124123	 -0.644674	 -0.000428
C	 0.291004	 0.242674	 0.000989
H	 1.557904	 -1.283758	 -0.867573
H	 1.558622	 -1.285963	 0.864672
C	 0.028759	 0.897123	 -1.356467
H	 0.386934	 1.006088	 0.766578
H	 -0.560943	 -0.365319	 0.288529
C	 -1.227122	 1.770276	 -1.366342
H	 0.888411	 1.502502	 -1.640298
H	 -0.064778	 0.126020	 -2.119827
C	 -1.496153	 2.428533	 -2.720718
H	 -1.134416	 2.541906	 -0.604101
H	 -2.087260	 1.165945	 -1.083598
C	 -2.752141	 3.299266	 -2.722588
H	 -0.637524	 3.033852	 -3.003858
H	 -1.590518	 1.658125	 -3.483230
H	 -2.674570	 4.100667	 -1.993281
H	 -2.915758	 3.752380	 -3.695531
H	 -3.634491	 2.714984	 -2.477193
H	 4.165367	 -1.288615	 -0.874074
H	 4.976217	 0.020734	 -0.001915
H	 4.166763	 -1.286207	 0.874930

	symmetry c1
}
set optking {
	frozen_dihedral = ("
		9 5 8 12,
		15 11 8 12,
		15 11 14 18,
		1 2 3 6
	")
}

ee = energy('scf')
oeprop('DIPOLE', 'QUADRUPOLE', 'MULLIKEN_CHARGES')
f=open( 'psi4out.xyz', 'w' )
f.write( "25  " )
f.write( str(ee) + "\n" )
f.write( MOL.save_string_xyz() )
f.close()
--------------------------------------------------------------------------

    Molecular point group: c1

    Geometry (in Angstrom), charge = 0, multiplicity = 1:

       Center              X                  Y                   Z               Mass
    ------------   -----------------  -----------------  -----------------  -----------------
           O          2.171547289874     0.355534948248     0.914964776361    15.994914619560
           C          2.152686289874    -0.837110051752     0.914475776361    12.000000000000
           C          0.855716289874    -1.626291051752     0.914088776361    12.000000000000
           C          3.433345289874    -1.646473051752     0.914269776361    12.000000000000
           C         -0.399773710126    -0.759125051752     0.915686776361    12.000000000000
           H          0.867126289874    -2.285557051752     0.047124776361     1.007825032070
           H          0.867844289874    -2.287762051752     1.779369776361     1.007825032070
           C         -0.662018710126    -0.104676051752    -0.441769223639    12.000000000000
           H         -0.303843710126     0.004288948248     1.681275776361     1.007825032070
           H         -1.251720710126    -1.367118051752     1.203226776361     1.007825032070
           C         -1.917899710126     0.768476948248    -0.451644223639    12.000000000000
           H          0.197633289874     0.500702948248    -0.725600223639     1.007825032070
           H         -0.755555710126    -0.875779051752    -1.205129223639     1.007825032070
           C         -2.186930710126     1.426733948248    -1.806020223639    12.000000000000
           H         -1.825193710126     1.540106948248     0.310596776361     1.007825032070
           H         -2.778037710126     0.164145948248    -0.168900223639     1.007825032070
           C         -3.442918710126     2.297466948248    -1.807890223639    12.000000000000
           H         -1.328301710126     2.032052948248    -2.089160223639     1.007825032070
           H         -2.281295710126     0.656325948248    -2.568532223639     1.007825032070
           H         -3.365347710126     3.098867948248    -1.078583223639     1.007825032070
           H         -3.606535710126     2.750580948248    -2.780833223639     1.007825032070
           H         -4.325268710126     1.713184948248    -1.562495223639     1.007825032070
           H          3.474589289874    -2.290414051752     0.040623776361     1.007825032070
           H          4.285439289874    -0.981065051752     0.912782776361     1.007825032070
           H          3.475985289874    -2.288006051752     1.789627776361     1.007825032070

  Charge       = 0
  Multiplicity = 1
  Basis Set: 6-31G*
  Basis Set:

    Orbital Energies (a.u.)
    -----------------------

    Doubly Occupied:

       1A    -20.551777     2A    -11.327594     3A    -11.231970
       4A    -11.229191     5A    -11.216587     6A    -11.210542
       7A    -11.208450     8A    -11.207849     9A    -11.204676
      10A     -1.397631    11A     -1.089881    12A     -1.054096
      13A     -1.013500    14A     -0.966254    15A     -0.887576
      16A     -0.814389    17A     -0.786268    18A     -0.728626
      19A     -0.669023    20A     -0.636276    21A     -0.632812
      22A     -0.621879    23A     -0.589231    24A     -0.584584
      25A     -0.573193    26A     -0.555097    27A     -0.532431
      28A     -0.524647    29A     -0.514255    30A     -0.499786
      31A     -0.481750    32A     -0.472927    33A     -0.459443
      34A     -0.456262    35A     -0.438227    36A     -0.400948

  @DF-RHF Final Energy:  -387.13559709656039

   => Energetics <=

    Nuclear Repulsion Energy =            448.8715039897337533
    One-Electron Energy =               -1414.4752198070216309
    Two-Electron Energy =                 578.4681187207249877
    DFT Exchange-Correlation Energy =       0.0000000000000000
    Empirical Dispersion Energy =           0.0000000000000000
    PCM Polarization Energy =               0.0000000000000000
    EFP Energy =                            0.0000000000000000
    Total Energy =                       -387.1355970965628330

  Mulliken Charges: (a.u.)
   Center  Symbol    Alpha    Beta     Spin     Total
       1     O     4.26156  4.26156  0.00000 -0.52311
       2     C     2.73643  2.73643  0.00000  0.52713
       3     C     3.21216  3.21216  0.00000 -0.42431
       4     C     3.28660  3.28660  0.00000 -0.57320
       5     C     3.15063  3.15063  0.00000 -0.30125
       6     H     0.40945  0.40945  0.00000  0.18110
       7     H     0.40725  0.40725  0.00000  0.18549
       8     C     3.15766  3.15766  0.00000 -0.31531
       9     H     0.40897  0.40897  0.00000  0.18207
      10     H     0.42070  0.42070  0.00000  0.15859
      11     C     3.15118  3.15118  0.00000 -0.30236
      12     H     0.40651  0.40651  0.00000  0.18697
      13     H     0.42894  0.42894  0.00000  0.14212
      14     C     3.15161  3.15161  0.00000 -0.30322
      15     H     0.42119  0.42119  0.00000  0.15761
      16     H     0.42665  0.42665  0.00000  0.14671
      17     C     3.23922  3.23922  0.00000 -0.47843
      18     H     0.42122  0.42122  0.00000  0.15755
      19     H     0.42472  0.42472  0.00000  0.15056
      20     H     0.42130  0.42130  0.00000  0.15741
      21     H     0.42004  0.42004  0.00000  0.15992
      22     H     0.42280  0.42280  0.00000  0.15440
      23     H     0.40833  0.40833  0.00000  0.18333
      24     H     0.39644  0.39644  0.00000  0.20711
      25     H     0.40844  0.40844  0.00000  0.18313

   Total alpha = 36.00000, Total beta = 36.00000, Total charge =  0.00000
