  ==> Input File <==

--------------------------------------------------------------------------
set {
	reference rhf
	basis 6-31G*
}

set_num_threads( 1 )
memory 2 gb

molecule MOL {
0 1

O	 -1.793666	 -0.358241	 -1.565067
C	 -1.578732	 0.370508	 -0.651284
C	 -2.326288	 1.645863	 -0.370255
O	 -0.632575	 0.154573	 0.251549
H	 -1.637009	 2.482426	 -0.372186
H	 -3.088142	 1.792538	 -1.121188
H	 -2.778900	 1.595787	 0.613306
C	 0.160891	 -1.019931	 0.106212
C	 1.589627	 -0.672828	 0.480843
H	 0.089836	 -1.367806	 -0.916050
H	 -0.238459	 -1.792301	 0.749618
C	 2.246377	 0.346236	 -0.452210
H	 2.163194	 -1.597435	 0.473358
H	 1.604769	 -0.303424	 1.502885
C	 3.691736	 0.652107	 -0.061850
H	 2.219579	 -0.032311	 -1.472055
H	 1.666466	 1.263317	 -0.447249
H	 4.134505	 1.377213	 -0.737283
H	 4.305508	 -0.243868	 -0.089969
H	 3.748266	 1.059562	 0.943567

	symmetry c1
}
set optking {
	frozen_dihedral = ("
		16 12 9 8,
		12 9 8 10,
		1 2 4 8
	")
}

ee = energy('scf')
oeprop('DIPOLE', 'QUADRUPOLE', 'MULLIKEN_CHARGES')
f=open( 'psi4out.xyz', 'w' )
f.write( "20  " )
f.write( str(ee) + "\n" )
f.write( MOL.save_string_xyz() )
f.close()
--------------------------------------------------------------------------

    Molecular point group: c1

    Geometry (in Angstrom), charge = 0, multiplicity = 1:

       Center              X                  Y                   Z               Mass
    ------------   -----------------  -----------------  -----------------  -----------------
           O         -1.956314215494    -0.503589832317    -1.278444442756    15.994914619560
           C         -1.741380215494     0.225159167683    -0.364661442756    12.000000000000
           C         -2.488936215494     1.500514167683    -0.083632442756    12.000000000000
           O         -0.795223215494     0.009224167683     0.538171557244    15.994914619560
           H         -1.799657215494     2.337077167683    -0.085563442756     1.007825032070
           H         -3.250790215494     1.647189167683    -0.834565442756     1.007825032070
           H         -2.941548215494     1.450438167683     0.899928557244     1.007825032070
           C         -0.001757215494    -1.165279832317     0.392834557244    12.000000000000
           C          1.426978784506    -0.818176832317     0.767465557244    12.000000000000
           H         -0.072812215494    -1.513154832317    -0.629427442756     1.007825032070
           H         -0.401107215494    -1.937649832317     1.036240557244     1.007825032070
           C          2.083728784506     0.200887167683    -0.165587442756    12.000000000000
           H          2.000545784506    -1.742783832317     0.759980557244     1.007825032070
           H          1.442120784506    -0.448772832317     1.789507557244     1.007825032070
           C          3.529087784506     0.506758167683     0.224772557244    12.000000000000
           H          2.056930784506    -0.177659832317    -1.185432442756     1.007825032070
           H          1.503817784506     1.117968167683    -0.160626442756     1.007825032070
           H          3.971856784506     1.231864167683    -0.450660442756     1.007825032070
           H          4.142859784506    -0.389216832317     0.196653557244     1.007825032070
           H          3.585617784506     0.914213167683     1.230189557244     1.007825032070

  Charge       = 0
  Multiplicity = 1
  Basis Set: 6-31G*
  Basis Set:

    Orbital Energies (a.u.)
    -----------------------

    Doubly Occupied:

       1A    -20.602068     2A    -20.543637     3A    -11.375541
       4A    -11.279069     5A    -11.233931     6A    -11.223806
       7A    -11.220316     8A    -11.213055     9A     -1.468559
      10A     -1.362589    11A     -1.084788    12A     -1.028717
      13A     -0.980862    14A     -0.881465    15A     -0.808775
      16A     -0.775384    17A     -0.693702    18A     -0.680731
      19A     -0.665901    20A     -0.631876    21A     -0.601928
      22A     -0.592780    23A     -0.573113    24A     -0.548784
      25A     -0.538856    26A     -0.537711    27A     -0.506774
      28A     -0.484366    29A     -0.478579    30A     -0.472760
      31A     -0.445589    32A     -0.437185

  @DF-RHF Final Energy:  -383.94371777595836

   => Energetics <=

    Nuclear Repulsion Energy =            388.9503671875137343
    One-Electron Energy =               -1293.8418320936953023
    Two-Electron Energy =                 520.9477471302236609
    DFT Exchange-Correlation Energy =       0.0000000000000000
    Empirical Dispersion Energy =           0.0000000000000000
    PCM Polarization Energy =               0.0000000000000000
    EFP Energy =                            0.0000000000000000
    Total Energy =                       -383.9437177759579072

  Mulliken Charges: (a.u.)
   Center  Symbol    Alpha    Beta     Spin     Total
       1     O     4.28333  4.28333  0.00000 -0.56666
       2     C     2.61924  2.61924  0.00000  0.76152
       3     C     3.28282  3.28282  0.00000 -0.56563
       4     O     4.30757  4.30757  0.00000 -0.61515
       5     H     0.40074  0.40074  0.00000  0.19851
       6     H     0.39672  0.39672  0.00000  0.20656
       7     H     0.40013  0.40013  0.00000  0.19974
       8     C     3.01280  3.01280  0.00000 -0.02560
       9     C     3.16226  3.16226  0.00000 -0.32452
      10     H     0.39512  0.39512  0.00000  0.20976
      11     H     0.41300  0.41300  0.00000  0.17400
      12     C     3.15584  3.15584  0.00000 -0.31167
      13     H     0.41965  0.41965  0.00000  0.16070
      14     H     0.41525  0.41525  0.00000  0.16951
      15     C     3.24007  3.24007  0.00000 -0.48015
      16     H     0.42039  0.42039  0.00000  0.15922
      17     H     0.41549  0.41549  0.00000  0.16901
      18     H     0.41751  0.41751  0.00000  0.16498
      19     H     0.42139  0.42139  0.00000  0.15722
      20     H     0.42067  0.42067  0.00000  0.15865

   Total alpha = 32.00000, Total beta = 32.00000, Total charge = -0.00000
