  ==> Input File <==

--------------------------------------------------------------------------
set {
	reference rhf
	basis 6-31G*
}

set_num_threads( 4 )
memory 2 gb

molecule MOL {
0 1

H	 -3.135461	 -1.215070	 0.001379
O	 -2.310168	 -0.871793	 -0.309793
C	 -2.026376	 0.340750	 0.341611
C	 -0.673256	 0.843270	 -0.132153
H	 -2.792215	 1.080697	 0.115987
H	 -2.013526	 0.200402	 1.421792
C	 0.486613	 -0.083066	 0.235839
H	 -0.715586	 0.970948	 -1.210718
H	 -0.508072	 1.829858	 0.297090
C	 0.020488	 -1.444884	 0.753520
H	 1.103760	 0.400582	 0.985991
H	 1.119571	 -0.229604	 -0.638651
C	 1.179621	 -2.372720	 1.115742
H	 -0.611151	 -1.300036	 1.627458
H	 -0.603961	 -1.924823	 0.002411
H	 1.803185	 -1.935342	 1.890182
H	 0.819402	 -3.329417	 1.481687
H	 1.811912	 -2.565332	 0.253408

	symmetry c1
}
set optking {
	frozen_dihedral = ("
		10 7 4 8
	")
}

ee = optimize('scf')
oeprop('DIPOLE', 'QUADRUPOLE', 'MULLIKEN_CHARGES')
f=open( 'psi4out.xyz', 'w' )
f.write( "18  " )
f.write( str(ee) + "\n" )
f.write( MOL.save_string_xyz() )
f.close()
--------------------------------------------------------------------------

    Molecular point group: c1
  Charge       = 0
  Multiplicity = 1
  Basis Set: 6-31G*
  Basis Set:
  @DF-RHF Final Energy:  -271.16011177543140
    Total Energy =                       -271.1601117754316874
    Molecular point group: c1
  Basis Set: 6-31G*
  Basis Set:
  Basis Set: 6-31G*
  Basis Set:
  @DF-RHF Final Energy:  -271.16843579781937
    Total Energy =                       -271.1684357978195408
  Basis Set: 6-31G*
  Basis Set:
  Basis Set: 6-31G*
  Basis Set:
  @DF-RHF Final Energy:  -271.16988066043803
    Total Energy =                       -271.1698806604380252
  Basis Set: 6-31G*
  Basis Set:
  Basis Set: 6-31G*
  Basis Set:
  @DF-RHF Final Energy:  -271.17023069224592
    Total Energy =                       -271.1702306922458661
  Basis Set: 6-31G*
  Basis Set:
  Basis Set: 6-31G*
  Basis Set:
  @DF-RHF Final Energy:  -271.17030567062221
    Total Energy =                       -271.1703056706220423
  Basis Set: 6-31G*
  Basis Set:
  Basis Set: 6-31G*
  Basis Set:
  @DF-RHF Final Energy:  -271.17037927714995
    Total Energy =                       -271.1703792771502322
  Basis Set: 6-31G*
  Basis Set:
  Basis Set: 6-31G*
  Basis Set:
  @DF-RHF Final Energy:  -271.17038196799371
    Total Energy =                       -271.1703819679937055
  Basis Set: 6-31G*
  Basis Set:
  Charge       = 0
  Multiplicity = 1
  Basis Set: 6-31G*
  Basis Set:

    Orbital Energies (a.u.)
    -----------------------

    Doubly Occupied:

       1A    -20.553387     2A    -11.268791     3A    -11.213324
       4A    -11.210036     5A    -11.204354     6A    -11.201995
       7A     -1.360073     8A     -1.069340     9A     -1.005781
      10A     -0.912825    11A     -0.831637    12A     -0.766531
      13A     -0.704248    14A     -0.645417    15A     -0.622417
      16A     -0.580153    17A     -0.564926    18A     -0.551251
      19A     -0.532279    20A     -0.499481    21A     -0.486967
      22A     -0.467529    23A     -0.448954    24A     -0.446092
      25A     -0.425005

  @DF-RHF Final Energy:  -271.17038238188593

   => Energetics <=

    Nuclear Repulsion Energy =            254.7816836580598476
    One-Electron Energy =                -872.7585480399038715
    Two-Electron Energy =                 346.8064819999581800
    DFT Exchange-Correlation Energy =       0.0000000000000000
    Empirical Dispersion Energy =           0.0000000000000000
    PCM Polarization Energy =               0.0000000000000000
    EFP Energy =                            0.0000000000000000
    Total Energy =                       -271.1703823818858723
    Molecular point group: c1
  Basis Set: 6-31G*
  Basis Set:

  -Total Gradient:
     Atom            X                  Y                   Z
    ------   -----------------  -----------------  -----------------
       1        0.000006892821     0.000004613444     0.000006395747
       2        0.000007116837    -0.000014375499    -0.000012693826
       3        0.000005240022    -0.000017628180     0.000005092406
       4       -0.002173841809    -0.002386180483     0.000616034084
       5        0.000015553841     0.000010501443    -0.000014174896
       6        0.000002247660    -0.000003833015     0.000003880281
       7        0.000486308422    -0.000588048489    -0.002823067760
       8        0.001705062684     0.002225411505     0.000217748058
       9        0.000014393903    -0.000017547927     0.000013222550
      10       -0.000089412469     0.000771706190     0.001991366316
      11        0.000004338847    -0.000007684630     0.000002345799
      12       -0.000014381980     0.000010891699    -0.000001862721
      13        0.000005109725     0.000020975947     0.000005874398
      14       -0.000001249260    -0.000005258649     0.000003726465
      15       -0.000000591303     0.000019055331    -0.000011718360
      16        0.000015261624    -0.000004443422    -0.000010017215
      17       -0.000004159250    -0.000003969750     0.000009410399
      18        0.000016109684    -0.000014185516    -0.000001561724

  **** Optimization is complete! (in 8 steps) ****
    Final optimized geometry and variables:
    Molecular point group: c1

    Geometry (in Angstrom), charge = 0, multiplicity = 1:

    H           -2.804081013859    -0.317598508384    -0.433829088342
    O           -1.945313675937    -0.065371191770    -0.742233522152
    C           -1.479726924332     1.031670963085     0.002859697201
    C           -0.074078443489     1.390483106480    -0.452206333971
    H           -2.126174265248     1.892355187850    -0.159371912986
    H           -1.497807619360     0.810948111173     1.067936963080
    C            1.088969623928     0.439915668272    -0.061532084487
    H           -0.101891460803     1.518785354515    -1.529549704448
    H            0.143610839106     2.377427248366    -0.050801752644
    C            0.728609260653    -0.953292776098     0.467230331299
    H            1.693647094760     0.931289751550     0.697773862417
    H            1.741179574954     0.323290187192    -0.922427381657
    C            1.977219921744    -1.760743616940     0.823451876024
    H            0.102900787489    -0.864836311831     1.351261155318
    H            0.142890235036    -1.489401688530    -0.269444567569
    H            2.569078388218    -1.260123641354     1.585224471927
    H            1.713321273751    -2.743167633592     1.203490441613
    H            2.613740928877    -1.904087480863    -0.045464380112

  Mulliken Charges: (a.u.)
   Center  Symbol    Alpha    Beta     Spin     Total
       1     H     0.28105  0.28105  0.00000  0.43791
       2     O     4.36858  4.36858  0.00000 -0.73716
       3     C     3.00154  3.00154  0.00000 -0.00307
       4     C     3.16123  3.16123  0.00000 -0.32246
       5     H     0.42840  0.42840  0.00000  0.14321
       6     H     0.43072  0.43072  0.00000  0.13856
       7     C     3.15502  3.15502  0.00000 -0.31003
       8     H     0.41160  0.41160  0.00000  0.17681
       9     H     0.42200  0.42200  0.00000  0.15599
      10     C     3.15330  3.15330  0.00000 -0.30661
      11     H     0.42507  0.42507  0.00000  0.14987
      12     H     0.42000  0.42000  0.00000  0.15999
      13     C     3.24025  3.24025  0.00000 -0.48050
      14     H     0.42768  0.42768  0.00000  0.14465
      15     H     0.40606  0.40606  0.00000  0.18789
      16     H     0.42447  0.42447  0.00000  0.15105
      17     H     0.42054  0.42054  0.00000  0.15893
      18     H     0.42251  0.42251  0.00000  0.15498

   Total alpha = 25.00000, Total beta = 25.00000, Total charge =  0.00000
