  ==> Input File <==

--------------------------------------------------------------------------
set {
	reference rhf
	basis cc-pvtz
}

set_num_threads( 4 )
memory 2 gb

molecule MOL {
0 1

H	 -2.362939	 -1.309000	 -0.383250
C	 -1.359344	 -1.272457	 0.020748
C	 -0.684082	 0.000127	 -0.464918
H	 -0.825835	 -2.151141	 -0.318537
H	 -1.416276	 -1.292399	 1.099455
C	 -1.359089	 1.272668	 0.021259
N	 0.742439	 -0.000109	 0.007333
H	 -0.596914	 0.000345	 -1.538146
H	 -2.362696	 1.309620	 -0.382686
H	 -0.825392	 2.151374	 -0.317674
H	 -1.415983	 1.292181	 1.099973
O	 1.569892	 -0.359944	 -0.760446
O	 0.950709	 0.359715	 1.117936

	symmetry c1
}
set optking {
	frozen_dihedral = ("
		12 7 3 8
	")
}

ee = optimize('scf')
oeprop('DIPOLE', 'QUADRUPOLE', 'MULLIKEN_CHARGES')
f=open( 'psi4out.xyz', 'w' )
f.write( "13  " )
f.write( str(ee) + "\n" )
f.write( MOL.save_string_xyz() )
f.close()
--------------------------------------------------------------------------

    Molecular point group: c1
  Charge       = 0
  Multiplicity = 1
  Basis Set: CC-PVTZ
  Basis Set:
  @DF-RHF Final Energy:  -321.86416713086891
    Total Energy =                       -321.8641671308687364
    Molecular point group: c1
  Basis Set: CC-PVTZ
  Basis Set:
  Basis Set: CC-PVTZ
  Basis Set:
  @DF-RHF Final Energy:  -321.85900780131766
    Total Energy =                       -321.8590078013175457
  Basis Set: CC-PVTZ
  Basis Set:
  Basis Set: CC-PVTZ
  Basis Set:
  @DF-RHF Final Energy:  -321.86424460329209
    Total Energy =                       -321.8642446032922635
  Basis Set: CC-PVTZ
  Basis Set:
  Basis Set: CC-PVTZ
  Basis Set:
  @DF-RHF Final Energy:  -321.86444635793140
    Total Energy =                       -321.8644463579313424
  Basis Set: CC-PVTZ
  Basis Set:
  Basis Set: CC-PVTZ
  Basis Set:
  @DF-RHF Final Energy:  -321.86444943239542
    Total Energy =                       -321.8644494323955314
  Basis Set: CC-PVTZ
  Basis Set:
  Charge       = 0
  Multiplicity = 1
  Basis Set: CC-PVTZ
  Basis Set:

    Orbital Energies (a.u.)
    -----------------------

    Doubly Occupied:

       1A    -20.589337     2A    -20.588558     3A    -15.832670
       4A    -11.304399     5A    -11.245217     6A    -11.240526
       7A     -1.633910     8A     -1.418177     9A     -1.142535
      10A     -0.973863    11A     -0.957252    12A     -0.816475
      13A     -0.752992    14A     -0.732474    15A     -0.726471
      16A     -0.649751    17A     -0.594942    18A     -0.588099
      19A     -0.571161    20A     -0.529956    21A     -0.522420
      22A     -0.485368    23A     -0.470039    24A     -0.452153

  @DF-RHF Final Energy:  -321.86445059607081

   => Energetics <=

    Nuclear Repulsion Energy =            257.3651347407009098
    One-Electron Energy =                -948.8216856384874518
    Two-Electron Energy =                 369.5921003017157318
    DFT Exchange-Correlation Energy =       0.0000000000000000
    Empirical Dispersion Energy =           0.0000000000000000
    PCM Polarization Energy =               0.0000000000000000
    EFP Energy =                            0.0000000000000000
    Total Energy =                       -321.8644505960708102
    Molecular point group: c1
  Basis Set: CC-PVTZ
  Basis Set:

  -Total Gradient:
     Atom            X                  Y                   Z
    ------   -----------------  -----------------  -----------------
       1       -0.000003968078    -0.000007877195     0.000003363654
       2        0.000019818265     0.000034202949    -0.000002823347
       3       -0.000069654808    -0.000827371258     0.000077674164
       4       -0.000005243005    -0.000010528635     0.000002759664
       5       -0.000005613306    -0.000010329320     0.000006361343
       6        0.000003206612     0.000030308768    -0.000006448570
       7        0.000147792397     0.000734326481    -0.000267498612
       8        0.000019254190     0.000545088456     0.000003173943
       9       -0.000002504855    -0.000003173660    -0.000002959077
      10       -0.000000767223    -0.000001123082     0.000001422945
      11        0.000009235757    -0.000013283822    -0.000008815511
      12       -0.000083870277    -0.000478411878     0.000169584745
      13       -0.000027685671     0.000008172197     0.000024204657

  **** Optimization is complete! (in 6 steps) ****
    Final optimized geometry and variables:
    Molecular point group: c1

    Geometry (in Angstrom), charge = 0, multiplicity = 1:

    H           -2.357920963057    -1.295149429891    -0.361728992096
    C           -1.347510963701    -1.255241532742     0.023722991705
    C           -0.683723097363     0.025598868043    -0.463739109181
    H           -0.813409829392    -2.127586765440    -0.328478228970
    H           -1.388603510484    -1.278295157639     1.104366087772
    C           -1.372643819968     1.289913820716     0.015464799888
    N            0.743684829390     0.000340071631     0.007263368536
    H           -0.596125633704     0.018453162702    -1.537321305866
    H           -2.367442724745     1.320782835697    -0.411191301212
    H           -0.838270931926     2.173942834443    -0.307251208868
    H           -1.453104754141     1.308617780907     1.091935911023
    O            1.557396302368    -0.380803126805    -0.765587724881
    O            0.963676295680     0.327678355998     1.124979549290

  Mulliken Charges: (a.u.)
   Center  Symbol    Alpha    Beta     Spin     Total
       1     H     0.44848  0.44848  0.00000  0.10305
       2     C     3.14305  3.14305  0.00000 -0.28610
       3     C     3.00774  3.00774  0.00000 -0.01548
       4     H     0.43823  0.43823  0.00000  0.12354
       5     H     0.44120  0.44120  0.00000  0.11761
       6     C     3.14459  3.14459  0.00000 -0.28917
       7     N     3.27459  3.27459  0.00000  0.45082
       8     H     0.42520  0.42520  0.00000  0.14961
       9     H     0.44991  0.44991  0.00000  0.10019
      10     H     0.44129  0.44129  0.00000  0.11742
      11     H     0.43818  0.43818  0.00000  0.12363
      12     O     4.17121  4.17121  0.00000 -0.34243
      13     O     4.17634  4.17634  0.00000 -0.35268

   Total alpha = 24.00000, Total beta = 24.00000, Total charge = -0.00000
