                              Psi4 1.0.54 Driver

  ==> Input File <==

--------------------------------------------------------------------------
set {
	reference rhf
	basis cc-pvtz
}

set_num_threads( 4 )
memory 2 gb

molecule MOL {
0 1

O	 0.749630	 1.305591	 -0.000460
C	 0.576499	 0.134701	 -0.003900
C	 -0.765656	 -0.550508	 -0.002152
O	 1.564816	 -0.744612	 -0.000631
C	 -1.945526	 0.411052	 0.000603
H	 -0.794329	 -1.203792	 -0.868145
H	 -0.791555	 -1.205429	 0.862701
C	 -1.992350	 1.265913	 -1.261120
H	 -1.886370	 1.046690	 0.875736
H	 -2.865367	 -0.152419	 0.099456
H	 -1.093542	 1.864649	 -1.365861
H	 -2.838165	 1.942327	 -1.238265
H	 -2.084650	 0.651856	 -2.150919
C	 2.884339	 -0.237801	 0.002883
H	 3.064150	 0.362814	 -0.876312
H	 3.533055	 -1.098529	 0.004958
H	 3.059365	 0.363432	 0.882614

	symmetry c1
}
set optking {
	frozen_dihedral = ("
		9 5 3 6
	")
}

ee,wfn = optimize('scf', return_wfn=True)
oeprop( wfn, 'DIPOLE', 'QUADRUPOLE', 'MULLIKEN_CHARGES')
f=open( 'psi4out.xyz', 'w' )
f.write( "17  " )
f.write( str(ee) + "\n" )
f.write( MOL.save_string_xyz() )
f.close()
--------------------------------------------------------------------------

    Molecular point group: c1
  Charge       = 0
  Multiplicity = 1
  Basis Set: CC-PVTZ
  Basis Set:
  @DF-RHF Final Energy:  -345.03305163243186
    Total Energy =                       -345.0330516324316932
    Molecular point group: c1
  Basis Set: CC-PVTZ
  Basis Set:
  Basis Set: CC-PVTZ
  Basis Set:
  @DF-RHF Final Energy:  -345.03423558451186
    Total Energy =                       -345.0342355845120892
  Basis Set: CC-PVTZ
  Basis Set:
  Basis Set: CC-PVTZ
  Basis Set:
  @DF-RHF Final Energy:  -345.03320931801193
    Total Energy =                       -345.0332093180122683
  Basis Set: CC-PVTZ
  Basis Set:
  Basis Set: CC-PVTZ
  Basis Set:
  @DF-RHF Final Energy:  -345.03445170238308
    Total Energy =                       -345.0344517023833077
  Basis Set: CC-PVTZ
  Basis Set:
  Basis Set: CC-PVTZ
  Basis Set:
  @DF-RHF Final Energy:  -345.03463172031343
    Total Energy =                       -345.0346317203132571
  Basis Set: CC-PVTZ
  Basis Set:
  Basis Set: CC-PVTZ
  Basis Set:
  @DF-RHF Final Energy:  -345.03467677934941
    Total Energy =                       -345.0346767793494109
  Basis Set: CC-PVTZ
  Basis Set:
  Basis Set: CC-PVTZ
  Basis Set:
  @DF-RHF Final Energy:  -345.03468837987924
    Total Energy =                       -345.0346883798794124
  Basis Set: CC-PVTZ
  Basis Set:
  Charge       = 0
  Multiplicity = 1
  Basis Set: CC-PVTZ
  Basis Set:

    Orbital Energies (a.u.)
    -----------------------

    Doubly Occupied:

       1A    -20.597652     2A    -20.534482     3A    -11.365659
       4A    -11.279122     5A    -11.234459     6A    -11.221243
       7A    -11.206394     8A     -1.473303     9A     -1.366608
      10A     -1.080287    11A     -1.000633    12A     -0.939718
      13A     -0.830523    14A     -0.768243    15A     -0.702788
      16A     -0.685044    17A     -0.675324    18A     -0.622685
      19A     -0.615355    20A     -0.568947    21A     -0.564744
      22A     -0.536481    23A     -0.525410    24A     -0.490228
      25A     -0.485064    26A     -0.482225    27A     -0.460794
      28A     -0.439652

  @DF-RHF Final Energy:  -345.03468918000863

   => Energetics <=

    Nuclear Repulsion Energy =            318.5795853644410727
    One-Electron Energy =               -1101.7224151818836617
    Two-Electron Energy =                 438.1081406374339622
    DFT Exchange-Correlation Energy =       0.0000000000000000
    Empirical Dispersion Energy =           0.0000000000000000
    PCM Polarization Energy =               0.0000000000000000
    EFP Energy =                            0.0000000000000000
    Total Energy =                       -345.0346891800086269
    Molecular point group: c1
  Basis Set: CC-PVTZ
  Basis Set:

  -Total Gradient:
     Atom            X                  Y                   Z
    ------   -----------------  -----------------  -----------------
       1       -0.000065858404    -0.000049734053    -0.000011480103
       2       -0.000064836138     0.000163857602     0.000045631369
       3        0.000660656685     0.000816197082    -0.000627622475
       4        0.000131395691    -0.000111248408    -0.000049503478
       5        0.000600712744     0.000678613235    -0.000546656005
       6       -0.000619131248    -0.000715102314     0.000595443370
       7        0.000007661798    -0.000021431790     0.000007955925
       8        0.000013394735    -0.000034530476    -0.000003483252
       9       -0.000607809368    -0.000713758326     0.000580438392
      10       -0.000010636355     0.000007427775    -0.000006844851
      11        0.000010027426     0.000007496309     0.000006272348
      12       -0.000000737311    -0.000003556867     0.000006105812
      13       -0.000007845272    -0.000001911452    -0.000006310236
      14       -0.000027863242    -0.000020563873     0.000023893152
      15       -0.000000138078    -0.000027813654     0.000022683512
      16       -0.000028004187     0.000032815016     0.000006693797
      17        0.000009010522    -0.000006755806    -0.000043217278

  **** Optimization is complete! (in 8 steps) ****
    Final optimized geometry and variables:
    Molecular point group: c1

    Geometry (in Angstrom), charge = 0, multiplicity = 1:

    O            0.610705538316     1.010127889520     0.572498758266
    C            0.395687476063    -0.110519889231     0.256443522621
    C           -0.968049668296    -0.750629318579     0.184871637356
    O            1.351370883204    -0.973494267807    -0.044624703165
    C           -2.129652284485     0.236287113138     0.152234574227
    H           -0.992299950885    -1.422114950075    -0.664717368938
    H           -1.039687771448    -1.384737931235     1.064153134509
    C           -2.201336477187     1.066608440548    -1.125399392394
    H           -2.068900499366     0.887077421292     1.015498195051
    H           -3.047088473849    -0.333653273634     0.258322625451
    H           -1.321336048801     1.685129057024    -1.242924249862
    H           -3.065727150094     1.719881481254    -1.108024572896
    H           -2.288686238474     0.429070742640    -1.999787635530
    C            2.686874822798    -0.518294022486     0.039010026421
    H            2.851498188142     0.306203265530    -0.638507880459
    H            3.304760742556    -1.356823050825    -0.238052957431
    H            2.919092123517    -0.199994851389     1.044453450905

  Mulliken Charges: (a.u.)
   Center  Symbol    Alpha    Beta     Spin     Total
       1     O     4.19966  4.19966  0.00000 -0.39932
       2     C     2.80537  2.80537  0.00000  0.38925
       3     C     3.10346  3.10346  0.00000 -0.20691
       4     O     4.14595  4.14595  0.00000 -0.29190
       5     C     3.08340  3.08340  0.00000 -0.16680
       6     H     0.43812  0.43812  0.00000  0.12376
       7     H     0.43642  0.43642  0.00000  0.12716
       8     C     3.15360  3.15360  0.00000 -0.30720
       9     H     0.44633  0.44633  0.00000  0.10735
      10     H     0.44822  0.44822  0.00000  0.10357
      11     H     0.44401  0.44401  0.00000  0.11199
      12     H     0.44786  0.44786  0.00000  0.10429
      13     H     0.45756  0.45756  0.00000  0.08488
      14     C     3.03623  3.03623  0.00000 -0.07246
      15     H     0.45419  0.45419  0.00000  0.09162
      16     H     0.44520  0.44520  0.00000  0.10960
      17     H     0.45443  0.45443  0.00000  0.09115

   Total alpha = 28.00000, Total beta = 28.00000, Total charge = -0.00000

*** Psi4 exiting successfully. Buy a developer a beer!
