                              Psi4 1.0.54 Driver

  ==> Input File <==

--------------------------------------------------------------------------
set {
	reference rhf
	basis cc-pvtz
}

set_num_threads( 4 )
memory 2 gb

molecule MOL {
0 1

O	 -0.694481	 1.313155	 -0.204815
C	 -0.862519	 0.151932	 -0.046791
C	 -2.171428	 -0.477048	 0.339095
O	 0.085519	 -0.757083	 -0.192238
H	 -2.467997	 -1.191667	 -0.417688
H	 -2.923379	 0.287970	 0.444097
H	 -2.053854	 -1.015120	 1.270901
C	 1.392036	 -0.330828	 -0.560749
C	 2.463453	 -1.153479	 0.124239
H	 1.501424	 0.717811	 -0.332265
H	 1.431188	 -0.463413	 -1.631561
H	 3.440408	 -0.845325	 -0.230798
H	 2.431905	 -1.013701	 1.196083
H	 2.337346	 -2.206438	 -0.097049

	symmetry c1
}
set optking {
	frozen_dihedral = ("
		10 8 4 2
	")
}

ee,wfn = optimize('scf', return_wfn=True)
oeprop( wfn, 'DIPOLE', 'QUADRUPOLE', 'MULLIKEN_CHARGES')
f=open( 'psi4out.xyz', 'w' )
f.write( "14  " )
f.write( str(ee) + "\n" )
f.write( MOL.save_string_xyz() )
f.close()
--------------------------------------------------------------------------

    Molecular point group: c1
  Charge       = 0
  Multiplicity = 1
  Basis Set: CC-PVTZ
  Basis Set:
  @DF-RHF Final Energy:  -305.98971266101307
    Total Energy =                       -305.9897126610130726
    Molecular point group: c1
  Basis Set: CC-PVTZ
  Basis Set:
  Basis Set: CC-PVTZ
  Basis Set:
  @DF-RHF Final Energy:  -305.99042517299972
    Total Energy =                       -305.9904251730000055
  Basis Set: CC-PVTZ
  Basis Set:
  Basis Set: CC-PVTZ
  Basis Set:
  @DF-RHF Final Energy:  -305.99043296055419
    Total Energy =                       -305.9904329605543012
  Basis Set: CC-PVTZ
  Basis Set:
  Basis Set: CC-PVTZ
  Basis Set:
  @DF-RHF Final Energy:  -305.99051917471201
    Total Energy =                       -305.9905191747121194
  Basis Set: CC-PVTZ
  Basis Set:
  Basis Set: CC-PVTZ
  Basis Set:
  @DF-RHF Final Energy:  -305.99059354001395
    Total Energy =                       -305.9905935400136059
  Basis Set: CC-PVTZ
  Basis Set:
  Charge       = 0
  Multiplicity = 1
  Basis Set: CC-PVTZ
  Basis Set:

    Orbital Energies (a.u.)
    -----------------------

    Doubly Occupied:

       1A    -20.594186     2A    -20.532599     3A    -11.368067
       4A    -11.282341     5A    -11.231344     6A    -11.221069
       7A     -1.469661     8A     -1.366097     9A     -1.058726
      10A     -1.000676    11A     -0.875333    12A     -0.779488
      13A     -0.697611    14A     -0.686913    15A     -0.665940
      16A     -0.612537    17A     -0.582237    18A     -0.564149
      19A     -0.560568    20A     -0.537431    21A     -0.515784
      22A     -0.499732    23A     -0.454349    24A     -0.441972

  @DF-RHF Final Energy:  -305.99059430304897

   => Energetics <=

    Nuclear Repulsion Energy =            246.1172204545115392
    One-Electron Energy =                -905.0180084266462472
    Two-Electron Energy =                 352.9101936690858565
    DFT Exchange-Correlation Energy =       0.0000000000000000
    Empirical Dispersion Energy =           0.0000000000000000
    PCM Polarization Energy =               0.0000000000000000
    EFP Energy =                            0.0000000000000000
    Total Energy =                       -305.9905943030488515
    Molecular point group: c1
  Basis Set: CC-PVTZ
  Basis Set:

  -Total Gradient:
     Atom            X                  Y                   Z
    ------   -----------------  -----------------  -----------------
       1        0.000008733757     0.000023437511    -0.000006881864
       2        0.000330735542     0.000044536815     0.001192013354
       3       -0.000016719573     0.000000361530    -0.000013960202
       4       -0.000533413456    -0.000073055007    -0.002027012794
       5       -0.000001907962     0.000002179386     0.000010943171
       6        0.000009722483    -0.000004583662    -0.000004830891
       7        0.000000316834    -0.000000035871    -0.000001185047
       8        0.000700159285    -0.000310189799     0.002117884148
       9       -0.000048556213    -0.000025052567     0.000002442937
      10       -0.000435537411     0.000361363799    -0.001257351645
      11        0.000001022402    -0.000014891433    -0.000007918292
      12       -0.000025746778     0.000016551435    -0.000015850675
      13        0.000000730937     0.000004623929     0.000008091882
      14        0.000010460151    -0.000025246069     0.000003615917

  **** Optimization is complete! (in 6 steps) ****
    Final optimized geometry and variables:
    Molecular point group: c1

    Geometry (in Angstrom), charge = 0, multiplicity = 1:

    O           -0.744185799396     1.537000117489    -0.131920967167
    C           -0.896555971343     0.375341860031     0.034727251015
    C           -2.192730549380    -0.263740372763     0.446831630770
    O            0.054683690794    -0.529378587644    -0.121090605054
    H           -2.496835754564    -0.982381259713    -0.303167658541
    H           -2.949143680505     0.495189433813     0.562845919409
    H           -2.054219163059    -0.798871316387     1.377343920663
    C            1.366611045801    -0.114569941451    -0.482125891992
    C            2.363880087246    -0.987738839270     0.244519076616
    H            1.490772243369     0.928922018843    -0.245396474221
    H            1.462608539055    -0.227120993122    -1.554631878654
    H            3.370697913319    -0.716765254417    -0.051332303889
    H            2.276780402375    -0.861671869796     1.316604732038
    H            2.207524852735    -2.032803631946     0.008515538552

  Mulliken Charges: (a.u.)
   Center  Symbol    Alpha    Beta     Spin     Total
       1     O     4.19804  4.19804  0.00000 -0.39608
       2     C     2.80239  2.80239  0.00000  0.39522
       3     C     3.13993  3.13993  0.00000 -0.27985
       4     O     4.15553  4.15553  0.00000 -0.31105
       5     H     0.44564  0.44564  0.00000  0.10873
       6     H     0.43815  0.43815  0.00000  0.12369
       7     H     0.44630  0.44630  0.00000  0.10740
       8     C     2.98449  2.98449  0.00000  0.03101
       9     C     3.13275  3.13275  0.00000 -0.26550
      10     H     0.44329  0.44329  0.00000  0.11342
      11     H     0.45576  0.45576  0.00000  0.08848
      12     H     0.45445  0.45445  0.00000  0.09111
      13     H     0.45197  0.45197  0.00000  0.09607
      14     H     0.45132  0.45132  0.00000  0.09735

   Total alpha = 24.00000, Total beta = 24.00000, Total charge = -0.00000

*** Psi4 exiting successfully. Buy a developer a beer!
