  ==> Input File <==

--------------------------------------------------------------------------
set {
	reference rhf
	basis 6-31G*
}

set_num_threads( 4 )
memory 2 gb

molecule MOL {
0 1

O	 -2.042549	 -1.228399	 -0.269030
C	 -1.653912	 -0.146171	 0.050137
C	 -0.332303	 0.024011	 0.778412
C	 -2.438579	 1.106236	 -0.272369
C	 0.845713	 -0.001731	 -0.208243
H	 -0.323783	 0.953829	 1.340327
H	 -0.235459	 -0.796807	 1.480410
C	 1.050075	 -1.376883	 -0.845599
H	 1.759899	 0.296095	 0.302293
H	 0.665767	 0.739029	 -0.981570
C	 2.215280	 -1.403098	 -1.833940
H	 1.220552	 -2.115407	 -0.065250
H	 0.136543	 -1.674329	 -1.355063
H	 3.150198	 -1.142641	 -1.345943
H	 2.057505	 -0.697232	 -2.644065
H	 2.334602	 -2.388878	 -2.272150
H	 -3.277823	 0.863061	 -0.908988
H	 -1.806773	 1.843019	 -0.759671
H	 -2.802853	 1.554979	 0.648059

	symmetry c1
}
set optking {
	frozen_dihedral = ("
		9 5 3 2
	")
}

ee = optimize('scf')
oeprop('DIPOLE', 'QUADRUPOLE', 'MULLIKEN_CHARGES')
f=open( 'psi4out.xyz', 'w' )
f.write( "19  " )
f.write( str(ee) + "\n" )
f.write( MOL.save_string_xyz() )
f.close()
--------------------------------------------------------------------------

    Molecular point group: c1
  Charge       = 0
  Multiplicity = 1
  Basis Set: 6-31G*
  Basis Set:
  @DF-RHF Final Energy:  -309.06332113644936
    Total Energy =                       -309.0633211364493036
    Molecular point group: c1
  Basis Set: 6-31G*
  Basis Set:
  Basis Set: 6-31G*
  Basis Set:
  @DF-RHF Final Energy:  -309.06395055070726
    Total Energy =                       -309.0639505507070908
  Basis Set: 6-31G*
  Basis Set:
  Basis Set: 6-31G*
  Basis Set:
  @DF-RHF Final Energy:  -309.06409250787607
    Total Energy =                       -309.0640925078761256
  Basis Set: 6-31G*
  Basis Set:
  Basis Set: 6-31G*
  Basis Set:
  @DF-RHF Final Energy:  -309.06347985608306
    Total Energy =                       -309.0634798560830632
  Basis Set: 6-31G*
  Basis Set:
  Basis Set: 6-31G*
  Basis Set:
  @DF-RHF Final Energy:  -309.06423659062392
    Total Energy =                       -309.0642365906240343
  Basis Set: 6-31G*
  Basis Set:
  Basis Set: 6-31G*
  Basis Set:
  @DF-RHF Final Energy:  -309.06425637447956
    Total Energy =                       -309.0642563744796689
  Basis Set: 6-31G*
  Basis Set:
  Basis Set: 6-31G*
  Basis Set:
  @DF-RHF Final Energy:  -309.06425975331786
    Total Energy =                       -309.0642597533179696
  Basis Set: 6-31G*
  Basis Set:
  Charge       = 0
  Multiplicity = 1
  Basis Set: 6-31G*
  Basis Set:

    Orbital Energies (a.u.)
    -----------------------

    Doubly Occupied:

       1A    -20.548727     2A    -11.324971     3A    -11.232330
       4A    -11.230135     5A    -11.228324     6A    -11.218098
       7A    -11.211927     8A     -1.393877     9A     -1.089977
      10A     -1.027389    11A     -0.982150    12A     -0.889295
      13A     -0.808067    14A     -0.732334    15A     -0.660007
      16A     -0.642807    17A     -0.621282    18A     -0.608756
      19A     -0.584784    20A     -0.574414    21A     -0.551031
      22A     -0.538570    23A     -0.517875    24A     -0.496384
      25A     -0.481476    26A     -0.471100    27A     -0.462262
      28A     -0.397544

  @DF-RHF Final Energy:  -309.06426070821055

   => Energetics <=

    Nuclear Repulsion Energy =            307.3882064865149459
    One-Electron Energy =               -1027.8531490894063154
    Two-Electron Energy =                 411.4006818946807016
    DFT Exchange-Correlation Energy =       0.0000000000000000
    Empirical Dispersion Energy =           0.0000000000000000
    PCM Polarization Energy =               0.0000000000000000
    EFP Energy =                            0.0000000000000000
    Total Energy =                       -309.0642607082106679
    Molecular point group: c1
  Basis Set: 6-31G*
  Basis Set:

  -Total Gradient:
     Atom            X                  Y                   Z
    ------   -----------------  -----------------  -----------------
       1       -0.000028249591     0.000000704211     0.000015820975
       2       -0.000021109405     0.000278455618    -0.000147831144
       3        0.000073354387    -0.000341425919     0.000057405343
       4       -0.000066037242     0.000007501323     0.000112735214
       5        0.000086930963    -0.000320485386     0.000102409437
       6       -0.000002338126     0.000002500829     0.000020822092
       7        0.000012551890     0.000016481333    -0.000015144956
       8       -0.000068832724    -0.000056359703    -0.000062453103
       9       -0.000100962623     0.000379947863    -0.000089605738
      10        0.000005139953    -0.000005318233     0.000009504747
      11        0.000013967926     0.000007454766     0.000020942903
      12       -0.000001765571     0.000018747220     0.000003462752
      13        0.000042347909     0.000005829773     0.000024995721
      14        0.000030676780     0.000004969396    -0.000010855453
      15        0.000002579807    -0.000000367107     0.000005125013
      16       -0.000017685293     0.000000116718     0.000011774108
      17        0.000013727187    -0.000012598095    -0.000009668469
      18        0.000008494855    -0.000012125941    -0.000023866925
      19        0.000017208921     0.000025971338    -0.000025572517

  **** Optimization is complete! (in 8 steps) ****
    Final optimized geometry and variables:
    Molecular point group: c1

    Geometry (in Angstrom), charge = 0, multiplicity = 1:

    O           -1.860370603105    -0.794705247314     0.378298453836
    C           -1.336076368785     0.271220873519     0.496546891681
    C            0.019808688852     0.418511023913     1.163447703367
    C           -1.998119889271     1.534447251605    -0.012649305205
    C            1.180990881524     0.418645464803     0.150823926782
    H            0.042350512953     1.345844860454     1.729661465181
    H            0.137942885600    -0.404747701498     1.858401930630
    C            1.403795133584    -0.927829119055    -0.541674461725
    H            2.086136753518     0.704214934998     0.680099347726
    H            1.017415207755     1.191728473198    -0.597559047448
    C            2.577720495404    -0.892687473397    -1.519583134824
    H            1.582887251330    -1.689211647731     0.213370311886
    H            0.502433197930    -1.229275313814    -1.065325022989
    H            3.503844881246    -0.630580613135    -1.015452475472
    H            2.412752111254    -0.162373106964    -2.307009559470
    H            2.720670285444    -1.859350074212    -1.991712632213
    H           -2.859440087954     1.279809634266    -0.614400048020
    H           -1.307493483724     2.137238876479    -0.593567885873
    H           -2.319303627640     2.138169920321     0.832170897692

  Mulliken Charges: (a.u.)
   Center  Symbol    Alpha    Beta     Spin     Total
       1     O     4.26124  4.26124  0.00000 -0.52247
       2     C     2.73728  2.73728  0.00000  0.52543
       3     C     3.20223  3.20223  0.00000 -0.40447
       4     C     3.28935  3.28935  0.00000 -0.57870
       5     C     3.16307  3.16307  0.00000 -0.32614
       6     H     0.41435  0.41435  0.00000  0.17130
       7     H     0.40032  0.40032  0.00000  0.19936
       8     C     3.15364  3.15364  0.00000 -0.30728
       9     H     0.41458  0.41458  0.00000  0.17085
      10     H     0.42086  0.42086  0.00000  0.15829
      11     C     3.24095  3.24095  0.00000 -0.48190
      12     H     0.41883  0.41883  0.00000  0.16233
      13     H     0.40969  0.40969  0.00000  0.18063
      14     H     0.42216  0.42216  0.00000  0.15569
      15     H     0.42226  0.42226  0.00000  0.15547
      16     H     0.41630  0.41630  0.00000  0.16740
      17     H     0.39688  0.39688  0.00000  0.20623
      18     H     0.40976  0.40976  0.00000  0.18048
      19     H     0.40624  0.40624  0.00000  0.18752

   Total alpha = 28.00000, Total beta = 28.00000, Total charge =  0.00000
