  ==> Input File <==

--------------------------------------------------------------------------
set {
	reference rhf
	basis cc-pvtz
}

set_num_threads( 4 )
memory 2 gb

molecule MOL {
0 1

H	 -2.698799	 -0.000846	 0.036018
C	 -1.694291	 -0.000483	 0.434279
O	 -0.828718	 -0.000608	 -0.655022
H	 -1.576855	 0.881100	 1.056504
H	 -1.576401	 -0.881658	 1.057001
C	 0.557892	 0.000078	 -0.420099
C	 0.940285	 0.790063	 0.826485
C	 1.152734	 -1.403635	 -0.420995
H	 0.954149	 0.526972	 -1.279158
H	 0.471169	 1.766179	 0.812815
H	 2.014697	 0.929302	 0.858058
H	 0.650217	 0.281974	 1.738784
H	 0.831025	 -1.948816	 -1.299816
H	 2.234885	 -1.344166	 -0.434659
H	 0.868215	 -1.969953	 0.458138

	symmetry c1
}
set optking {
	frozen_dihedral = ("
		9 6 3 2
	")
}

ee = optimize('scf')
oeprop('DIPOLE', 'QUADRUPOLE', 'MULLIKEN_CHARGES')
f=open( 'psi4out.xyz', 'w' )
f.write( "15  " )
f.write( str(ee) + "\n" )
f.write( MOL.save_string_xyz() )
f.close()
--------------------------------------------------------------------------

    Molecular point group: c1
  Charge       = 0
  Multiplicity = 1
  Basis Set: CC-PVTZ
  Basis Set:
  @DF-RHF Final Energy:  -232.22336552000340
    Total Energy =                       -232.2233655200032558
    Molecular point group: c1
  Basis Set: CC-PVTZ
  Basis Set:
  Basis Set: CC-PVTZ
  Basis Set:
  @DF-RHF Final Energy:  -232.22394866986139
    Total Energy =                       -232.2239486698614996
  Basis Set: CC-PVTZ
  Basis Set:
  Basis Set: CC-PVTZ
  Basis Set:
  @DF-RHF Final Energy:  -232.22438395942794
    Total Energy =                       -232.2243839594278256
  Basis Set: CC-PVTZ
  Basis Set:
  Basis Set: CC-PVTZ
  Basis Set:
  @DF-RHF Final Energy:  -232.22440672272654
    Total Energy =                       -232.2244067227264850
  Basis Set: CC-PVTZ
  Basis Set:
  Basis Set: CC-PVTZ
  Basis Set:
  @DF-RHF Final Energy:  -232.22441553538712
    Total Energy =                       -232.2244155353871520
  Basis Set: CC-PVTZ
  Basis Set:
  Charge       = 0
  Multiplicity = 1
  Basis Set: CC-PVTZ
  Basis Set:

    Orbital Energies (a.u.)
    -----------------------

    Doubly Occupied:

       1A    -20.540414     2A    -11.272805     3A    -11.259365
       4A    -11.211898     5A    -11.205769     6A     -1.371829
       7A     -1.052289     8A     -0.945578     9A     -0.924980
      10A     -0.781414    11A     -0.676335    12A     -0.643838
      13A     -0.634074    14A     -0.577688    15A     -0.556826
      16A     -0.551239    17A     -0.535134    18A     -0.504927
      19A     -0.494557    20A     -0.445956    21A     -0.405642

  @DF-RHF Final Energy:  -232.22441612090091

   => Energetics <=

    Nuclear Repulsion Energy =            198.8496170078399246
    One-Electron Energy =                -708.9629528288287474
    Two-Electron Energy =                 277.8889197000879108
    DFT Exchange-Correlation Energy =       0.0000000000000000
    Empirical Dispersion Energy =           0.0000000000000000
    PCM Polarization Energy =               0.0000000000000000
    EFP Energy =                            0.0000000000000000
    Total Energy =                       -232.2244161209009121
    Molecular point group: c1
  Basis Set: CC-PVTZ
  Basis Set:

  -Total Gradient:
     Atom            X                  Y                   Z
    ------   -----------------  -----------------  -----------------
       1        0.000001947959    -0.000005061771     0.000012539998
       2       -0.000054025112     0.003131304262     0.000044788484
       3        0.000093611188    -0.004134516431     0.000291656612
       4        0.000001205056     0.000016958140     0.000017515557
       5       -0.000012910225     0.000007986487    -0.000005919614
       6        0.000379602132    -0.002072149198    -0.002240435373
       7       -0.000012716630    -0.000039639468     0.000013131864
       8       -0.000006519503    -0.000008273087     0.000033891378
       9       -0.000318105271     0.003119313280     0.001824978259
      10       -0.000027623826    -0.000009300625     0.000002254478
      11       -0.000007586325     0.000003822766    -0.000006915560
      12        0.000009654678     0.000004067621     0.000007692467
      13       -0.000009099424    -0.000009818748    -0.000000695168
      14       -0.000040074480     0.000010553405    -0.000008808854
      15        0.000002639781    -0.000015246633     0.000014325474

  **** Optimization is complete! (in 6 steps) ****
    Final optimized geometry and variables:
    Molecular point group: c1

    Geometry (in Angstrom), charge = 0, multiplicity = 1:

    H           -2.702740719407    -0.033680616308     0.056848912453
    C           -1.709291820361     0.089213028595     0.464150205585
    O           -0.833576015619     0.121112942429    -0.615645637605
    H           -1.688405587417     1.007875421630     1.040436787241
    H           -1.514301961271    -0.743746041078     1.134894907306
    C            0.557070615943     0.145943583174    -0.386616360962
    C            0.974399879567     0.923780075266     0.857300153437
    C            1.113176548530    -1.270685731660    -0.392206091360
    H            0.955551772637     0.690725023874    -1.234392823799
    H            0.562262771989     1.925432967948     0.847206640605
    H            2.054313030282     1.008864572409     0.874093005268
    H            0.669050860536     0.434699258609     1.774650048540
    H            0.825026226414    -1.780063496629    -1.302698440907
    H            2.195731748511    -1.259969900719    -0.330880760626
    H            0.735853730068    -1.841710745657     0.449607231671

  Mulliken Charges: (a.u.)
   Center  Symbol    Alpha    Beta     Spin     Total
       1     H     0.44195  0.44195  0.00000  0.11610
       2     C     3.03878  3.03878  0.00000 -0.07755
       3     O     4.18687  4.18687  0.00000 -0.37374
       4     H     0.46758  0.46758  0.00000  0.06485
       5     H     0.47118  0.47118  0.00000  0.05763
       6     C     2.93213  2.93213  0.00000  0.13574
       7     C     3.16890  3.16890  0.00000 -0.33780
       8     C     3.14411  3.14411  0.00000 -0.28823
       9     H     0.44858  0.44858  0.00000  0.10284
      10     H     0.44437  0.44437  0.00000  0.11125
      11     H     0.44530  0.44530  0.00000  0.10940
      12     H     0.45185  0.45185  0.00000  0.09631
      13     H     0.44584  0.44584  0.00000  0.10832
      14     H     0.45552  0.45552  0.00000  0.08896
      15     H     0.45704  0.45704  0.00000  0.08592

   Total alpha = 21.00000, Total beta = 21.00000, Total charge = -0.00000
