                              Psi4 1.0.54 Driver

  ==> Input File <==

--------------------------------------------------------------------------
set {
	reference rhf
	basis cc-pvtz
}

set_num_threads( 4 )
memory 2 gb

molecule MOL {
0 1

H	 0.944994	 0.818733	 -2.023939
C	 0.876934	 1.402896	 -1.096699
C	 0.692262	 0.592428	 0.156232
O	 0.945583	 2.582508	 -1.134610
C	 -0.554654	 -0.292621	 0.086567
H	 0.648581	 1.269354	 0.999262
H	 1.573973	 -0.034681	 0.271112
C	 -1.846385	 0.513195	 -0.016346
H	 -0.473986	 -0.956115	 -0.769708
H	 -0.597929	 -0.929215	 0.966651
C	 -3.089953	 -0.365049	 -0.098564
H	 -1.798267	 1.154820	 -0.891143
H	 -1.925398	 1.173265	 0.842889
H	 -3.055079	 -1.012299	 -0.968245
H	 -3.988403	 0.236438	 -0.170014
H	 -3.183055	 -0.995885	 0.779079

	symmetry c1
}
set optking {
	frozen_dihedral = ("
		6 3 5 9
	")
}

ee,wfn = optimize('scf', return_wfn=True)
oeprop( wfn, 'DIPOLE', 'QUADRUPOLE', 'MULLIKEN_CHARGES')
f=open( 'psi4out.xyz', 'w' )
f.write( "16  " )
f.write( str(ee) + "\n" )
f.write( MOL.save_string_xyz() )
f.close()
--------------------------------------------------------------------------

    Molecular point group: c1
  Charge       = 0
  Multiplicity = 1
  Basis Set: CC-PVTZ
  Basis Set:
  @DF-RHF Final Energy:  -270.11843972743344
    Total Energy =                       -270.1184397274333833
    Molecular point group: c1
  Basis Set: CC-PVTZ
  Basis Set:
  Basis Set: CC-PVTZ
  Basis Set:
  @DF-RHF Final Energy:  -270.11842220290771
    Total Energy =                       -270.1184222029077659
  Basis Set: CC-PVTZ
  Basis Set:
  Basis Set: CC-PVTZ
  Basis Set:
  @DF-RHF Final Energy:  -270.11647611370341
    Total Energy =                       -270.1164761137034134
  Basis Set: CC-PVTZ
  Basis Set:
  Basis Set: CC-PVTZ
  Basis Set:
  @DF-RHF Final Energy:  -270.11861707253661
    Total Energy =                       -270.1186170725367219
  Basis Set: CC-PVTZ
  Basis Set:
  Basis Set: CC-PVTZ
  Basis Set:
  @DF-RHF Final Energy:  -270.11866399720441
    Total Energy =                       -270.1186639972044077
  Basis Set: CC-PVTZ
  Basis Set:
  Basis Set: CC-PVTZ
  Basis Set:
  @DF-RHF Final Energy:  -270.11867906551674
    Total Energy =                       -270.1186790655168579
  Basis Set: CC-PVTZ
  Basis Set:
  Basis Set: CC-PVTZ
  Basis Set:
  @DF-RHF Final Energy:  -270.11868101965104
    Total Energy =                       -270.1186810196512056
  Basis Set: CC-PVTZ
  Basis Set:
  Charge       = 0
  Multiplicity = 1
  Basis Set: CC-PVTZ
  Basis Set:

    Orbital Energies (a.u.)
    -----------------------

    Doubly Occupied:

       1A    -20.551881     2A    -11.321540     3A    -11.234511
       4A    -11.233748     5A    -11.225117     6A    -11.215589
       7A     -1.406864     8A     -1.097456     9A     -1.018255
      10A     -0.905364    11A     -0.821828    12A     -0.788417
      13A     -0.668860    14A     -0.658178    15A     -0.618278
      16A     -0.612639    17A     -0.590559    18A     -0.546988
      19A     -0.528292    20A     -0.521673    21A     -0.489688
      22A     -0.480804    23A     -0.469301    24A     -0.412467

  @DF-RHF Final Energy:  -270.11868187154005

   => Energetics <=

    Nuclear Repulsion Energy =            233.7745441018473969
    One-Electron Energy =                -828.9498571614461753
    Two-Electron Energy =                 325.0566311880586454
    DFT Exchange-Correlation Energy =       0.0000000000000000
    Empirical Dispersion Energy =           0.0000000000000000
    PCM Polarization Energy =               0.0000000000000000
    EFP Energy =                            0.0000000000000000
    Total Energy =                       -270.1186818715401614
    Molecular point group: c1
  Basis Set: CC-PVTZ
  Basis Set:

  -Total Gradient:
     Atom            X                  Y                   Z
    ------   -----------------  -----------------  -----------------
       1        0.000028316245     0.000020274867     0.000024291858
       2       -0.000087971441    -0.000149519776     0.000012661670
       3       -0.000108373941     0.000332432321    -0.000278547918
       4        0.000032921302     0.000125584641    -0.000017310401
       5       -0.000172954934     0.000266504953    -0.000213654622
       6        0.000173295409    -0.000302447083     0.000234709815
       7       -0.000025172982    -0.000017009980     0.000007800850
       8       -0.000049555154     0.000018813059    -0.000021520964
       9        0.000161793730    -0.000264302960     0.000259306938
      10        0.000001340921     0.000010478646    -0.000023286251
      11        0.000026446198    -0.000024693714     0.000010934469
      12        0.000003674867    -0.000029929008     0.000060909361
      13        0.000010664756    -0.000031373253    -0.000046338696
      14       -0.000003356910     0.000020742449     0.000042971162
      15        0.000005734350    -0.000003357845     0.000000072349
      16        0.000003197585     0.000027802683    -0.000052999621

  **** Optimization is complete! (in 8 steps) ****
    Final optimized geometry and variables:
    Molecular point group: c1

    Geometry (in Angstrom), charge = 0, multiplicity = 1:

    H            1.438897993925     0.047058586985    -1.641283892494
    C            1.420448921853     0.645901658717    -0.720531947129
    C            1.154690545153    -0.134524875051     0.537889445706
    O            1.612580141269     1.811296366190    -0.768915206471
    C           -0.094564498930    -1.014682221524     0.439526055552
    H            1.090956390946     0.556912802382     1.368046122037
    H            2.024100988145    -0.768111674310     0.699420413908
    C           -1.395341913647    -0.225257596370     0.310685847007
    H            0.007162366035    -1.693543570374    -0.403719959798
    H           -0.141426700619    -1.641373586037     1.323743667742
    C           -2.625822554285    -1.122610107810     0.239546257722
    H           -1.358631583660     0.404167381126    -0.573697587531
    H           -1.486304114358     0.449789815020     1.156372445489
    H           -2.578001928851    -1.786530397663    -0.617063556466
    H           -3.532411806507    -0.535812476390     0.152373029660
    H           -2.713623420882    -1.737543171448     1.128863754227

  Mulliken Charges: (a.u.)
   Center  Symbol    Alpha    Beta     Spin     Total
       1     H     0.46402  0.46402  0.00000  0.07195
       2     C     2.90485  2.90485  0.00000  0.19030
       3     C     3.08916  3.08916  0.00000 -0.17833
       4     O     4.16589  4.16589  0.00000 -0.33178
       5     C     3.11106  3.11106  0.00000 -0.22213
       6     H     0.44259  0.44259  0.00000  0.11482
       7     H     0.44128  0.44128  0.00000  0.11744
       8     C     3.08402  3.08402  0.00000 -0.16804
       9     H     0.45048  0.45048  0.00000  0.09904
      10     H     0.44372  0.44372  0.00000  0.11256
      11     C     3.14945  3.14945  0.00000 -0.29891
      12     H     0.44922  0.44922  0.00000  0.10156
      13     H     0.44965  0.44965  0.00000  0.10070
      14     H     0.45475  0.45475  0.00000  0.09051
      15     H     0.44577  0.44577  0.00000  0.10845
      16     H     0.45408  0.45408  0.00000  0.09184

   Total alpha = 24.00000, Total beta = 24.00000, Total charge = -0.00000

*** Psi4 exiting successfully. Buy a developer a beer!
