  ==> Input File <==

--------------------------------------------------------------------------
set {
	reference rhf
	basis cc-pvtz
}

set_num_threads( 4 )
memory 2 gb

molecule MOL {
0 1

H	 -2.698799	 -0.000846	 0.036018
C	 -1.694291	 -0.000483	 0.434279
O	 -0.828718	 -0.000608	 -0.655022
H	 -1.576855	 0.881100	 1.056504
H	 -1.576401	 -0.881658	 1.057001
C	 0.557892	 0.000078	 -0.420099
C	 0.907120	 0.343919	 1.023537
C	 1.231880	 -1.284677	 -0.888494
H	 0.914719	 0.807530	 -1.047248
H	 0.382917	 1.238962	 1.335253
H	 1.972092	 0.525528	 1.110705
H	 0.655768	 -0.457745	 1.708183
H	 0.932968	 -1.519022	 -1.902781
H	 2.308676	 -1.162331	 -0.870734
H	 0.989056	 -2.129557	 -0.254651

	symmetry c1
}
set optking {
	frozen_dihedral = ("
		9 6 3 2
	")
}

ee = optimize('scf')
oeprop('DIPOLE', 'QUADRUPOLE', 'MULLIKEN_CHARGES')
f=open( 'psi4out.xyz', 'w' )
f.write( "15  " )
f.write( str(ee) + "\n" )
f.write( MOL.save_string_xyz() )
f.close()
--------------------------------------------------------------------------

    Molecular point group: c1
  Charge       = 0
  Multiplicity = 1
  Basis Set: CC-PVTZ
  Basis Set:
  @DF-RHF Final Energy:  -232.21907476084951
    Total Energy =                       -232.2190747608494803
    Molecular point group: c1
  Basis Set: CC-PVTZ
  Basis Set:
  Basis Set: CC-PVTZ
  Basis Set:
  @DF-RHF Final Energy:  -232.21954488117808
    Total Energy =                       -232.2195448811781944
  Basis Set: CC-PVTZ
  Basis Set:
  Basis Set: CC-PVTZ
  Basis Set:
  @DF-RHF Final Energy:  -232.22190935090561
    Total Energy =                       -232.2219093509057757
  Basis Set: CC-PVTZ
  Basis Set:
  Basis Set: CC-PVTZ
  Basis Set:
  @DF-RHF Final Energy:  -232.22207109438918
    Total Energy =                       -232.2220710943892072
  Basis Set: CC-PVTZ
  Basis Set:
  Basis Set: CC-PVTZ
  Basis Set:
  @DF-RHF Final Energy:  -232.22211016971704
    Total Energy =                       -232.2221101697170980
  Basis Set: CC-PVTZ
  Basis Set:
  Basis Set: CC-PVTZ
  Basis Set:
  @DF-RHF Final Energy:  -232.22211972030902
    Total Energy =                       -232.2221197203089673
  Basis Set: CC-PVTZ
  Basis Set:
  Charge       = 0
  Multiplicity = 1
  Basis Set: CC-PVTZ
  Basis Set:

    Orbital Energies (a.u.)
    -----------------------

    Doubly Occupied:

       1A    -20.538718     2A    -11.273156     3A    -11.259735
       4A    -11.213225     5A    -11.204110     6A     -1.369482
       7A     -1.053501     8A     -0.948526     9A     -0.919512
      10A     -0.781858    11A     -0.676333    12A     -0.644016
      13A     -0.632634    14A     -0.582813    15A     -0.554821
      16A     -0.543609    17A     -0.535687    18A     -0.507735
      19A     -0.493062    20A     -0.447516    21A     -0.401510

  @DF-RHF Final Energy:  -232.22212003618438

   => Energetics <=

    Nuclear Repulsion Energy =            198.2952746168976432
    One-Electron Energy =                -707.8716696237621591
    Two-Electron Energy =                 277.3542749706801374
    DFT Exchange-Correlation Energy =       0.0000000000000000
    Empirical Dispersion Energy =           0.0000000000000000
    PCM Polarization Energy =               0.0000000000000000
    EFP Energy =                            0.0000000000000000
    Total Energy =                       -232.2221200361843785
    Molecular point group: c1
  Basis Set: CC-PVTZ
  Basis Set:

  -Total Gradient:
     Atom            X                  Y                   Z
    ------   -----------------  -----------------  -----------------
       1       -0.000000523362     0.000005459811    -0.000004871513
       2       -0.000098395280     0.001798249312    -0.000006970090
       3        0.000080774300    -0.002497933344     0.000385844731
       4        0.000006290491     0.000000286191    -0.000013112450
       5       -0.000006030844    -0.000002142234     0.000001119494
       6        0.000329759425    -0.000598952420    -0.001945801714
       7        0.000006259672    -0.000013733807    -0.000004386930
       8       -0.000015401149    -0.000019188239     0.000027791480
       9       -0.000287819122     0.001335565111     0.001552907239
      10       -0.000007405157     0.000000365450    -0.000001430287
      11       -0.000006549298     0.000000291641    -0.000013499028
      12        0.000011425205    -0.000005603868     0.000006890819
      13        0.000002381075     0.000018455199     0.000000785855
      14       -0.000019730979     0.000010482989     0.000013434750
      15        0.000004965023    -0.000031601791     0.000001297640

  **** Optimization is complete! (in 7 steps) ****
    Final optimized geometry and variables:
    Molecular point group: c1

    Geometry (in Angstrom), charge = 0, multiplicity = 1:

    H           -2.731134746465     0.060913235633     0.042831851185
    C           -1.750898857803     0.137452611157     0.491607048816
    O           -0.837522754234     0.167599974614    -0.555715758460
    H           -1.724529515034     1.038649922768     1.095074668474
    H           -1.611422209135    -0.720278141840     1.143546211751
    C            0.553784623012     0.227725692694    -0.319058465345
    C            0.959425727650     0.557093827000     1.113317364353
    C            1.178701880453    -1.073939353988    -0.796963679298
    H            0.914968375516     1.040699848473    -0.940691489618
    H            0.541779075891     1.499708480211     1.442837821257
    H            2.038318875758     0.644677568068     1.154987474608
    H            0.664592666271    -0.215123004330     1.813534972491
    H            0.887557931850    -1.271542941878    -1.820360550901
    H            2.261119548758    -1.026117589414    -0.748979649220
    H            0.846358856471    -1.905644956291    -0.184444504693

  Mulliken Charges: (a.u.)
   Center  Symbol    Alpha    Beta     Spin     Total
       1     H     0.44197  0.44197  0.00000  0.11606
       2     C     3.03706  3.03706  0.00000 -0.07412
       3     O     4.18977  4.18977  0.00000 -0.37955
       4     H     0.46888  0.46888  0.00000  0.06224
       5     H     0.47134  0.47134  0.00000  0.05731
       6     C     2.92520  2.92520  0.00000  0.14960
       7     C     3.17218  3.17218  0.00000 -0.34436
       8     C     3.13976  3.13976  0.00000 -0.27953
       9     H     0.45278  0.45278  0.00000  0.09445
      10     H     0.44463  0.44463  0.00000  0.11075
      11     H     0.44358  0.44358  0.00000  0.11284
      12     H     0.45070  0.45070  0.00000  0.09860
      13     H     0.44603  0.44603  0.00000  0.10794
      14     H     0.45830  0.45830  0.00000  0.08339
      15     H     0.45781  0.45781  0.00000  0.08438

   Total alpha = 21.00000, Total beta = 21.00000, Total charge = -0.00000
