  ==> Input File <==

--------------------------------------------------------------------------
set {
	reference rhf
	basis cc-pvtz
}

set_num_threads( 4 )
memory 2 gb

molecule MOL {
0 1

H	 3.721907	 -0.933076	 -0.066039
O	 2.824271	 -1.154299	 0.131461
C	 2.076458	 -0.067370	 -0.038225
C	 0.626018	 -0.337582	 0.258241
O	 2.538288	 0.965419	 -0.381593
C	 -0.267326	 0.883135	 0.076490
H	 0.325620	 -1.161483	 -0.378003
H	 0.574537	 -0.713685	 1.275261
C	 -1.726822	 0.642622	 0.463839
H	 -0.210803	 1.217591	 -0.953497
H	 0.129920	 1.693110	 0.675679
C	 -2.480891	 -0.340606	 -0.429852
H	 -2.243098	 1.597649	 0.438609
H	 -1.776542	 0.301208	 1.495542
C	 -2.170611	 -0.147598	 -1.910713
H	 -2.225319	 -1.355716	 -0.137841
H	 -3.550932	 -0.239285	 -0.279178
H	 -2.715658	 -0.857669	 -2.521782
H	 -1.112838	 -0.282885	 -2.109487
H	 -2.442707	 0.849590	 -2.240462

	symmetry c1
}
set optking {
	frozen_dihedral = ("
		16 12 9 6
	")
}

ee = optimize('scf')
oeprop('DIPOLE', 'QUADRUPOLE', 'MULLIKEN_CHARGES')
f=open( 'psi4out.xyz', 'w' )
f.write( "20  " )
f.write( str(ee) + "\n" )
f.write( MOL.save_string_xyz() )
f.close()
--------------------------------------------------------------------------

    Molecular point group: c1
  Charge       = 0
  Multiplicity = 1
  Basis Set: CC-PVTZ
  Basis Set:
  @DF-RHF Final Energy:  -384.09016439812689
    Total Energy =                       -384.0901643981268307
    Molecular point group: c1
  Basis Set: CC-PVTZ
  Basis Set:
  Basis Set: CC-PVTZ
  Basis Set:
  @DF-RHF Final Energy:  -384.09159699662962
    Total Energy =                       -384.0915969966292778
  Basis Set: CC-PVTZ
  Basis Set:
  Basis Set: CC-PVTZ
  Basis Set:
  @DF-RHF Final Energy:  -384.09208300166989
    Total Energy =                       -384.0920830016694936
  Basis Set: CC-PVTZ
  Basis Set:
  Basis Set: CC-PVTZ
  Basis Set:
  @DF-RHF Final Energy:  -384.09205355412701
    Total Energy =                       -384.0920535541266645
  Basis Set: CC-PVTZ
  Basis Set:
  Basis Set: CC-PVTZ
  Basis Set:
  @DF-RHF Final Energy:  -384.09211211235157
    Total Energy =                       -384.0921121123518560
  Basis Set: CC-PVTZ
  Basis Set:
  Basis Set: CC-PVTZ
  Basis Set:
  @DF-RHF Final Energy:  -384.09215432363078
    Total Energy =                       -384.0921543236312345
  Basis Set: CC-PVTZ
  Basis Set:
  Basis Set: CC-PVTZ
  Basis Set:
  @DF-RHF Final Energy:  -384.09215762804291
    Total Energy =                       -384.0921576280429690
  Basis Set: CC-PVTZ
  Basis Set:
  Charge       = 0
  Multiplicity = 1
  Basis Set: CC-PVTZ
  Basis Set:

    Orbital Energies (a.u.)
    -----------------------

    Doubly Occupied:

       1A    -20.603762     2A    -20.540398     3A    -11.373262
       4A    -11.238377     5A    -11.220004     6A    -11.219109
       7A    -11.218491     8A    -11.211438     9A     -1.477322
      10A     -1.368821    11A     -1.097240    12A     -1.039167
      13A     -0.961631    14A     -0.882240    15A     -0.816552
      16A     -0.765685    17A     -0.703321    18A     -0.693359
      19A     -0.669715    20A     -0.628354    21A     -0.625004
      22A     -0.584925    23A     -0.571520    24A     -0.568106
      25A     -0.533878    26A     -0.513875    27A     -0.506773
      28A     -0.484270    29A     -0.467117    30A     -0.463467
      31A     -0.458616    32A     -0.445543

  @DF-RHF Final Energy:  -384.09215786269226

   => Energetics <=

    Nuclear Repulsion Energy =            383.9173458297035495
    One-Electron Energy =               -1284.1163292447131425
    Two-Electron Energy =                 516.1068255523179005
    DFT Exchange-Correlation Energy =       0.0000000000000000
    Empirical Dispersion Energy =           0.0000000000000000
    PCM Polarization Energy =               0.0000000000000000
    EFP Energy =                            0.0000000000000000
    Total Energy =                       -384.0921578626916926
    Molecular point group: c1
  Basis Set: CC-PVTZ
  Basis Set:

  -Total Gradient:
     Atom            X                  Y                   Z
    ------   -----------------  -----------------  -----------------
       1        0.000011237427    -0.000005316855     0.000003825494
       2        0.000005310939     0.000013869038    -0.000017704404
       3       -0.000020486597     0.000010302075     0.000008431410
       4       -0.000006683700    -0.000014209861    -0.000046240178
       5        0.000013030976    -0.000014144412     0.000013139556
       6       -0.000914573771     0.002500226394    -0.002007535274
       7       -0.000000077469    -0.000008842998     0.000015450230
       8       -0.000000475398     0.000014103654     0.000009454549
       9        0.000466190250    -0.003617949117     0.003626323455
      10        0.000001038067    -0.000001666379     0.000000178284
      11       -0.000008361287     0.000003563114     0.000004308879
      12        0.003887959072     0.001097351928    -0.004456717016
      13        0.000006708254     0.000003298145     0.000000261148
      14        0.000002920062     0.000003484848     0.000001213587
      15        0.000002258129     0.000001761179    -0.000014327088
      16       -0.003454661956     0.000009179936     0.002851257454
      17        0.000002055422     0.000007720088     0.000016112400
      18        0.000000253601     0.000000918604     0.000003434475
      19        0.000008336410     0.000000271158    -0.000010382028
      20       -0.000001978428    -0.000003920542    -0.000000484931

  **** Optimization is complete! (in 8 steps) ****
    Final optimized geometry and variables:
    Molecular point group: c1

    Geometry (in Angstrom), charge = 0, multiplicity = 1:

    H            3.504810807744    -0.973113220893     0.208010300316
    O            2.604812193677    -1.191496393362     0.397878580763
    C            1.862186910578    -0.101426829662     0.225325972369
    C            0.408231501277    -0.366574535783     0.508236290438
    O            2.330147419071     0.930805238046    -0.111691999256
    C           -0.479204599996     0.860146842875     0.337826321671
    H            0.105165907175    -1.180835540031    -0.140225285931
    H            0.346407807591    -0.757259037814     1.519027853546
    C           -1.948508287724     0.597681312477     0.672810642352
    H           -0.382944480386     1.237586190703    -0.671627525264
    H           -0.110024827164     1.647113537340     0.984199167537
    C           -2.695033652888    -0.398327295807    -0.225911306864
    H           -2.464305440351     1.552228793266     0.620938763691
    H           -2.032845986113     0.267772872420     1.704343150525
    C           -2.498443120789    -0.210016212177    -1.726632614013
    H           -2.457725794680    -1.417496770568     0.065681520894
    H           -3.753570314822    -0.294474434155    -0.005384423150
    H           -3.145949641491    -0.879659816192    -2.280431414858
    H           -1.480646812646    -0.411170598224    -2.038283247023
    H           -2.739044897168     0.804409754384    -2.027513010105

  Mulliken Charges: (a.u.)
   Center  Symbol    Alpha    Beta     Spin     Total
       1     H     0.38242  0.38242  0.00000  0.23516
       2     O     4.16034  4.16034  0.00000 -0.32067
       3     C     2.80348  2.80348  0.00000  0.39305
       4     C     3.11238  3.11238  0.00000 -0.22477
       5     O     4.19109  4.19109  0.00000 -0.38217
       6     C     3.10106  3.10106  0.00000 -0.20211
       7     H     0.43702  0.43702  0.00000  0.12596
       8     H     0.43607  0.43607  0.00000  0.12786
       9     C     3.10526  3.10526  0.00000 -0.21051
      10     H     0.44210  0.44210  0.00000  0.11581
      11     H     0.43581  0.43581  0.00000  0.12838
      12     C     3.10054  3.10054  0.00000 -0.20107
      13     H     0.44465  0.44465  0.00000  0.11070
      14     H     0.44842  0.44842  0.00000  0.10316
      15     C     3.15462  3.15462  0.00000 -0.30924
      16     H     0.45070  0.45070  0.00000  0.09861
      17     H     0.44488  0.44488  0.00000  0.11023
      18     H     0.44410  0.44410  0.00000  0.11181
      19     H     0.45404  0.45404  0.00000  0.09193
      20     H     0.45105  0.45105  0.00000  0.09789

   Total alpha = 32.00000, Total beta = 32.00000, Total charge =  0.00000
