                              Psi4 1.0.54 Driver

  ==> Input File <==

--------------------------------------------------------------------------
set {
	reference rhf
	basis cc-pvtz
}

set_num_threads( 4 )
memory 2 gb

molecule MOL {
0 1

H	 1.559327	 2.375933	 -2.917368
O	 2.446413	 2.068282	 -2.933456
C	 2.989651	 2.084704	 -1.639665
C	 2.435364	 0.994048	 -0.735275
H	 4.054843	 1.944351	 -1.764760
H	 2.845157	 3.060457	 -1.179798
C	 0.949377	 1.139746	 -0.415174
H	 2.615837	 0.031505	 -1.204419
H	 3.005559	 1.005944	 0.190540
C	 0.436403	 0.046423	 0.520956
H	 0.380142	 1.121164	 -1.338553
H	 0.773042	 2.112074	 0.041739
C	 -1.029816	 0.185324	 0.934673
H	 0.586869	 -0.923507	 0.053170
H	 1.047859	 0.046372	 1.419059
C	 -2.041121	 -0.006551	 -0.194127
H	 -1.235754	 -0.546542	 1.710875
H	 -1.182368	 1.160272	 1.392230
C	 -3.489218	 0.042606	 0.286507
H	 -1.858116	 -0.962617	 -0.679838
H	 -1.899351	 0.753879	 -0.956131
C	 -4.219984	 1.311773	 -0.139038
H	 -4.022855	 -0.824300	 -0.093339
H	 -3.510372	 -0.038577	 1.370031
H	 -4.244251	 1.405725	 -1.219696
H	 -5.244345	 1.313233	 0.215630
H	 -3.732090	 2.196311	 0.257073

	symmetry c1
}
set optking {
	frozen_dihedral = ("
		20 16 19 22
	")
}

ee,wfn = optimize('scf', return_wfn=True)
oeprop( wfn, 'DIPOLE', 'QUADRUPOLE', 'MULLIKEN_CHARGES')
f=open( 'psi4out.xyz', 'w' )
f.write( "27  " )
f.write( str(ee) + "\n" )
f.write( MOL.save_string_xyz() )
f.close()
--------------------------------------------------------------------------

    Molecular point group: c1
  Charge       = 0
  Multiplicity = 1
  Basis Set: CC-PVTZ
  Basis Set:
  @DF-RHF Final Energy:  -388.42226361262038
    Total Energy =                       -388.4222636126205543
    Molecular point group: c1
  Basis Set: CC-PVTZ
  Basis Set:
  Basis Set: CC-PVTZ
  Basis Set:
  @DF-RHF Final Energy:  -388.42196548854344
    Total Energy =                       -388.4219654885437194
  Basis Set: CC-PVTZ
  Basis Set:
  Basis Set: CC-PVTZ
  Basis Set:
  @DF-RHF Final Energy:  -388.42260087735150
    Total Energy =                       -388.4226008773515559
  Basis Set: CC-PVTZ
  Basis Set:
  Basis Set: CC-PVTZ
  Basis Set:
  @DF-RHF Final Energy:  -388.42261454826848
    Total Energy =                       -388.4226145482683705
  Basis Set: CC-PVTZ
  Basis Set:
  Basis Set: CC-PVTZ
  Basis Set:
  @DF-RHF Final Energy:  -388.42261685394749
    Total Energy =                       -388.4226168539476021
  Basis Set: CC-PVTZ
  Basis Set:
  Basis Set: CC-PVTZ
  Basis Set:
  @DF-RHF Final Energy:  -388.42262817860029
    Total Energy =                       -388.4226281786006894
  Basis Set: CC-PVTZ
  Basis Set:
  Charge       = 0
  Multiplicity = 1
  Basis Set: CC-PVTZ
  Basis Set:

    Orbital Energies (a.u.)
    -----------------------

    Doubly Occupied:

       1A    -20.545375     2A    -11.264996     3A    -11.216794
       4A    -11.214661     5A    -11.213803     6A    -11.213672
       7A    -11.213259     8A    -11.211570     9A    -11.208090
      10A     -1.363283    11A     -1.095453    12A     -1.061108
      13A     -1.011860    14A     -0.948929    15A     -0.889430
      16A     -0.823630    17A     -0.801786    18A     -0.777031
      19A     -0.696376    20A     -0.649954    21A     -0.625489
      22A     -0.616743    23A     -0.615136    24A     -0.588669
      25A     -0.580890    26A     -0.553020    27A     -0.535149
      28A     -0.533028    29A     -0.509836    30A     -0.491590
      31A     -0.489309    32A     -0.475540    33A     -0.470752
      34A     -0.454301    35A     -0.451965    36A     -0.441854
      37A     -0.425459

  @DF-RHF Final Energy:  -388.42262838551699

   => Energetics <=

    Nuclear Repulsion Energy =            462.4171709509188304
    One-Electron Energy =               -1443.1200189786809460
    Two-Electron Energy =                 592.2802196422451289
    DFT Exchange-Correlation Energy =       0.0000000000000000
    Empirical Dispersion Energy =           0.0000000000000000
    PCM Polarization Energy =               0.0000000000000000
    EFP Energy =                            0.0000000000000000
    Total Energy =                       -388.4226283855169868
    Molecular point group: c1
  Basis Set: CC-PVTZ
  Basis Set:

  -Total Gradient:
     Atom            X                  Y                   Z
    ------   -----------------  -----------------  -----------------
       1        0.000006820707    -0.000006146852     0.000013774831
       2       -0.000003109707    -0.000002413259     0.000017925912
       3        0.000008957478    -0.000020138485     0.000002035210
       4       -0.000004686584     0.000001818284    -0.000026146663
       5       -0.000007741401     0.000001427892    -0.000007343035
       6       -0.000009112372    -0.000012268874    -0.000008555943
       7       -0.000007704844     0.000009642927     0.000025358673
       8        0.000010905503     0.000004338657     0.000001905091
       9       -0.000007374621     0.000015475848    -0.000011035547
      10        0.000015639239    -0.000010850571     0.000001352149
      11        0.000003696890     0.000004005460     0.000004646081
      12       -0.000001537317    -0.000004260358     0.000006596895
      13        0.000005815775     0.000003117838    -0.000027673784
      14        0.000008852901     0.000003355205     0.000009043359
      15       -0.000002027302     0.000012698965    -0.000011486646
      16        0.000443742167    -0.001604157086     0.001923584444
      17       -0.000007585381     0.000012264122    -0.000032387989
      18       -0.000006734731    -0.000019669422    -0.000015631596
      19        0.000593751469     0.001197085912     0.001588859867
      20       -0.000482029742     0.001095162946    -0.002007003747
      21        0.000030198191    -0.000018322546     0.000023180282
      22       -0.000555373510    -0.000681156094    -0.001468093682
      23       -0.000015821916     0.000031482421     0.000005588606
      24       -0.000027506789     0.000013648204    -0.000006888234
      25        0.000000097689    -0.000010270404     0.000013475326
      26        0.000011970706     0.000020202635    -0.000006162943
      27       -0.000002102495    -0.000036073363    -0.000008916917

  **** Optimization is complete! (in 7 steps) ****
    Final optimized geometry and variables:
    Molecular point group: c1

    Geometry (in Angstrom), charge = 0, multiplicity = 1:

    H            1.789654624551     1.658304607358    -2.179368663920
    O            2.667023762772     1.325684793286    -2.213271707880
    C            3.184533484060     1.187490913190    -0.916290532916
    C            2.581692768302     0.023846010143    -0.143736148091
    H            4.247646356278     1.029361222514    -1.037619129547
    H            3.058188016287     2.112450935996    -0.357008897395
    C            1.092850036050     0.176343250413     0.159259505326
    H            2.748455188501    -0.888622408740    -0.708182108140
    H            3.130357101890    -0.077437657185     0.789554313886
    C            0.532032678538    -0.991254481796     0.969922201298
    H            0.544921502182     0.266754167125    -0.772580592454
    H            0.930450291078     1.101918356607     0.708806020920
    C           -0.938936813291    -0.856626311193     1.367011515165
    H            0.669340953039    -1.913447879951     0.410468305297
    H            1.123419643994    -1.096793293681     1.875183362153
    C           -1.932347903766    -0.931692998961     0.208180173019
    H           -1.176426869363    -1.646944775872     2.073271367387
    H           -1.082401004233     0.079007827066     1.903538547293
    C           -3.403382408139    -0.803692343914     0.651672118017
    H           -1.786607989306    -1.862685394647    -0.331038766515
    H           -1.715337944648    -0.147715694555    -0.509608313500
    C           -4.035164360786     0.537104666130     0.287512394637
    H           -3.991254816152    -1.594368591530     0.197916243251
    H           -3.476889644806    -0.956565137692     1.723668937297
    H           -4.046787043561     0.680270624729    -0.787591996072
    H           -5.057977278998     0.600085089285     0.641553599758
    H           -3.483624604021     1.364100974442     0.723602193674

  Mulliken Charges: (a.u.)
   Center  Symbol    Alpha    Beta     Spin     Total
       1     H     0.39223  0.39223  0.00000  0.21554
       2     O     4.20548  4.20548  0.00000 -0.41096
       3     C     2.98009  2.98009  0.00000  0.03981
       4     C     3.08899  3.08899  0.00000 -0.17797
       5     H     0.44856  0.44856  0.00000  0.10288
       6     H     0.46962  0.46962  0.00000  0.06076
       7     C     3.10277  3.10277  0.00000 -0.20555
       8     H     0.45075  0.45075  0.00000  0.09850
       9     H     0.45523  0.45523  0.00000  0.08953
      10     C     3.09906  3.09906  0.00000 -0.19813
      11     H     0.45595  0.45595  0.00000  0.08811
      12     H     0.45368  0.45368  0.00000  0.09265
      13     C     3.09789  3.09789  0.00000 -0.19577
      14     H     0.45174  0.45174  0.00000  0.09652
      15     H     0.44800  0.44800  0.00000  0.10400
      16     C     3.09738  3.09738  0.00000 -0.19477
      17     H     0.44694  0.44694  0.00000  0.10612
      18     H     0.45344  0.45344  0.00000  0.09312
      19     C     3.08759  3.08759  0.00000 -0.17518
      20     H     0.44752  0.44752  0.00000  0.10496
      21     H     0.45533  0.45533  0.00000  0.08934
      22     C     3.14922  3.14922  0.00000 -0.29845
      23     H     0.44876  0.44876  0.00000  0.10248
      24     H     0.45483  0.45483  0.00000  0.09034
      25     H     0.45483  0.45483  0.00000  0.09033
      26     H     0.44838  0.44838  0.00000  0.10325
      27     H     0.45573  0.45573  0.00000  0.08855

   Total alpha = 37.00000, Total beta = 37.00000, Total charge =  0.00000

*** Psi4 exiting successfully. Buy a developer a beer!
