                              Psi4 1.0.54 Driver

  ==> Input File <==

--------------------------------------------------------------------------
set {
	reference rhf
	basis cc-pvtz
}

set_num_threads( 4 )
memory 2 gb

molecule MOL {
0 1

H	 2.538367	 -0.745903	 -0.776426
O	 2.012307	 -0.863440	 0.000222
C	 1.050374	 0.054877	 0.000135
C	 -0.318151	 -0.570512	 0.000144
O	 1.286319	 1.213453	 -0.000040
C	 -1.454884	 0.441630	 -0.000560
H	 -0.371613	 -1.223646	 -0.864985
H	 -0.371920	 -1.222758	 0.865929
C	 -2.822577	 -0.232186	 0.000063
H	 -1.359760	 1.084704	 -0.867077
H	 -1.359641	 1.085996	 0.864983
H	 -2.954352	 -0.858985	 -0.875745
H	 -3.615886	 0.505352	 0.000019
H	 -2.953878	 -0.858359	 0.876394

	symmetry c1
}
set optking {
	frozen_dihedral = ("
		1 2 3 5
	")
}

ee,wfn = optimize('scf', return_wfn=True)
oeprop( wfn, 'DIPOLE', 'QUADRUPOLE', 'MULLIKEN_CHARGES')
f=open( 'psi4out.xyz', 'w' )
f.write( "14  " )
f.write( str(ee) + "\n" )
f.write( MOL.save_string_xyz() )
f.close()
--------------------------------------------------------------------------

    Molecular point group: c1
  Charge       = 0
  Multiplicity = 1
  Basis Set: CC-PVTZ
  Basis Set:
  @DF-RHF Final Energy:  -305.98580902183687
    Total Energy =                       -305.9858090218368147
    Molecular point group: c1
  Basis Set: CC-PVTZ
  Basis Set:
  Basis Set: CC-PVTZ
  Basis Set:
  @DF-RHF Final Energy:  -305.98389227339959
    Total Energy =                       -305.9838922733997606
  Basis Set: CC-PVTZ
  Basis Set:
  Basis Set: CC-PVTZ
  Basis Set:
  @DF-RHF Final Energy:  -305.98698047136509
    Total Energy =                       -305.9869804713650865
  Basis Set: CC-PVTZ
  Basis Set:
  Basis Set: CC-PVTZ
  Basis Set:
  @DF-RHF Final Energy:  -305.98713627427179
    Total Energy =                       -305.9871362742716769
  Basis Set: CC-PVTZ
  Basis Set:
  Basis Set: CC-PVTZ
  Basis Set:
  @DF-RHF Final Energy:  -305.98714352256360
    Total Energy =                       -305.9871435225634855
  Basis Set: CC-PVTZ
  Basis Set:
  Basis Set: CC-PVTZ
  Basis Set:
  @DF-RHF Final Energy:  -305.98714510520801
    Total Energy =                       -305.9871451052081284
  Basis Set: CC-PVTZ
  Basis Set:
  Charge       = 0
  Multiplicity = 1
  Basis Set: CC-PVTZ
  Basis Set:

    Orbital Energies (a.u.)
    -----------------------

    Doubly Occupied:

       1A    -20.591503     2A    -20.548205     3A    -11.374543
       4A    -11.239945     5A    -11.224093     6A    -11.215914
       7A     -1.467044     8A     -1.370799     9A     -1.083866
      10A     -0.978753    11A     -0.855768    12A     -0.795562
      13A     -0.709383    14A     -0.684327    15A     -0.665585
      16A     -0.629668    17A     -0.579665    18A     -0.565534
      19A     -0.546283    20A     -0.507866    21A     -0.496574
      22A     -0.484112    23A     -0.483276    24A     -0.447496

  @DF-RHF Final Energy:  -305.98714504074189

   => Energetics <=

    Nuclear Repulsion Energy =            239.8542103462258126
    One-Electron Energy =                -892.5911820241556143
    Two-Electron Energy =                 346.7498266371879936
    DFT Exchange-Correlation Energy =       0.0000000000000000
    Empirical Dispersion Energy =           0.0000000000000000
    PCM Polarization Energy =               0.0000000000000000
    EFP Energy =                            0.0000000000000000
    Total Energy =                       -305.9871450407417797
    Molecular point group: c1
  Basis Set: CC-PVTZ
  Basis Set:

  -Total Gradient:
     Atom            X                  Y                   Z
    ------   -----------------  -----------------  -----------------
       1       -0.005549948664    -0.006611986618    -0.005493226971
       2        0.006162177799     0.008494420190     0.011031993488
       3        0.000539255417    -0.002269797020    -0.014514738862
       4       -0.000097935149    -0.000066511965    -0.000042663531
       5       -0.001022018182     0.000518670957     0.008982922438
       6       -0.000055813070    -0.000037788517    -0.000003389387
       7       -0.000010572082    -0.000012381355     0.000022854963
       8        0.000017627169    -0.000007460993     0.000014967936
       9        0.000006834341    -0.000003147989     0.000003650843
      10        0.000003750598    -0.000001457169     0.000001841690
      11        0.000001284282    -0.000004189434    -0.000005154805
      12        0.000000017124     0.000000478138     0.000000240248
      13        0.000008149890     0.000004727780     0.000000641117
      14       -0.000002809473    -0.000003576001     0.000000060834

  **** Optimization is complete! (in 7 steps) ****
    Final optimized geometry and variables:
    Molecular point group: c1

    Geometry (in Angstrom), charge = 0, multiplicity = 1:

    H            2.653247851837    -0.823944612493    -0.563878062816
    O            2.023357658621    -0.874078814372     0.136590941963
    C            1.053859241758     0.055963394811    -0.013504987924
    C           -0.320200566092    -0.557013657842    -0.014724018125
    O            1.289361152194     1.208467508558    -0.040870753704
    C           -1.455566683190     0.455832051354    -0.020762371947
    H           -0.374590761272    -1.215507275927    -0.877161550205
    H           -0.373775303447    -1.209388302167     0.851176389430
    C           -2.824770351268    -0.215033575233    -0.020196415294
    H           -1.358286860558     1.096964048345    -0.888638295669
    H           -1.360390489526     1.102236784531     0.843485134694
    H           -2.956537722261    -0.844289767918    -0.894338817781
    H           -3.616682738493     0.523995465012    -0.023755503776
    H           -2.958543870419    -0.838284134659     0.857769057717

  Mulliken Charges: (a.u.)
   Center  Symbol    Alpha    Beta     Spin     Total
       1     H     0.38255  0.38255  0.00000  0.23491
       2     O     4.17505  4.17505  0.00000 -0.35011
       3     C     2.80396  2.80396  0.00000  0.39207
       4     C     3.10568  3.10568  0.00000 -0.21135
       5     O     4.17056  4.17056  0.00000 -0.34111
       6     C     3.08093  3.08093  0.00000 -0.16186
       7     H     0.44499  0.44499  0.00000  0.11002
       8     H     0.43781  0.43781  0.00000  0.12438
       9     C     3.14995  3.14995  0.00000 -0.29990
      10     H     0.44675  0.44675  0.00000  0.10650
      11     H     0.44569  0.44569  0.00000  0.10862
      12     H     0.45599  0.45599  0.00000  0.08802
      13     H     0.44507  0.44507  0.00000  0.10987
      14     H     0.45503  0.45503  0.00000  0.08994

   Total alpha = 24.00000, Total beta = 24.00000, Total charge = -0.00000

*** Psi4 exiting successfully. Buy a developer a beer!
