  ==> Input File <==

--------------------------------------------------------------------------
set {
	reference rhf
	basis cc-pvtz
}

set_num_threads( 4 )
memory 2 gb

molecule MOL {
0 1

H	 -3.110265	 0.719155	 -0.884094
C	 -2.335199	 0.091912	 -1.318517
O	 -1.401606	 -0.295183	 -0.366624
H	 -2.793435	 -0.802334	 -1.715044
H	 -1.869351	 0.638117	 -2.136766
C	 -0.718530	 0.758693	 0.228682
C	 0.718529	 0.758687	 -0.228709
H	 -1.176498	 1.708665	 -0.046615
H	 -0.748705	 0.673525	 1.312779
O	 1.401606	 -0.295166	 0.366636
H	 0.748705	 0.673477	 -1.312803
H	 1.176496	 1.708671	 0.046552
C	 2.714315	 -0.441627	 -0.061017
H	 2.765292	 -0.641548	 -1.128869
H	 3.305661	 0.447341	 0.150952
H	 3.143725	 -1.278506	 0.470147

	symmetry c1
}
set optking {
	frozen_dihedral = ("
		2 3 6 7
	")
}

ee = optimize('scf')
oeprop('DIPOLE', 'QUADRUPOLE', 'MULLIKEN_CHARGES')
f=open( 'psi4out.xyz', 'w' )
f.write( "16  " )
f.write( str(ee) + "\n" )
f.write( MOL.save_string_xyz() )
f.close()
--------------------------------------------------------------------------

    Molecular point group: c1
  Charge       = 0
  Multiplicity = 1
  Basis Set: CC-PVTZ
  Basis Set:
  @DF-RHF Final Energy:  -307.09312039419842
    Total Energy =                       -307.0931203941981380
    Molecular point group: c1
  Basis Set: CC-PVTZ
  Basis Set:
  Basis Set: CC-PVTZ
  Basis Set:
  @DF-RHF Final Energy:  -307.09374674558705
    Total Energy =                       -307.0937467455871683
  Basis Set: CC-PVTZ
  Basis Set:
  Basis Set: CC-PVTZ
  Basis Set:
  @DF-RHF Final Energy:  -307.09387106148029
    Total Energy =                       -307.0938710614807405
  Basis Set: CC-PVTZ
  Basis Set:
  Basis Set: CC-PVTZ
  Basis Set:
  @DF-RHF Final Energy:  -307.09387295418321
    Total Energy =                       -307.0938729541832117
  Basis Set: CC-PVTZ
  Basis Set:
  Charge       = 0
  Multiplicity = 1
  Basis Set: CC-PVTZ
  Basis Set:

    Orbital Energies (a.u.)
    -----------------------

    Doubly Occupied:

       1A    -20.548334     2A    -20.545341     3A    -11.267813
       4A    -11.266974     5A    -11.263673     6A    -11.262188
       7A     -1.390286     8A     -1.372709     9A     -1.030174
      10A     -0.940535    11A     -0.896431    12A     -0.821283
      13A     -0.687979    14A     -0.679104    15A     -0.660334
      16A     -0.640178    17A     -0.624628    18A     -0.605636
      19A     -0.557740    20A     -0.526253    21A     -0.513347
      22A     -0.483018    23A     -0.470610    24A     -0.418943
      25A     -0.410101

  @DF-RHF Final Energy:  -307.09387316580109

   => Energetics <=

    Nuclear Repulsion Energy =            259.4566288553599520
    One-Electron Energy =                -933.3337763188144436
    Two-Electron Energy =                 366.7832742976533495
    DFT Exchange-Correlation Energy =       0.0000000000000000
    Empirical Dispersion Energy =           0.0000000000000000
    PCM Polarization Energy =               0.0000000000000000
    EFP Energy =                            0.0000000000000000
    Total Energy =                       -307.0938731658011989
    Molecular point group: c1
  Basis Set: CC-PVTZ
  Basis Set:

  -Total Gradient:
     Atom            X                  Y                   Z
    ------   -----------------  -----------------  -----------------
       1       -0.000001569041     0.000000515947    -0.000004075043
       2       -0.000574817384     0.000088970775     0.000580296390
       3        0.000893110463    -0.000299123945    -0.000599344852
       4        0.000005316624     0.000002385146     0.000003767329
       5        0.000000670467    -0.000001087300     0.000001823851
       6       -0.000496731006     0.000619166343    -0.000546572482
       7        0.000140862587    -0.000380430073     0.000541598145
       8       -0.000000215406     0.000000377978    -0.000004329296
       9        0.000005352883    -0.000001826260     0.000001479526
      10        0.000004891460    -0.000007123497     0.000008511123
      11        0.000005222684    -0.000005951599     0.000010768401
      12        0.000012710595    -0.000013545145     0.000003474973
      13        0.000002961778    -0.000001040676     0.000000542528
      14       -0.000003749162     0.000001048129     0.000002096594
      15        0.000001305015    -0.000001033598    -0.000000810404
      16        0.000004677440    -0.000001302224     0.000000773216

  **** Optimization is complete! (in 5 steps) ****
    Final optimized geometry and variables:
    Molecular point group: c1

    Geometry (in Angstrom), charge = 0, multiplicity = 1:

    H           -3.203912432750     0.615477491581    -0.656105017073
    C           -2.428146524174    -0.024608850662    -1.070013206577
    O           -1.487009413861    -0.374137821527    -0.109276717690
    H           -2.885803151664    -0.936040003767    -1.426511249742
    H           -1.975274529952     0.487519542056    -1.916506258142
    C           -0.770921500147     0.681780613108     0.456944580306
    C            0.677634315720     0.684231129505     0.022113345753
    H           -1.217190904178     1.637482664533     0.195025555894
    H           -0.810959163070     0.579537442638     1.534909449048
    O            1.334183758265    -0.401907957692     0.585975011507
    H            0.735651628757     0.644104425783    -1.064893174173
    H            1.143216144017     1.616494719175     0.344849872732
    C            2.655440652101    -0.546888896417     0.185449707889
    H            2.731457396412    -0.701451648148    -0.888608204546
    H            3.251620962479     0.324484653643     0.450185481176
    H            3.061050388427    -1.411341640358     0.690391074111

  Mulliken Charges: (a.u.)
   Center  Symbol    Alpha    Beta     Spin     Total
       1     H     0.46990  0.46990  0.00000  0.06020
       2     C     3.03028  3.03028  0.00000 -0.06056
       3     O     4.17565  4.17565  0.00000 -0.35129
       4     H     0.44817  0.44817  0.00000  0.10366
       5     H     0.47434  0.47434  0.00000  0.05131
       6     C     2.97199  2.97199  0.00000  0.05602
       7     C     2.95941  2.95941  0.00000  0.08119
       8     H     0.47306  0.47306  0.00000  0.05389
       9     H     0.45397  0.45397  0.00000  0.09205
      10     O     4.16811  4.16811  0.00000 -0.33623
      11     H     0.47656  0.47656  0.00000  0.04688
      12     H     0.47630  0.47630  0.00000  0.04739
      13     C     3.03157  3.03157  0.00000 -0.06315
      14     H     0.47124  0.47124  0.00000  0.05752
      15     H     0.47339  0.47339  0.00000  0.05321
      16     H     0.44605  0.44605  0.00000  0.10789

   Total alpha = 25.00000, Total beta = 25.00000, Total charge = -0.00000
