  ==> Input File <==

--------------------------------------------------------------------------
set {
	reference rhf
	basis cc-pvtz
}

set_num_threads( 4 )
memory 2 gb

molecule MOL {
0 1

H	 -1.061670	 0.067700	 -1.838185
C	 -0.604076	 -0.484935	 -1.045889
C	 -0.600274	 -1.865035	 -1.039338
C	 0.000000	 0.179985	 0.000046
H	 -1.064751	 -2.400763	 -1.843560
C	 0.000003	 -2.552036	 -0.000012
N	 0.000000	 1.644631	 0.000076
C	 0.604074	 -0.484978	 1.045954
H	 0.000000	 -3.625035	 -0.000032
C	 0.600276	 -1.865078	 1.039345
O	 1.050559	 2.194174	 -0.000073
O	 -1.050559	 2.194174	 -0.000074
H	 1.061677	 0.067625	 1.838269
H	 1.064749	 -2.400838	 1.843547

	symmetry c1
}
set optking {
	frozen_dihedral = ("
		2 4 7 11
	")
}

ee = optimize('scf')
oeprop('DIPOLE', 'QUADRUPOLE', 'MULLIKEN_CHARGES')
f=open( 'psi4out.xyz', 'w' )
f.write( "14  " )
f.write( str(ee) + "\n" )
f.write( MOL.save_string_xyz() )
f.close()
--------------------------------------------------------------------------

    Molecular point group: c1
  Charge       = 0
  Multiplicity = 1
  Basis Set: CC-PVTZ
  Basis Set:
  @DF-RHF Final Energy:  -434.32292937627398
    Total Energy =                       -434.3229293762740326
    Molecular point group: c1
  Basis Set: CC-PVTZ
  Basis Set:
  Basis Set: CC-PVTZ
  Basis Set:
  @DF-RHF Final Energy:  -434.31702583271226
    Total Energy =                       -434.3170258327122610
  Basis Set: CC-PVTZ
  Basis Set:
  Basis Set: CC-PVTZ
  Basis Set:
  @DF-RHF Final Energy:  -434.32316588217799
    Total Energy =                       -434.3231658821781593
  Basis Set: CC-PVTZ
  Basis Set:
  Basis Set: CC-PVTZ
  Basis Set:
  @DF-RHF Final Energy:  -434.32343785902543
    Total Energy =                       -434.3234378590257165
  Basis Set: CC-PVTZ
  Basis Set:
  Basis Set: CC-PVTZ
  Basis Set:
  @DF-RHF Final Energy:  -434.32344041752498
    Total Energy =                       -434.3234404175250347
  Basis Set: CC-PVTZ
  Basis Set:
  Charge       = 0
  Multiplicity = 1
  Basis Set: CC-PVTZ
  Basis Set:

    Orbital Energies (a.u.)
    -----------------------

    Doubly Occupied:

       1A    -20.596567     2A    -20.596273     3A    -15.847788
       4A    -11.306323     5A    -11.267834     6A    -11.267616
       7A    -11.261153     8A    -11.260054     9A    -11.259296
      10A     -1.643963    11A     -1.427040    12A     -1.206344
      13A     -1.096835    14A     -1.056672    15A     -0.959399
      16A     -0.873328    17A     -0.830657    18A     -0.786595
      19A     -0.740478    20A     -0.737101    21A     -0.716953
      22A     -0.654025    23A     -0.650943    24A     -0.626075
      25A     -0.560488    26A     -0.549957    27A     -0.533632
      28A     -0.498574    29A     -0.487827    30A     -0.457855
      31A     -0.373122    32A     -0.370436

  @DF-RHF Final Energy:  -434.32344102239927

   => Energetics <=

    Nuclear Repulsion Energy =            417.7267900376098169
    One-Electron Energy =               -1419.0980616394922436
    Two-Electron Energy =                 567.0478305794833886
    DFT Exchange-Correlation Energy =       0.0000000000000000
    Empirical Dispersion Energy =           0.0000000000000000
    PCM Polarization Energy =               0.0000000000000000
    EFP Energy =                            0.0000000000000000
    Total Energy =                       -434.3234410223990380
    Molecular point group: c1
  Basis Set: CC-PVTZ
  Basis Set:

  -Total Gradient:
     Atom            X                  Y                   Z
    ------   -----------------  -----------------  -----------------
       1       -0.000011275793     0.000015631749    -0.000025114956
       2        0.004072450167    -0.000107734272    -0.002148136242
       3        0.000069587103     0.000022301330    -0.000018383048
       4       -0.005725920931     0.000101926731     0.001101476441
       5       -0.000005281109     0.000003436889     0.000006123317
       6       -0.000005514515    -0.000003434354     0.000020964494
       7        0.001582776243     0.000069702505     0.006568724119
       8       -0.000088471295     0.000026397209    -0.000022477114
       9        0.000000770698    -0.000000798794    -0.000001911341
      10       -0.000057445579     0.000002289405    -0.000003086718
      11        0.000192595485    -0.000116143119    -0.005481868177
      12       -0.000043366544    -0.000035908956    -0.000017782387
      13        0.000012523354     0.000016295122     0.000026735787
      14        0.000006572714     0.000006038555    -0.000005264177

  **** Optimization is complete! (in 6 steps) ****
    Final optimized geometry and variables:
    Molecular point group: c1

    Geometry (in Angstrom), charge = 0, multiplicity = 1:

    H           -1.095637099139     0.079602279082    -1.812462242751
    C           -0.622471468833    -0.475531886427    -1.027919546113
    C           -0.595341981565    -1.856445451620    -1.037221347185
    C           -0.030455926791     0.179101182230     0.026048443135
    H           -1.044297545451    -2.390255232068    -1.851606386106
    C            0.005900322126    -2.545997321718    -0.000758555256
    N            0.000682102047     1.641669705096     0.005438995086
    C            0.603478629623    -0.480151118827     1.052722539026
    H            0.016391780007    -3.618621791743    -0.009185738858
    C            0.599532179665    -1.860926677906     1.043535161442
    O            1.066245792966     2.159697864989     0.024940198655
    O           -1.039166179610     2.204912630772    -0.072372891502
    H            1.083670551838     0.071854682169     1.835281141482
    H            1.069253722554    -2.398555968213     1.843568325386

  Mulliken Charges: (a.u.)
   Center  Symbol    Alpha    Beta     Spin     Total
       1     H     0.40960  0.40960  0.00000  0.18081
       2     C     3.08731  3.08731  0.00000 -0.17461
       3     C     3.06691  3.06691  0.00000 -0.13381
       4     C     2.93037  2.93037  0.00000  0.13925
       5     H     0.41729  0.41729  0.00000  0.16543
       6     C     3.07297  3.07297  0.00000 -0.14594
       7     N     3.28352  3.28352  0.00000  0.43296
       8     C     3.08657  3.08657  0.00000 -0.17313
       9     H     0.41772  0.41772  0.00000  0.16455
      10     C     3.06630  3.06630  0.00000 -0.13259
      11     O     4.16546  4.16546  0.00000 -0.33093
      12     O     4.16752  4.16752  0.00000 -0.33504
      13     H     0.41116  0.41116  0.00000  0.17768
      14     H     0.41731  0.41731  0.00000  0.16537

   Total alpha = 32.00000, Total beta = 32.00000, Total charge = -0.00000
