  ==> Input File <==

--------------------------------------------------------------------------
set {
	reference rhf
	basis 6-31G*
}

set_num_threads( 1 )
memory 2 gb

molecule MOL {
0 1

O	 2.425290	 0.097028	 -1.747448
C	 2.236558	 -0.447032	 -0.707525
C	 1.245376	 -0.013843	 0.345420
O	 2.893013	 -1.536678	 -0.328882
C	 0.455112	 1.231400	 -0.050772
H	 0.597367	 -0.861890	 0.540591
H	 1.802022	 0.152046	 1.264290
C	 -0.998893	 1.219485	 0.433193
H	 0.482531	 1.345121	 -1.130325
H	 0.957290	 2.103070	 0.354729
C	 -1.883438	 0.145884	 -0.207175
H	 -1.431207	 2.195402	 0.224832
H	 -1.019646	 1.105716	 1.516076
C	 -3.347647	 0.245583	 0.225435
H	 -1.822183	 0.231698	 -1.291012
H	 -1.510341	 -0.844814	 0.042401
C	 -4.239992	 -0.825570	 -0.404234
H	 -3.732888	 1.230466	 -0.033079
H	 -3.408585	 0.170602	 1.310038
C	 -5.701275	 -0.716658	 0.029921
H	 -4.179496	 -0.752714	 -1.488058
H	 -3.859041	 -1.810759	 -0.143352
H	 -6.308102	 -1.488908	 -0.432678
H	 -6.122175	 0.245478	 -0.248167
H	 -5.799072	 -0.820114	 1.106957
C	 3.858711	 -2.050038	 -1.228201
H	 3.397007	 -2.324441	 -2.165771
H	 4.275794	 -2.921330	 -0.747683
H	 4.632043	 -1.318584	 -1.413862

	symmetry c1
}
set optking {
	frozen_dihedral = ("
		21 17 14 11,
		17 14 11 15,
		15 11 8 5,
		11 8 5 9,
		2 4 26 27,
		1 2 4 26,
		6 3 2 1
	")
}

ee = energy('scf')
oeprop('DIPOLE', 'QUADRUPOLE', 'MULLIKEN_CHARGES')
f=open( 'psi4out.xyz', 'w' )
f.write( "29  " )
f.write( str(ee) + "\n" )
f.write( MOL.save_string_xyz() )
f.close()
--------------------------------------------------------------------------

    Molecular point group: c1

    Geometry (in Angstrom), charge = 0, multiplicity = 1:

       Center              X                  Y                   Z               Mass
    ------------   -----------------  -----------------  -----------------  -----------------
           O          2.669828835315     0.362344319190    -1.401320073753    15.994914619560
           C          2.481096835315    -0.181715680810    -0.361397073753    12.000000000000
           C          1.489914835315     0.251473319190     0.691547926247    12.000000000000
           O          3.137551835315    -1.271361680810     0.017245926247    15.994914619560
           C          0.699650835315     1.496716319190     0.295355926247    12.000000000000
           H          0.841905835315    -0.596573680810     0.886718926247     1.007825032070
           H          2.046560835315     0.417362319190     1.610417926247     1.007825032070
           C         -0.754354164685     1.484801319190     0.779320926247    12.000000000000
           H          0.727069835315     1.610437319190    -0.784197073753     1.007825032070
           H          1.201828835315     2.368386319190     0.700856926247     1.007825032070
           C         -1.638899164685     0.411200319190     0.138952926247    12.000000000000
           H         -1.186668164685     2.460718319190     0.570959926247     1.007825032070
           H         -0.775107164685     1.371032319190     1.862203926247     1.007825032070
           C         -3.103108164685     0.510899319190     0.571562926247    12.000000000000
           H         -1.577644164685     0.497014319190    -0.944884073753     1.007825032070
           H         -1.265802164685    -0.579497680810     0.388528926247     1.007825032070
           C         -3.995453164685    -0.560253680810    -0.058106073753    12.000000000000
           H         -3.488349164685     1.495782319190     0.313048926247     1.007825032070
           H         -3.164046164685     0.435918319190     1.656165926247     1.007825032070
           C         -5.456736164685    -0.451341680810     0.376048926247    12.000000000000
           H         -3.934957164685    -0.487397680810    -1.141930073753     1.007825032070
           H         -3.614502164685    -1.545442680810     0.202775926247     1.007825032070
           H         -6.063563164685    -1.223591680810    -0.086550073753     1.007825032070
           H         -5.877636164685     0.510794319190     0.097960926247     1.007825032070
           H         -5.554533164685    -0.554797680810     1.453084926247     1.007825032070
           C          4.103249835315    -1.784721680810    -0.882073073753    12.000000000000
           H          3.641545835315    -2.059124680810    -1.819643073753     1.007825032070
           H          4.520332835315    -2.656013680810    -0.401555073753     1.007825032070
           H          4.876581835315    -1.053267680810    -1.067734073753     1.007825032070

  Charge       = 0
  Multiplicity = 1
  Basis Set: 6-31G*
  Basis Set:

    Orbital Energies (a.u.)
    -----------------------

    Doubly Occupied:

       1A    -20.603637     2A    -20.545593     3A    -11.372227
       4A    -11.280762     5A    -11.233526     6A    -11.216742
       7A    -11.215938     8A    -11.215062     9A    -11.214832
      10A    -11.213678    11A    -11.208416    12A     -1.469359
      13A     -1.363051    14A     -1.097280    15A     -1.065993
      16A     -1.018660    17A     -0.976940    18A     -0.927916
      19A     -0.861399    20A     -0.798767    21A     -0.789221
      22A     -0.763146    23A     -0.702544    24A     -0.681979
      25A     -0.672856    26A     -0.649102    27A     -0.627911
      28A     -0.606832    29A     -0.594074    30A     -0.579967
      31A     -0.565989    32A     -0.547087    33A     -0.536275
      34A     -0.529378    35A     -0.516641    36A     -0.505829
      37A     -0.493533    38A     -0.477184    39A     -0.468353
      40A     -0.460370    41A     -0.459014    42A     -0.456582
      43A     -0.440874    44A     -0.435538

  @DF-RHF Final Energy:  -501.04044163601475

   => Energetics <=

    Nuclear Repulsion Energy =            616.6432578418894082
    One-Electron Energy =               -1904.4475043831121184
    Two-Electron Energy =                 786.7638049052062570
    DFT Exchange-Correlation Energy =       0.0000000000000000
    Empirical Dispersion Energy =           0.0000000000000000
    PCM Polarization Energy =               0.0000000000000000
    EFP Energy =                            0.0000000000000000
    Total Energy =                       -501.0404416360164532

  Mulliken Charges: (a.u.)
   Center  Symbol    Alpha    Beta     Spin     Total
       1     O     4.28490  4.28490  0.00000 -0.56981
       2     C     2.60965  2.60965  0.00000  0.78070
       3     C     3.21051  3.21051  0.00000 -0.42101
       4     O     4.30630  4.30630  0.00000 -0.61259
       5     C     3.16079  3.16079  0.00000 -0.32157
       6     H     0.39806  0.39806  0.00000  0.20388
       7     H     0.39835  0.39835  0.00000  0.20329
       8     C     3.15733  3.15733  0.00000 -0.31466
       9     H     0.39764  0.39764  0.00000  0.20472
      10     H     0.41616  0.41616  0.00000  0.16769
      11     C     3.15465  3.15465  0.00000 -0.30929
      12     H     0.41917  0.41917  0.00000  0.16167
      13     H     0.42486  0.42486  0.00000  0.15027
      14     C     3.15013  3.15013  0.00000 -0.30027
      15     H     0.42046  0.42046  0.00000  0.15908
      16     H     0.42492  0.42492  0.00000  0.15017
      17     C     3.15153  3.15153  0.00000 -0.30305
      18     H     0.42326  0.42326  0.00000  0.15349
      19     H     0.42430  0.42430  0.00000  0.15141
      20     C     3.23934  3.23934  0.00000 -0.47869
      21     H     0.42234  0.42234  0.00000  0.15532
      22     H     0.42353  0.42353  0.00000  0.15294
      23     H     0.41927  0.41927  0.00000  0.16147
      24     H     0.42158  0.42158  0.00000  0.15684
      25     H     0.42201  0.42201  0.00000  0.15599
      26     C     3.09225  3.09225  0.00000 -0.18451
      27     H     0.40910  0.40910  0.00000  0.18179
      28     H     0.40853  0.40853  0.00000  0.18293
      29     H     0.40909  0.40909  0.00000  0.18181

   Total alpha = 44.00000, Total beta = 44.00000, Total charge =  0.00000
