  ==> Input File <==

--------------------------------------------------------------------------
set {
	reference rhf
	basis cc-pvtz
}

set_num_threads( 4 )
memory 2 gb

molecule MOL {
0 1

H	 3.995267	 -0.290780	 2.741821
C	 3.296312	 -0.775689	 2.070677
C	 2.007636	 0.029461	 1.945377
H	 3.785153	 -0.884474	 1.108264
H	 3.104325	 -1.770998	 2.457353
C	 0.995610	 -0.616965	 1.011083
H	 2.225580	 1.028097	 1.583450
H	 1.560375	 0.148104	 2.929480
N	 -0.205257	 0.181941	 0.895309
H	 1.432162	 -0.713493	 0.021500
H	 0.783291	 -1.633814	 1.354624
C	 -1.215959	 -0.382435	 0.027143
H	 -0.591581	 0.343004	 1.802023
C	 -2.451944	 0.502410	 -0.038737
H	 -0.790181	 -0.477818	 -0.967237
H	 -1.508295	 -1.390798	 0.335075
C	 -3.752217	 -0.292550	 0.005776
H	 -2.407325	 1.093801	 -0.946480
H	 -2.431979	 1.206234	 0.790023
H	 -3.817783	 -0.982946	 -0.828547
H	 -4.612613	 0.364348	 -0.042306
H	 -3.830160	 -0.871666	 0.919868

	symmetry c1
}
set optking {
	frozen_dihedral = ("
		15 12 14 18
	")
}

ee = optimize('scf')
oeprop('DIPOLE', 'QUADRUPOLE', 'MULLIKEN_CHARGES')
f=open( 'psi4out.xyz', 'w' )
f.write( "22  " )
f.write( str(ee) + "\n" )
f.write( MOL.save_string_xyz() )
f.close()
--------------------------------------------------------------------------

    Molecular point group: c1
  Charge       = 0
  Multiplicity = 1
  Basis Set: CC-PVTZ
  Basis Set:
  @DF-RHF Final Energy:  -290.48491143729609
    Total Energy =                       -290.4849114372960344
    Molecular point group: c1
  Basis Set: CC-PVTZ
  Basis Set:
  Basis Set: CC-PVTZ
  Basis Set:
  @DF-RHF Final Energy:  -290.48526207035576
    Total Energy =                       -290.4852620703557591
  Basis Set: CC-PVTZ
  Basis Set:
  Basis Set: CC-PVTZ
  Basis Set:
  @DF-RHF Final Energy:  -290.48535508896509
    Total Energy =                       -290.4853550889652070
  Basis Set: CC-PVTZ
  Basis Set:
  Basis Set: CC-PVTZ
  Basis Set:
  @DF-RHF Final Energy:  -290.48535708404034
    Total Energy =                       -290.4853570840402881
  Basis Set: CC-PVTZ
  Basis Set:
  Charge       = 0
  Multiplicity = 1
  Basis Set: CC-PVTZ
  Basis Set:

    Orbital Energies (a.u.)
    -----------------------

    Doubly Occupied:

       1A    -15.528144     2A    -11.236491     3A    -11.235832
       4A    -11.211866     5A    -11.211793     6A    -11.207519
       7A    -11.207425     8A     -1.206728     9A     -1.058967
      10A     -1.026154    11A     -0.928240    12A     -0.869465
      13A     -0.811314    14A     -0.794338    15A     -0.668823
      16A     -0.630208    17A     -0.618157    18A     -0.604301
      19A     -0.576291    20A     -0.563201    21A     -0.539739
      22A     -0.528254    23A     -0.508763    24A     -0.487289
      25A     -0.482088    26A     -0.473054    27A     -0.465213
      28A     -0.451290    29A     -0.360849

  @DF-RHF Final Energy:  -290.48535740825719

   => Energetics <=

    Nuclear Repulsion Energy =            313.8044496562026779
    One-Electron Energy =               -1013.5960279602252285
    Two-Electron Energy =                 409.3062208957653638
    DFT Exchange-Correlation Energy =       0.0000000000000000
    Empirical Dispersion Energy =           0.0000000000000000
    PCM Polarization Energy =               0.0000000000000000
    EFP Energy =                            0.0000000000000000
    Total Energy =                       -290.4853574082571868
    Molecular point group: c1
  Basis Set: CC-PVTZ
  Basis Set:

  -Total Gradient:
     Atom            X                  Y                   Z
    ------   -----------------  -----------------  -----------------
       1       -0.000000899193     0.000000609859    -0.000000792253
       2       -0.000001574402     0.000002360679    -0.000000071266
       3        0.000005360663    -0.000008257578     0.000000878712
       4        0.000000701178    -0.000000404375    -0.000000869770
       5       -0.000001053734     0.000000957695     0.000000007752
       6       -0.000006746649     0.000018607508     0.000007235746
       7        0.000001297562     0.000001879015     0.000000618349
       8        0.000000099585     0.000000522217     0.000002124975
       9       -0.000010390212    -0.000029957663    -0.000021655837
      10        0.000003421293    -0.000003261647    -0.000000700435
      11        0.000005734159    -0.000007021574     0.000001705655
      12       -0.003346253125    -0.004685002622    -0.001338465521
      13       -0.000001804141    -0.000007370779    -0.000018068945
      14        0.003003994848     0.004363168529     0.002663872309
      15        0.002345090758     0.003259240774     0.000713106628
      16       -0.000006489154     0.000026352922     0.000000620957
      17        0.000001499209     0.000010230003     0.000018569810
      18       -0.001985975583    -0.002925334930    -0.002024659859
      19       -0.000000531545    -0.000019148160     0.000004817187
      20        0.000012195131    -0.000003280324     0.000000143583
      21       -0.000007953946     0.000000576397    -0.000003639084
      22       -0.000009722705     0.000004534056    -0.000004778693

  **** Optimization is complete! (in 5 steps) ****
    Final optimized geometry and variables:
    Molecular point group: c1

    Geometry (in Angstrom), charge = 0, multiplicity = 1:

    H            4.213019693115    -0.071950196002     1.858903053926
    C            3.509333314482    -0.559577634738     1.194675382792
    C            2.212925150039     0.235875613164     1.089310476501
    H            3.986567350459    -0.660504437087     0.225607237663
    H            3.329993562531    -1.557934278007     1.579567723093
    C            1.194398309661    -0.414071197306     0.164412714737
    H            2.418591855021     1.237836483765     0.729393731022
    H            1.777168395380     0.346234981563     2.079527650911
    N           -0.012213871592     0.377755880911     0.064277337725
    H            1.620966687962    -0.505445750281    -0.830104213775
    H            0.992355910942    -1.433368386541     0.507376481687
    C           -1.034563932615    -0.199812025806    -0.786828185542
    H           -0.385638230342     0.538370844005     0.976520695258
    C           -2.268344903994     0.709263666600    -0.875815180564
    H           -0.590756966114    -0.309560782189    -1.770048773520
    H           -1.327736052032    -1.197032813465    -0.451321335838
    C           -3.582282455016    -0.068345345535    -0.893118465289
    H           -2.214577712701     1.301900629438    -1.781734254796
    H           -2.266715734232     1.402216068888    -0.042386986774
    H           -3.613629110709    -0.766848247061    -1.723126151649
    H           -4.430698972288     0.598885850649    -0.993191841587
    H           -3.713860977217    -0.639110257299     0.020281052092

  Mulliken Charges: (a.u.)
   Center  Symbol    Alpha    Beta     Spin     Total
       1     H     0.44772  0.44772  0.00000  0.10455
       2     C     3.15360  3.15360  0.00000 -0.30719
       3     C     3.08038  3.08038  0.00000 -0.16076
       4     H     0.45474  0.45474  0.00000  0.09052
       5     H     0.45614  0.45614  0.00000  0.08772
       6     C     3.02037  3.02037  0.00000 -0.04074
       7     H     0.44905  0.44905  0.00000  0.10190
       8     H     0.45973  0.45973  0.00000  0.08053
       9     N     3.63906  3.63906  0.00000 -0.27813
      10     H     0.45947  0.45947  0.00000  0.08106
      11     H     0.47570  0.47570  0.00000  0.04861
      12     C     3.03132  3.03132  0.00000 -0.06264
      13     H     0.44492  0.44492  0.00000  0.11016
      14     C     3.08418  3.08418  0.00000 -0.16837
      15     H     0.45758  0.45758  0.00000  0.08484
      16     H     0.47011  0.47011  0.00000  0.05977
      17     C     3.15169  3.15169  0.00000 -0.30337
      18     H     0.45061  0.45061  0.00000  0.09877
      19     H     0.45303  0.45303  0.00000  0.09395
      20     H     0.45503  0.45503  0.00000  0.08995
      21     H     0.44885  0.44885  0.00000  0.10229
      22     H     0.45670  0.45670  0.00000  0.08659

   Total alpha = 29.00000, Total beta = 29.00000, Total charge =  0.00000
