                              Psi4 1.0.54 Driver

  ==> Input File <==

--------------------------------------------------------------------------
set {
	reference rhf
	basis cc-pvtz
}

set_num_threads( 4 )
memory 2 gb

molecule MOL {
0 1

H	 0.449136	 1.711971	 4.601158
C	 -0.162135	 0.801375	 4.537533
C	 -1.125432	 0.764321	 3.382295
O	 -0.040268	 -0.050570	 5.347870
C	 -0.451846	 1.060473	 2.039070
H	 -1.620077	 -0.198297	 3.377030
H	 -1.877030	 1.525304	 3.580560
C	 0.526889	 -0.023318	 1.592238
H	 -1.224322	 1.180646	 1.287286
H	 0.063217	 2.016222	 2.097784
C	 1.181757	 0.280428	 0.247371
H	 0.001604	 -0.972850	 1.532483
H	 1.299474	 -0.154816	 2.345397
C	 2.151032	 -0.811012	 -0.202643
H	 0.405310	 0.419003	 -0.498465
H	 1.714714	 1.226415	 0.313433
C	 3.580021	 -0.656538	 0.320835
H	 2.170545	 -0.847575	 -1.289412
H	 1.766632	 -1.772905	 0.124928
C	 4.327657	 0.562694	 -0.213579
H	 4.138806	 -1.549270	 0.057813
H	 3.561991	 -0.620783	 1.406976
H	 4.355973	 0.557257	 -1.298551
H	 3.867136	 1.491650	 0.100501
H	 5.351524	 0.571613	 0.142204

	symmetry c1
}
set optking {
	frozen_dihedral = ("
		8 11 14 18
	")
}

ee,wfn = optimize('scf', return_wfn=True)
oeprop( wfn, 'DIPOLE', 'QUADRUPOLE', 'MULLIKEN_CHARGES')
f=open( 'psi4out.xyz', 'w' )
f.write( "25  " )
f.write( str(ee) + "\n" )
f.write( MOL.save_string_xyz() )
f.close()
--------------------------------------------------------------------------

    Molecular point group: c1
  Charge       = 0
  Multiplicity = 1
  Basis Set: CC-PVTZ
  Basis Set:
  @DF-RHF Final Energy:  -387.25698138955698
    Total Energy =                       -387.2569813895571542
    Molecular point group: c1
  Basis Set: CC-PVTZ
  Basis Set:
  Basis Set: CC-PVTZ
  Basis Set:
  @DF-RHF Final Energy:  -387.25692445674002
    Total Energy =                       -387.2569244567396254
  Basis Set: CC-PVTZ
  Basis Set:
  Basis Set: CC-PVTZ
  Basis Set:
  @DF-RHF Final Energy:  -387.25744199215364
    Total Energy =                       -387.2574419921538720
  Basis Set: CC-PVTZ
  Basis Set:
  Basis Set: CC-PVTZ
  Basis Set:
  @DF-RHF Final Energy:  -387.25726312941060
    Total Energy =                       -387.2572631294108305
  Basis Set: CC-PVTZ
  Basis Set:
  Basis Set: CC-PVTZ
  Basis Set:
  @DF-RHF Final Energy:  -387.25745193447841
    Total Energy =                       -387.2574519344781265
  Basis Set: CC-PVTZ
  Basis Set:
  Basis Set: CC-PVTZ
  Basis Set:
  @DF-RHF Final Energy:  -387.25747887738896
    Total Energy =                       -387.2574788773890759
  Basis Set: CC-PVTZ
  Basis Set:
  Charge       = 0
  Multiplicity = 1
  Basis Set: CC-PVTZ
  Basis Set:

    Orbital Energies (a.u.)
    -----------------------

    Doubly Occupied:

       1A    -20.551531     2A    -11.321108     3A    -11.233869
       4A    -11.232851     5A    -11.221623     6A    -11.217790
       7A    -11.216029     8A    -11.214952     9A    -11.208649
      10A     -1.406555    11A     -1.105059    12A     -1.069941
      13A     -1.013373    14A     -0.943871    15A     -0.875072
      16A     -0.827585    17A     -0.789015    18A     -0.776079
      19A     -0.668838    20A     -0.661918    21A     -0.634358
      22A     -0.624799    23A     -0.611110    24A     -0.591419
      25A     -0.570030    26A     -0.559262    27A     -0.536304
      28A     -0.522383    29A     -0.517700    30A     -0.497839
      31A     -0.489269    32A     -0.482956    33A     -0.459259
      34A     -0.453524    35A     -0.446632    36A     -0.412014

  @DF-RHF Final Energy:  -387.25747894952406

   => Energetics <=

    Nuclear Repulsion Energy =            445.3366186995192493
    One-Electron Energy =               -1407.2590642290983851
    Two-Electron Energy =                 574.6649665800547382
    DFT Exchange-Correlation Energy =       0.0000000000000000
    Empirical Dispersion Energy =           0.0000000000000000
    PCM Polarization Energy =               0.0000000000000000
    EFP Energy =                            0.0000000000000000
    Total Energy =                       -387.2574789495243976
    Molecular point group: c1
  Basis Set: CC-PVTZ
  Basis Set:

  -Total Gradient:
     Atom            X                  Y                   Z
    ------   -----------------  -----------------  -----------------
       1       -0.000040002761    -0.000030138215    -0.000001104664
       2        0.000076656847     0.000017207868     0.000017631775
       3        0.000016224783     0.000001538102     0.000021836651
       4       -0.000032023566     0.000030902580    -0.000031238410
       5        0.000040104527     0.000031197514     0.000041695077
       6        0.000000567151    -0.000020647439    -0.000002902781
       7       -0.000022174771     0.000007433460    -0.000009259068
       8       -0.001481349433    -0.000963012508    -0.000979116835
       9       -0.000019325509    -0.000008385122     0.000006642761
      10        0.000011877703     0.000034267370     0.000004002104
      11        0.001514131096     0.000859223671     0.001274181101
      12       -0.000030778828    -0.000028638896    -0.000002284325
      13        0.000020432643    -0.000005292426    -0.000001074799
      14        0.001811120592     0.001877837623    -0.000361414307
      15       -0.000010161435    -0.000006438121     0.000015385744
      16       -0.000003339253     0.000022736793     0.000001863500
      17        0.000002122049    -0.000017091986    -0.000043604805
      18       -0.001926983852    -0.001807352964     0.000010876747
      19        0.000018742752     0.000003814305    -0.000001715142
      20       -0.000010069364    -0.000050769306     0.000025111022
      21        0.000030979152     0.000003070643     0.000000359095
      22        0.000017785745     0.000026700360    -0.000043019115
      23       -0.000023112737    -0.000036292745     0.000015432849
      24       -0.000042991184     0.000060411358     0.000018782997
      25        0.000081567650    -0.000002281921     0.000022932837

  **** Optimization is complete! (in 7 steps) ****
    Final optimized geometry and variables:
    Molecular point group: c1

    Geometry (in Angstrom), charge = 0, multiplicity = 1:

    H           -0.691544434570     1.445861181770     2.744062967665
    C           -1.317312201622     0.547715109409     2.651790035185
    C           -2.265743118306     0.553557480484     1.483768062407
    O           -1.220738277268    -0.324425935067     3.443829855986
    C           -1.568523314361     0.865227738456     0.156225671575
    H           -2.778246042778    -0.399162900971     1.451322542387
    H           -3.005570140113     1.324312388707     1.688541318184
    C           -0.606900401365    -0.228879880760    -0.302453301469
    H           -2.328338449111     1.018042373961    -0.602676839837
    H           -1.034915255115     1.808603586919     0.242813407814
    C            0.050778100249     0.081375037374    -1.646110470031
    H           -1.147783023784    -1.167898686025    -0.379987544430
    H            0.157267672279    -0.384499888897     0.454447875474
    C            1.050839760624    -0.990692064460    -2.101760907656
    H           -0.732752150273     0.174526803660    -2.392554110926
    H            0.533768162170     1.052231375397    -1.600000784448
    C            2.475987070022    -0.827147425251    -1.567019614818
    H            1.075157009834    -1.026280418574    -3.186864908826
    H            0.673593701594    -1.961589765330    -1.792833076434
    C            3.255967068141     0.323336734471    -2.198595104327
    H            3.018823879452    -1.750194169412    -1.744311312265
    H            2.450257440479    -0.698121462096    -0.488782093444
    H            3.334476224700     0.193345788375    -3.272963875214
    H            2.786787261781     1.283234175932    -2.016956301858
    H            4.262072737602     0.372785294275    -1.797818873317

  Mulliken Charges: (a.u.)
   Center  Symbol    Alpha    Beta     Spin     Total
       1     H     0.46412  0.46412  0.00000  0.07175
       2     C     2.90544  2.90544  0.00000  0.18913
       3     C     3.08807  3.08807  0.00000 -0.17614
       4     O     4.16614  4.16614  0.00000 -0.33229
       5     C     3.11674  3.11674  0.00000 -0.23348
       6     H     0.44293  0.44293  0.00000  0.11414
       7     H     0.44054  0.44054  0.00000  0.11892
       8     C     3.08982  3.08982  0.00000 -0.17963
       9     H     0.44292  0.44292  0.00000  0.11415
      10     H     0.44965  0.44965  0.00000  0.10071
      11     C     3.10162  3.10162  0.00000 -0.20325
      12     H     0.44915  0.44915  0.00000  0.10169
      13     H     0.44705  0.44705  0.00000  0.10590
      14     C     3.10515  3.10515  0.00000 -0.21030
      15     H     0.44625  0.44625  0.00000  0.10750
      16     H     0.45202  0.45202  0.00000  0.09596
      17     C     3.08986  3.08986  0.00000 -0.17971
      18     H     0.44625  0.44625  0.00000  0.10749
      19     H     0.44899  0.44899  0.00000  0.10201
      20     C     3.14937  3.14937  0.00000 -0.29874
      21     H     0.44725  0.44725  0.00000  0.10550
      22     H     0.45352  0.45352  0.00000  0.09295
      23     H     0.45450  0.45450  0.00000  0.09099
      24     H     0.45571  0.45571  0.00000  0.08858
      25     H     0.44692  0.44692  0.00000  0.10616

   Total alpha = 36.00000, Total beta = 36.00000, Total charge = -0.00000

*** Psi4 exiting successfully. Buy a developer a beer!
