  ==> Input File <==

--------------------------------------------------------------------------
set {
	reference rhf
	basis 6-31G*
}

set_num_threads( 4 )
memory 2 gb

molecule MOL {
0 1

O	 -2.658001	 0.195073	 0.716015
C	 -2.068631	 -0.715436	 0.217968
C	 -0.889235	 -0.467034	 -0.705952
C	 -2.440904	 -2.153237	 0.503479
C	 0.379448	 -0.143569	 0.099626
H	 -1.140111	 0.376390	 -1.339987
H	 -0.714675	 -1.329247	 -1.343247
C	 1.631333	 -0.777471	 -0.511575
H	 0.482768	 0.934507	 0.149241
H	 0.263088	 -0.495696	 1.123449
C	 2.915987	 -0.544314	 0.291766
H	 1.766672	 -0.399098	 -1.523130
H	 1.471257	 -1.849544	 -0.605828
C	 3.373361	 0.914346	 0.347591
H	 3.708709	 -1.142521	 -0.150311
H	 2.780642	 -0.921148	 1.303579
H	 3.506512	 1.320010	 -0.651625
H	 4.322697	 0.999599	 0.867103
H	 2.660624	 1.545032	 0.868198
H	 -2.817679	 -2.619894	 -0.402907
H	 -3.201486	 -2.193422	 1.270737
H	 -1.569653	 -2.720891	 0.817318

	symmetry c1
}
set optking {
	frozen_dihedral = ("
		6 3 5 8
	")
}

ee = optimize('scf')
oeprop('DIPOLE', 'QUADRUPOLE', 'MULLIKEN_CHARGES')
f=open( 'psi4out.xyz', 'w' )
f.write( "22  " )
f.write( str(ee) + "\n" )
f.write( MOL.save_string_xyz() )
f.close()
--------------------------------------------------------------------------

    Molecular point group: c1
  Charge       = 0
  Multiplicity = 1
  Basis Set: 6-31G*
  Basis Set:
  @DF-RHF Final Energy:  -348.09378676860604
    Total Energy =                       -348.0937867686061509
    Molecular point group: c1
  Basis Set: 6-31G*
  Basis Set:
  Basis Set: 6-31G*
  Basis Set:
  @DF-RHF Final Energy:  -348.09411827819252
    Total Energy =                       -348.0941182781928092
  Basis Set: 6-31G*
  Basis Set:
  Basis Set: 6-31G*
  Basis Set:
  @DF-RHF Final Energy:  -348.09314282800523
    Total Energy =                       -348.0931428280053979
  Basis Set: 6-31G*
  Basis Set:
  Basis Set: 6-31G*
  Basis Set:
  @DF-RHF Final Energy:  -348.09427146923940
    Total Energy =                       -348.0942714692398567
  Basis Set: 6-31G*
  Basis Set:
  @DF-RHF Final Energy:  -348.09412881637110
    Total Energy =                       -348.0941288163706986
  @DF-RHF Final Energy:  -348.09433548239969
    Total Energy =                       -348.0943354823995719
  Basis Set: 6-31G*
  Basis Set:
  @DF-RHF Final Energy:  -348.09434239542111
    Total Energy =                       -348.0943423954212221
  Basis Set: 6-31G*
  Basis Set:
  Basis Set: 6-31G*
  Basis Set:
  @DF-RHF Final Energy:  -348.09435279967533
    Total Energy =                       -348.0943527996756757
  Basis Set: 6-31G*
  Basis Set:
  Basis Set: 6-31G*
  Basis Set:
  @DF-RHF Final Energy:  -348.09435455685127
    Total Energy =                       -348.0943545568508171
  Basis Set: 6-31G*
  Basis Set:
  Charge       = 0
  Multiplicity = 1
  Basis Set: 6-31G*
  Basis Set:

    Orbital Energies (a.u.)
    -----------------------

    Doubly Occupied:

       1A    -20.546806     2A    -11.323859     3A    -11.231996
       4A    -11.228999     5A    -11.227881     6A    -11.225018
       7A    -11.222550     8A    -11.213379     9A     -1.392546
      10A     -1.096656    11A     -1.045091    12A     -0.997775
      13A     -0.940020    14A     -0.860293    15A     -0.789305
      16A     -0.732996    17A     -0.659164    18A     -0.647064
      19A     -0.626835    20A     -0.621296    21A     -0.596442
      22A     -0.575208    23A     -0.571180    24A     -0.544716
      25A     -0.536253    26A     -0.515112    27A     -0.502510
      28A     -0.490924    29A     -0.472117    30A     -0.466336
      31A     -0.458380    32A     -0.395638

  @DF-RHF Final Energy:  -348.09435494931193

   => Energetics <=

    Nuclear Repulsion Energy =            373.3155802219634438
    One-Electron Energy =               -1211.3111764593452335
    Two-Electron Energy =                 489.9012412880698548
    DFT Exchange-Correlation Energy =       0.0000000000000000
    Empirical Dispersion Energy =           0.0000000000000000
    PCM Polarization Energy =               0.0000000000000000
    EFP Energy =                            0.0000000000000000
    Total Energy =                       -348.0943549493118780
    Molecular point group: c1
  Basis Set: 6-31G*
  Basis Set:

  -Total Gradient:
     Atom            X                  Y                   Z
    ------   -----------------  -----------------  -----------------
       1        0.000000568305    -0.000016960926    -0.000014411693
       2        0.000015336101     0.000049249780     0.000010963582
       3        0.002420364577    -0.002416723502    -0.002919491730
       4       -0.000017354326    -0.000017789613    -0.000013732893
       5        0.000086443520     0.003411801933    -0.001132644648
       6       -0.002114350104     0.001251550550     0.002753718945
       7       -0.000004539608     0.000002355854     0.000003978007
       8       -0.000433337004    -0.002261605914     0.001303261998
       9       -0.000004639474    -0.000033359699    -0.000009393617
      10        0.000010345801     0.000008031102     0.000014993349
      11        0.000006167303    -0.000004811351     0.000003469704
      12        0.000001156610    -0.000003752824    -0.000005766417
      13       -0.000012866789     0.000012888038     0.000002900519
      14        0.000015826360     0.000012733759     0.000007257756
      15       -0.000001003688     0.000000163887     0.000002742230
      16        0.000004234035    -0.000002911438    -0.000004173708
      17        0.000010469214     0.000003696869    -0.000002802682
      18       -0.000005883757     0.000008951927     0.000002691511
      19        0.000010267811    -0.000005159126    -0.000002542807
      20        0.000002987721    -0.000009024586    -0.000002748061
      21        0.000002345813     0.000004917028    -0.000000080746
      22        0.000007461582     0.000005758251     0.000001811401

  **** Optimization is complete! (in 10 steps) ****
    Final optimized geometry and variables:
    Molecular point group: c1

    Geometry (in Angstrom), charge = 0, multiplicity = 1:

    O           -2.848298151351     0.644598885808     0.390932078182
    C           -2.121141560043    -0.235198409732     0.043207149591
    C           -0.920849482349     0.035909772373    -0.845580764757
    C           -2.347222753838    -1.667438321981     0.479633536918
    C            0.351050944018     0.280071344979     0.004002886420
    H           -1.161130487812     0.919397283309    -1.423453374464
    H           -0.768660770290    -0.798457068754    -1.523545682432
    C            1.610873386526    -0.322415103873    -0.624227271842
    H            0.463465236682     1.345730264923     0.160898535257
    H            0.226646802998    -0.155327148932     0.993861166239
    C            2.890967896898    -0.112523281192     0.192018790553
    H            1.750322620530     0.087398236193    -1.623508980634
    H            1.451553847299    -1.390753534183    -0.754113165536
    C            3.356586525374     1.342038496459     0.280737738796
    H            3.683753743345    -0.705610124313    -0.256761848066
    H            2.747260009742    -0.509018913965     1.195180878462
    H            3.501932053964     1.765891780531    -0.709182164700
    H            4.301447115163     1.411089134027     0.810551194189
    H            2.643367909178     1.967226194678     0.807314067004
    H           -2.700301638435    -2.247430419066    -0.369272977195
    H           -3.089907982124    -1.701428056714     1.264622158018
    H           -1.425601519941    -2.127608764498     0.821719740361

  Mulliken Charges: (a.u.)
   Center  Symbol    Alpha    Beta     Spin     Total
       1     O     4.26112  4.26112  0.00000 -0.52224
       2     C     2.74037  2.74037  0.00000  0.51926
       3     C     3.20199  3.20199  0.00000 -0.40398
       4     C     3.28913  3.28913  0.00000 -0.57825
       5     C     3.16287  3.16287  0.00000 -0.32574
       6     H     0.39887  0.39887  0.00000  0.20226
       7     H     0.41424  0.41424  0.00000  0.17153
       8     C     3.15477  3.15477  0.00000 -0.30954
       9     H     0.40606  0.40606  0.00000  0.18787
      10     H     0.41842  0.41842  0.00000  0.16316
      11     C     3.15404  3.15404  0.00000 -0.30808
      12     H     0.42088  0.42088  0.00000  0.15824
      13     H     0.42216  0.42216  0.00000  0.15567
      14     C     3.24184  3.24184  0.00000 -0.48368
      15     H     0.41920  0.41920  0.00000  0.16159
      16     H     0.42241  0.42241  0.00000  0.15518
      17     H     0.42114  0.42114  0.00000  0.15772
      18     H     0.41761  0.41761  0.00000  0.16477
      19     H     0.41888  0.41888  0.00000  0.16223
      20     H     0.40620  0.40620  0.00000  0.18760
      21     H     0.39697  0.39697  0.00000  0.20607
      22     H     0.41081  0.41081  0.00000  0.17838

   Total alpha = 32.00000, Total beta = 32.00000, Total charge =  0.00000
