                              Psi4 1.0.54 Driver

  ==> Input File <==

--------------------------------------------------------------------------
set {
	reference rhf
	basis cc-pvtz
}

set_num_threads( 4 )
memory 2 gb

molecule MOL {
0 1

H	 1.518253	 -1.898708	 0.896971
C	 0.611596	 -1.346940	 1.079610
O	 0.462329	 -0.453336	 -0.000137
H	 0.702685	 -0.813557	 2.017386
H	 -0.220577	 -2.037577	 1.132028
C	 -0.590565	 0.341382	 0.000062
O	 -1.693898	 -0.053880	 0.000252
H	 -0.340426	 1.403822	 0.000200

	symmetry c1
}
set optking {
	frozen_dihedral = ("
		2 3 6 7
	")
}

ee,wfn = optimize('scf', return_wfn=True)
oeprop( wfn, 'DIPOLE', 'QUADRUPOLE', 'MULLIKEN_CHARGES')
f=open( 'psi4out.xyz', 'w' )
f.write( "8  " )
f.write( str(ee) + "\n" )
f.write( MOL.save_string_xyz() )
f.close()
--------------------------------------------------------------------------

    Molecular point group: c1
  Charge       = 0
  Multiplicity = 1
  Basis Set: CC-PVTZ
  Basis Set:
  @DF-RHF Final Energy:  -227.86327657621126
    Total Energy =                       -227.8632765762113195
    Molecular point group: c1
  Basis Set: CC-PVTZ
  Basis Set:
  Basis Set: CC-PVTZ
  Basis Set:
  @DF-RHF Final Energy:  -227.85719322091882
    Total Energy =                       -227.8571932209187594
  Basis Set: CC-PVTZ
  Basis Set:
  Basis Set: CC-PVTZ
  Basis Set:
  @DF-RHF Final Energy:  -227.86296985627547
    Total Energy =                       -227.8629698562753561
  Basis Set: CC-PVTZ
  Basis Set:
  Basis Set: CC-PVTZ
  Basis Set:
  @DF-RHF Final Energy:  -227.86426944473556
    Total Energy =                       -227.8642694447355552
  Basis Set: CC-PVTZ
  Basis Set:
  Basis Set: CC-PVTZ
  Basis Set:
  @DF-RHF Final Energy:  -227.86429123735104
    Total Energy =                       -227.8642912373510967
  Basis Set: CC-PVTZ
  Basis Set:
  Basis Set: CC-PVTZ
  Basis Set:
  @DF-RHF Final Energy:  -227.86430801262543
    Total Energy =                       -227.8643080126253722
  Basis Set: CC-PVTZ
  Basis Set:
  Charge       = 0
  Multiplicity = 1
  Basis Set: CC-PVTZ
  Basis Set:

    Orbital Energies (a.u.)
    -----------------------

    Doubly Occupied:

       1A    -20.594281     2A    -20.558355     3A    -11.375199
       4A    -11.292533     5A     -1.473995     6A     -1.382289
       7A     -0.991306     8A     -0.826621     9A     -0.742631
      10A     -0.688415    11A     -0.671681    12A     -0.620636
      13A     -0.562519    14A     -0.521668    15A     -0.473352
      16A     -0.458329

  @DF-RHF Final Energy:  -227.86430837610200

   => Energetics <=

    Nuclear Repulsion Energy =            122.6404850721479249
    One-Electron Energy =                -554.5419681039945772
    Two-Electron Energy =                 204.0371746557445078
    DFT Exchange-Correlation Energy =       0.0000000000000000
    Empirical Dispersion Energy =           0.0000000000000000
    PCM Polarization Energy =               0.0000000000000000
    EFP Energy =                            0.0000000000000000
    Total Energy =                       -227.8643083761021160
    Molecular point group: c1
  Basis Set: CC-PVTZ
  Basis Set:

  -Total Gradient:
     Atom            X                  Y                   Z
    ------   -----------------  -----------------  -----------------
       1        0.000000425987    -0.000002448589     0.000028531774
       2        0.003484872045     0.004816907755     0.003356009470
       3       -0.005207690795    -0.007412950071    -0.009573730471
       4       -0.000017818365     0.000031261241    -0.000034188545
       5        0.000001936727     0.000024649294     0.000001811920
       6        0.001750036478     0.002704386908     0.015237392657
       7        0.000002414749    -0.000144044937    -0.009007667086
       8       -0.000014176829    -0.000017761603    -0.000008159720

  **** Optimization is complete! (in 7 steps) ****
    Final optimized geometry and variables:
    Molecular point group: c1

    Geometry (in Angstrom), charge = 0, multiplicity = 1:

    H            1.817410014731    -1.524533336155     0.584061365852
    C            0.953378936002    -0.922979041575     0.812499566729
    O            0.766916746953    -0.050556689027    -0.287827816641
    H            1.139708750672    -0.351231188874     1.712816889124
    H            0.090239150584    -1.557306999313     0.951108895723
    C           -0.323539523264     0.712775987048    -0.293956572989
    O           -1.426727820698     0.313379627277    -0.279996389425
    H           -0.075067348267     1.764732527450    -0.410407532141

  Mulliken Charges: (a.u.)
   Center  Symbol    Alpha    Beta     Spin     Total
       1     H     0.44578  0.44578  0.00000  0.10845
       2     C     3.02460  3.02460  0.00000 -0.04920
       3     O     4.15397  4.15397  0.00000 -0.30795
       4     H     0.46271  0.46271  0.00000  0.07458
       5     H     0.44968  0.44968  0.00000  0.10064
       6     C     2.83052  2.83052  0.00000  0.33895
       7     O     4.17333  4.17333  0.00000 -0.34666
       8     H     0.45940  0.45940  0.00000  0.08119

   Total alpha = 16.00000, Total beta = 16.00000, Total charge = -0.00000

*** Psi4 exiting successfully. Buy a developer a beer!
