  ==> Input File <==

--------------------------------------------------------------------------
set {
	reference rhf
	basis 6-31G*
}

set_num_threads( 4 )
memory 2 gb

molecule MOL {
0 1

H	 0.288418	 -3.204064	 -4.277366
C	 0.607925	 -2.661702	 -3.406258
C	 0.009557	 -2.892995	 -2.172287
C	 1.617546	 -1.725564	 -3.494358
H	 -0.779069	 -3.619110	 -2.084797
C	 0.416593	 -2.199471	 -1.053116
H	 2.091880	 -1.533442	 -4.440499
C	 2.039955	 -1.017209	 -2.374420
H	 -0.036939	 -2.368292	 -0.094136
C	 1.436818	 -1.255505	 -1.149462
H	 2.827430	 -0.295825	 -2.475193
O	 1.765256	 -0.628444	 0.000000
C	 2.778419	 0.335181	 0.000000
H	 2.731280	 0.961222	 -0.884976
H	 3.711703	 -0.207767	 0.000000
H	 2.731280	 0.961222	 0.884976

	symmetry c1
}
set optking {
	frozen_dihedral = ("
		10 12 13 14
	")
}

ee = optimize('scf')
oeprop('DIPOLE', 'QUADRUPOLE', 'MULLIKEN_CHARGES')
f=open( 'psi4out.xyz', 'w' )
f.write( "16  " )
f.write( str(ee) + "\n" )
f.write( MOL.save_string_xyz() )
f.close()
--------------------------------------------------------------------------

    Molecular point group: c1
  Charge       = 0
  Multiplicity = 1
  Basis Set: 6-31G*
  Basis Set:
  @DF-RHF Final Energy:  -344.57922887970261
    Total Energy =                       -344.5792288797026686
    Molecular point group: c1
  Basis Set: 6-31G*
  Basis Set:
  Basis Set: 6-31G*
  Basis Set:
  @DF-RHF Final Energy:  -344.58104698128733
    Total Energy =                       -344.5810469812875567
  Basis Set: 6-31G*
  Basis Set:
  Basis Set: 6-31G*
  Basis Set:
  @DF-RHF Final Energy:  -344.58175345125778
    Total Energy =                       -344.5817534512580096
  Basis Set: 6-31G*
  Basis Set:
  Basis Set: 6-31G*
  Basis Set:
  @DF-RHF Final Energy:  -344.58181602929528
    Total Energy =                       -344.5818160292952825
  Basis Set: 6-31G*
  Basis Set:
  Basis Set: 6-31G*
  Basis Set:
  @DF-RHF Final Energy:  -344.58182668038137
    Total Energy =                       -344.5818266803815391
  Basis Set: 6-31G*
  Basis Set:
  Charge       = 0
  Multiplicity = 1
  Basis Set: 6-31G*
  Basis Set:

    Orbital Energies (a.u.)
    -----------------------

    Doubly Occupied:

       1A    -20.583432     2A    -11.293559     3A    -11.279627
       4A    -11.232942     5A    -11.231404     6A    -11.223939
       7A    -11.219660     8A    -11.219369     9A     -1.412466
      10A     -1.145812    11A     -1.021268    12A     -1.012772
      13A     -0.941048    14A     -0.830685    15A     -0.804694
      16A     -0.720947    17A     -0.663972    18A     -0.661624
      19A     -0.653952    20A     -0.616459    21A     -0.587346
      22A     -0.577363    23A     -0.524275    24A     -0.518469
      25A     -0.508621    26A     -0.477317    27A     -0.458562
      28A     -0.334557    29A     -0.305634

  @DF-RHF Final Energy:  -344.58182843447941

   => Energetics <=

    Nuclear Repulsion Energy =            348.0440845779622236
    One-Electron Energy =               -1157.1282716930504648
    Two-Electron Energy =                 464.5023586806083813
    DFT Exchange-Correlation Energy =       0.0000000000000000
    Empirical Dispersion Energy =           0.0000000000000000
    PCM Polarization Energy =               0.0000000000000000
    EFP Energy =                            0.0000000000000000
    Total Energy =                       -344.5818284344799167
    Molecular point group: c1
  Basis Set: 6-31G*
  Basis Set:

  -Total Gradient:
     Atom            X                  Y                   Z
    ------   -----------------  -----------------  -----------------
       1       -0.000010544969    -0.000014192362     0.000012226096
       2        0.000102071455     0.000097943215    -0.000084213964
       3       -0.000009115686     0.000010225448     0.000183269880
       4       -0.000101034938    -0.000110307583    -0.000069228700
       5       -0.000005664899    -0.000003742465    -0.000013622546
       6       -0.000119377072    -0.000143102614    -0.000124186122
       7        0.000009442492     0.000010414471     0.000012382417
       8        0.000001799103     0.000006715486     0.000198056220
       9        0.000002315706     0.000012765885     0.000002797665
      10       -0.001657028901     0.001446459465    -0.000084930032
      11        0.000007223681     0.000033964915     0.000008630410
      12        0.003068917531    -0.002326512055    -0.000438694010
      13       -0.002881398096     0.002123549205     0.002003993767
      14        0.001573226148    -0.001158917757    -0.001629315996
      15       -0.000002412994     0.000004630938     0.000021621662
      16        0.000021581436     0.000010105808     0.000001213251

  **** Optimization is complete! (in 6 steps) ****
    Final optimized geometry and variables:
    Molecular point group: c1

    Geometry (in Angstrom), charge = 0, multiplicity = 1:

    H           -1.203812313577    -1.651753531133    -2.654012900240
    C           -0.837367641432    -1.152154578621    -1.775786502455
    C           -1.439316753145    -1.365900741299    -0.540689557891
    C            0.238569865565    -0.291552109905    -1.856209943052
    H           -2.278183435318    -2.034303575484    -0.460289074507
    C           -0.974725042472    -0.724499720725     0.587769948831
    H            0.720367704765    -0.119035707431    -2.802341022117
    C            0.721345343437     0.359210999241    -0.726335466446
    H           -1.432009375894    -0.877769930636     1.547560412357
    C            0.108706002671     0.145913551168     0.498377480138
    H            1.569239923725     1.011292114986    -0.814013737630
    O            0.508399029626     0.715003343962     1.655890694702
    C            1.334785859364     1.844885353851     1.628564892607
    H            1.045348575646     2.531624493094     0.841490002534
    H            2.373151664608     1.564895390553     1.479640234808
    H            1.234254615268     2.326271868650     2.589973930243

  Mulliken Charges: (a.u.)
   Center  Symbol    Alpha    Beta     Spin     Total
       1     H     0.40118  0.40118  0.00000  0.19764
       2     C     3.11178  3.11178  0.00000 -0.22356
       3     C     3.09215  3.09215  0.00000 -0.18430
       4     C     3.09131  3.09131  0.00000 -0.18262
       5     H     0.39876  0.39876  0.00000  0.20248
       6     C     3.12531  3.12531  0.00000 -0.25062
       7     H     0.39959  0.39959  0.00000  0.20083
       8     C     3.14279  3.14279  0.00000 -0.28558
       9     H     0.39301  0.39301  0.00000  0.21399
      10     C     2.78374  2.78374  0.00000  0.43251
      11     H     0.39744  0.39744  0.00000  0.20512
      12     O     4.32717  4.32717  0.00000 -0.65433
      13     C     3.09091  3.09091  0.00000 -0.18182
      14     H     0.41941  0.41941  0.00000  0.16118
      15     H     0.41981  0.41981  0.00000  0.16038
      16     H     0.40565  0.40565  0.00000  0.18870

   Total alpha = 29.00000, Total beta = 29.00000, Total charge = -0.00000
