  ==> Input File <==

--------------------------------------------------------------------------
set {
	reference rhf
	basis cc-pvtz
}

set_num_threads( 4 )
memory 2 gb

molecule MOL {
0 1

H	 2.650000	 2.027000	 0.328000
O	 3.399000	 1.680000	 -0.133000
C	 3.629000	 0.353000	 0.267000
C	 2.599000	 -0.628000	 -0.283000
H	 4.612000	 0.098000	 -0.107000
H	 3.668000	 0.284000	 1.354000
C	 1.175000	 -0.385000	 0.223000
H	 2.615000	 -0.571000	 -1.369000
H	 2.912000	 -1.635000	 -0.013000
C	 0.175000	 -1.416000	 -0.307000
H	 0.857000	 0.612000	 -0.069000
H	 1.169000	 -0.409000	 1.313000
C	 -1.251000	 -1.269000	 0.237000
H	 0.152000	 -1.367000	 -1.394000
H	 0.538000	 -2.411000	 -0.057000
C	 -1.978000	 0.006000	 -0.197000
H	 -1.832000	 -2.129000	 -0.091000
H	 -1.227000	 -1.319000	 1.325000
C	 -3.431000	 0.056000	 0.281000
H	 -1.956000	 0.080000	 -1.284000
H	 -1.455000	 0.882000	 0.178000
C	 -4.158000	 1.331000	 -0.146000
H	 -3.966000	 -0.810000	 -0.102000
H	 -3.455000	 -0.027000	 1.366000
H	 -4.179000	 1.426000	 -1.228000
H	 -5.185000	 1.335000	 0.207000
H	 -3.668000	 2.214000	 0.254000

	symmetry c1
}
ee = optimize('scf')
oeprop('DIPOLE', 'QUADRUPOLE', 'MULLIKEN_CHARGES')
f=open( 'psi4out.xyz', 'w' )
f.write( "27  " )
f.write( str(ee) + "\n" )
f.write( MOL.save_string_xyz() )
f.close()
--------------------------------------------------------------------------

    Molecular point group: c1
  Charge       = 0
  Multiplicity = 1
  Basis Set: CC-PVTZ
  Basis Set:
  @DF-RHF Final Energy:  -388.42763652889687
    Total Energy =                       -388.4276365288964143
    Molecular point group: c1
  Basis Set: CC-PVTZ
  Basis Set:
  Basis Set: CC-PVTZ
  Basis Set:
  @DF-RHF Final Energy:  -388.42777430909939
    Total Energy =                       -388.4277743090990498
  Basis Set: CC-PVTZ
  Basis Set:
  Basis Set: CC-PVTZ
  Basis Set:
  @DF-RHF Final Energy:  -388.42772782877444
    Total Energy =                       -388.4277278287746640
  Basis Set: CC-PVTZ
  Basis Set:
  Basis Set: CC-PVTZ
  Basis Set:
  @DF-RHF Final Energy:  -388.42778539755039
    Total Energy =                       -388.4277853975502239
  Basis Set: CC-PVTZ
  Basis Set:
  Basis Set: CC-PVTZ
  Basis Set:
  @DF-RHF Final Energy:  -388.42778764587956
    Total Energy =                       -388.4277876458799028
  Basis Set: CC-PVTZ
  Basis Set:
  Charge       = 0
  Multiplicity = 1
  Basis Set: CC-PVTZ
  Basis Set:

    Orbital Energies (a.u.)
    -----------------------

    Doubly Occupied:

       1A    -20.545379     2A    -11.265003     3A    -11.216785
       4A    -11.214695     5A    -11.213912     6A    -11.213265
       7A    -11.213243     8A    -11.211888     9A    -11.207277
      10A     -1.363209    11A     -1.096198    12A     -1.062566
      13A     -1.012514    14A     -0.949394    15A     -0.888615
      16A     -0.820500    17A     -0.801835    18A     -0.778400
      19A     -0.696197    20A     -0.652666    21A     -0.639647
      22A     -0.615908    23A     -0.601758    24A     -0.583418
      25A     -0.581078    26A     -0.553604    27A     -0.541228
      28A     -0.532700    29A     -0.505818    30A     -0.495299
      31A     -0.485290    32A     -0.474336    33A     -0.469433
      34A     -0.461446    35A     -0.452699    36A     -0.442613
      37A     -0.425641

  @DF-RHF Final Energy:  -388.42778836424276

   => Energetics <=

    Nuclear Repulsion Energy =            460.1892433940809610
    One-Electron Energy =               -1438.6631698208766466
    Two-Electron Energy =                 590.0461380625529273
    DFT Exchange-Correlation Energy =       0.0000000000000000
    Empirical Dispersion Energy =           0.0000000000000000
    PCM Polarization Energy =               0.0000000000000000
    EFP Energy =                            0.0000000000000000
    Total Energy =                       -388.4277883642428151
    Molecular point group: c1
  Basis Set: CC-PVTZ
  Basis Set:

  -Total Gradient:
     Atom            X                  Y                   Z
    ------   -----------------  -----------------  -----------------
       1       -0.000129928106     0.000042436513     0.000086274507
       2        0.000147916111    -0.000012737143    -0.000132185364
       3       -0.000019020002     0.000028706783     0.000048086739
       4        0.000000786735     0.000029849085    -0.000085165407
       5        0.000006741470    -0.000013067901     0.000001064608
       6       -0.000002942462    -0.000008127346     0.000029580642
       7       -0.000005871495     0.000001698672     0.000066154626
       8       -0.000018927543    -0.000027571706    -0.000056983044
       9        0.000011165291    -0.000002473781     0.000016225653
      10        0.000000296498    -0.000004845959    -0.000018217746
      11        0.000028892542     0.000002551158     0.000000983852
      12       -0.000008969069    -0.000021908251     0.000081076123
      13       -0.000009949273     0.000028750763    -0.000014386812
      14        0.000006134662     0.000003671180    -0.000028748177
      15       -0.000033525575    -0.000034428035     0.000009361242
      16        0.000015461365     0.000011701895    -0.000019640726
      17        0.000001557386    -0.000047648524    -0.000005171071
      18        0.000019097121     0.000012628787     0.000026209921
      19       -0.000011281505    -0.000025499665     0.000015893388
      20        0.000006468135     0.000016006189    -0.000043137043
      21        0.000016236749     0.000013206977     0.000013305542
      22        0.000012439068     0.000011143667    -0.000015605665
      23       -0.000012479494    -0.000017097674    -0.000002128791
      24       -0.000001604728    -0.000002328581     0.000032039788
      25        0.000000681007     0.000004520532    -0.000025793847
      26       -0.000026419312    -0.000005168684     0.000009878311
      27        0.000007044423     0.000016031048     0.000011028750

  **** Optimization is complete! (in 6 steps) ****
    Final optimized geometry and variables:
    Molecular point group: c1

    Geometry (in Angstrom), charge = 0, multiplicity = 1:

    H            2.614282650435     2.028609292785     0.296620515263
    O            3.358863684971     1.662086887688    -0.142799560410
    C            3.565467980209     0.338078868062     0.273842374176
    C            2.533666143026    -0.637565644823    -0.272226821213
    H            4.548037972205     0.064913860622    -0.086597274171
    H            3.593944726495     0.282241252833     1.360360540237
    C            1.114815833022    -0.402372590391     0.240992991344
    H            2.544551285253    -0.580764557504    -1.356575792388
    H            2.850574005855    -1.642962429265    -0.005496973201
    C            0.113297989536    -1.420414070079    -0.302503465817
    H            0.796372988022     0.598426413420    -0.031032480549
    H            1.113376218216    -0.446476226588     1.328807855289
    C           -1.311023442668    -1.277304737337     0.237018459793
    H            0.093860540060    -1.357570799410    -1.387814443929
    H            0.471828077828    -2.418029214662    -0.064409338755
    C           -2.041121783375    -0.006551656348    -0.194126751304
    H           -1.888548042684    -2.136293350614    -0.093330933319
    H           -1.289731307372    -1.328757376813     1.323321197527
    C           -3.489218428533     0.042606088831     0.286507457214
    H           -2.022185273811     0.066286614872    -1.279393590705
    H           -1.518764596493     0.869305203620     0.178730351956
    C           -4.219984193542     1.311773052692    -0.139037758229
    H           -4.022855136353    -0.824300350949    -0.093338916736
    H           -3.510372907914    -0.038577715379     1.370031123366
    H           -4.244251406201     1.405724796079    -1.219695465887
    H           -5.244345643624     1.313232968374     0.215630445343
    H           -3.732090472939     2.196310524472     0.257073734114

  Mulliken Charges: (a.u.)
   Center  Symbol    Alpha    Beta     Spin     Total
       1     H     0.39229  0.39229  0.00000  0.21542
       2     O     4.20551  4.20551  0.00000 -0.41102
       3     C     2.97992  2.97992  0.00000  0.04016
       4     C     3.08927  3.08927  0.00000 -0.17854
       5     H     0.44854  0.44854  0.00000  0.10291
       6     H     0.46972  0.46972  0.00000  0.06056
       7     C     3.10234  3.10234  0.00000 -0.20467
       8     H     0.45077  0.45077  0.00000  0.09846
       9     H     0.45517  0.45517  0.00000  0.08967
      10     C     3.09854  3.09854  0.00000 -0.19708
      11     H     0.45606  0.45606  0.00000  0.08788
      12     H     0.45378  0.45378  0.00000  0.09243
      13     C     3.09802  3.09802  0.00000 -0.19604
      14     H     0.45169  0.45169  0.00000  0.09661
      15     H     0.44800  0.44800  0.00000  0.10399
      16     C     3.08790  3.08790  0.00000 -0.17579
      17     H     0.44798  0.44798  0.00000  0.10405
      18     H     0.45390  0.45390  0.00000  0.09221
      19     C     3.08405  3.08405  0.00000 -0.16809
      20     H     0.45409  0.45409  0.00000  0.09183
      21     H     0.45548  0.45548  0.00000  0.08904
      22     C     3.14959  3.14959  0.00000 -0.29917
      23     H     0.45376  0.45376  0.00000  0.09249
      24     H     0.45471  0.45471  0.00000  0.09058
      25     H     0.45485  0.45485  0.00000  0.09030
      26     H     0.44830  0.44830  0.00000  0.10339
      27     H     0.45578  0.45578  0.00000  0.08844

   Total alpha = 37.00000, Total beta = 37.00000, Total charge = -0.00000
