  ==> Input File <==

--------------------------------------------------------------------------
set {
	reference rhf
	basis cc-pvtz
}

set_num_threads( 4 )
memory 2 gb

molecule MOL {
0 1

H	 2.828711	 -0.346904	 0.001083
C	 1.876752	 0.015931	 -0.363450
C	 0.776285	 -0.474665	 0.563092
H	 1.728113	 -0.357244	 -1.367440
H	 1.906171	 1.096574	 -0.386153
N	 -0.540022	 0.017605	 0.071630
H	 0.707111	 -1.548969	 0.573035
H	 0.886169	 -0.084184	 1.560432
O	 -0.755378	 1.178812	 0.168656
O	 -1.294421	 -0.789536	 -0.357090

	symmetry c1
}
set optking {
	frozen_dihedral = ("
		9 6 3 2
	")
}

ee = optimize('scf')
oeprop('DIPOLE', 'QUADRUPOLE', 'MULLIKEN_CHARGES')
f=open( 'psi4out.xyz', 'w' )
f.write( "10  " )
f.write( str(ee) + "\n" )
f.write( MOL.save_string_xyz() )
f.close()
--------------------------------------------------------------------------

    Molecular point group: c1
  Charge       = 0
  Multiplicity = 1
  Basis Set: CC-PVTZ
  Basis Set:
  @DF-RHF Final Energy:  -282.81311373434858
    Total Energy =                       -282.8131137343485761
    Molecular point group: c1
  Basis Set: CC-PVTZ
  Basis Set:
  Basis Set: CC-PVTZ
  Basis Set:
  @DF-RHF Final Energy:  -282.80899119371486
    Total Energy =                       -282.8089911937148599
  Basis Set: CC-PVTZ
  Basis Set:
  Basis Set: CC-PVTZ
  Basis Set:
  @DF-RHF Final Energy:  -282.81320105160432
    Total Energy =                       -282.8132010516044943
  Basis Set: CC-PVTZ
  Basis Set:
  Basis Set: CC-PVTZ
  Basis Set:
  @DF-RHF Final Energy:  -282.81329701385857
    Total Energy =                       -282.8132970138585165
  Basis Set: CC-PVTZ
  Basis Set:
  Charge       = 0
  Multiplicity = 1
  Basis Set: CC-PVTZ
  Basis Set:

    Orbital Energies (a.u.)
    -----------------------

    Doubly Occupied:

       1A    -20.593622     2A    -20.590388     3A    -15.838526
       4A    -11.301978     5A    -11.249864     6A     -1.637827
       7A     -1.422155     8A     -1.126173     9A     -0.966858
      10A     -0.839226    11A     -0.763956    12A     -0.740617
      13A     -0.730360    14A     -0.658150    15A     -0.590623
      16A     -0.561242    17A     -0.547370    18A     -0.488857
      19A     -0.479381    20A     -0.455068

  @DF-RHF Final Energy:  -282.81329818821018

   => Energetics <=

    Nuclear Repulsion Energy =            186.7362047775476697
    One-Electron Energy =                -755.9345242556198627
    Two-Electron Energy =                 286.3850212898621521
    DFT Exchange-Correlation Energy =       0.0000000000000000
    Empirical Dispersion Energy =           0.0000000000000000
    PCM Polarization Energy =               0.0000000000000000
    EFP Energy =                            0.0000000000000000
    Total Energy =                       -282.8132981882100694
    Molecular point group: c1
  Basis Set: CC-PVTZ
  Basis Set:

  -Total Gradient:
     Atom            X                  Y                   Z
    ------   -----------------  -----------------  -----------------
       1       -0.000042859273    -0.000006559109     0.000026809745
       2       -0.000035127798     0.000080107925     0.000030726081
       3        0.000007126112    -0.000236808934    -0.000122981358
       4       -0.000002871940    -0.000002156457     0.000013810295
       5       -0.000009107062     0.000031389557     0.000003548208
       6        0.000131616959     0.000281207706     0.000360284261
       7        0.000072491289    -0.000046511011     0.000000390967
       8       -0.000005407246    -0.000004143572    -0.000027622586
       9       -0.000056507316    -0.000124118076    -0.000251797154
      10       -0.000059353726     0.000027591973    -0.000033168460

  **** Optimization is complete! (in 5 steps) ****
    Final optimized geometry and variables:
    Molecular point group: c1

    Geometry (in Angstrom), charge = 0, multiplicity = 1:

    H            2.833725205314    -0.350130830529    -0.011850775522
    C            1.883632175407     0.020002205539    -0.374239462028
    C            0.783630902226    -0.468623004864     0.551922322038
    H            1.734369019496    -0.351475418583    -1.379712921791
    H            1.916538892492     1.099317595798    -0.396574134072
    N           -0.540375861364     0.017384838354     0.071773065919
    H            0.714572711013    -1.541748960346     0.579009053640
    H            0.895607427585    -0.067883461400     1.546746997325
    O           -0.755351087126     1.178784817698     0.173576066991
    O           -1.282696002159    -0.781070108898    -0.390988791561

  Mulliken Charges: (a.u.)
   Center  Symbol    Alpha    Beta     Spin     Total
       1     H     0.44821  0.44821  0.00000  0.10359
       2     C     3.14115  3.14115  0.00000 -0.28230
       3     C     3.03762  3.03762  0.00000 -0.07525
       4     H     0.44369  0.44369  0.00000  0.11262
       5     H     0.43792  0.43792  0.00000  0.12415
       6     N     3.27732  3.27732  0.00000  0.44536
       7     H     0.43314  0.43314  0.00000  0.13372
       8     H     0.43655  0.43655  0.00000  0.12689
       9     O     4.17487  4.17487  0.00000 -0.34974
      10     O     4.16952  4.16952  0.00000 -0.33904

   Total alpha = 20.00000, Total beta = 20.00000, Total charge = -0.00000
