  ==> Input File <==

--------------------------------------------------------------------------
set {
	reference rhf
	basis 6-31G*
}

set_num_threads( 4 )
memory 2 gb

molecule MOL {
0 1

H	 -2.646374	 -0.642757	 1.268656
C	 -2.083525	 -0.384536	 0.393091
O	 -0.807605	 -0.127164	 0.768327
F	 -2.118945	 -1.383102	 -0.486752
F	 -2.621877	 0.670592	 -0.209486
C	 0.084052	 0.273579	 -0.209957
C	 1.353033	 -0.546803	 -0.018071
Cl	 0.433844	 2.004619	 -0.074457
H	 -0.288836	 0.092657	 -1.202930
F	 1.062638	 -1.736398	 0.464290
F	 2.129040	 0.069060	 0.851391
F	 2.019609	 -0.695974	 -1.136730

	symmetry c1
}
set optking {
	frozen_dihedral = ("
		10 7 6 9
	")
}

ee = optimize('scf')
oeprop('DIPOLE', 'QUADRUPOLE', 'MULLIKEN_CHARGES')
f=open( 'psi4out.xyz', 'w' )
f.write( "12  " )
f.write( str(ee) + "\n" )
f.write( MOL.save_string_xyz() )
f.close()
--------------------------------------------------------------------------

    Molecular point group: c1
  Charge       = 0
  Multiplicity = 1
  Basis Set: 6-31G*
  Basis Set:
  @DF-RHF Final Energy: -1146.30768418722164
    Total Energy =                      -1146.3076841872216391
    Molecular point group: c1
  Basis Set: 6-31G*
  Basis Set:
  Basis Set: 6-31G*
  Basis Set:
  @DF-RHF Final Energy: -1146.30896783191452
    Total Energy =                      -1146.3089678319147424
  Basis Set: 6-31G*
  Basis Set:
  Basis Set: 6-31G*
  Basis Set:
  @DF-RHF Final Energy: -1146.30986289324710
    Total Energy =                      -1146.3098628932466454
  Basis Set: 6-31G*
  Basis Set:
  Basis Set: 6-31G*
  Basis Set:
  @DF-RHF Final Energy: -1146.30992654200691
    Total Energy =                      -1146.3099265420069059
  Basis Set: 6-31G*
  Basis Set:
  @DF-RHF Final Energy: -1146.30993844169529
    Total Energy =                      -1146.3099384416946123
  Basis Set: 6-31G*
  Basis Set:
  @DF-RHF Final Energy: -1146.30994703272972
    Total Energy =                      -1146.3099470327294966
  Basis Set: 6-31G*
  Basis Set:
  Basis Set: 6-31G*
  Basis Set:
  @DF-RHF Final Energy: -1146.30995901024653
    Total Energy =                      -1146.3099590102460752
  Basis Set: 6-31G*
  Basis Set:
  Basis Set: 6-31G*
  Basis Set:
  @DF-RHF Final Energy: -1146.30996793881241
    Total Energy =                      -1146.3099679388117238
  Basis Set: 6-31G*
  Basis Set:
  Charge       = 0
  Multiplicity = 1
  Basis Set: 6-31G*
  Basis Set:

    Orbital Energies (a.u.)
    -----------------------

    Doubly Occupied:

       1A   -104.842782     2A    -26.360986     3A    -26.358072
       4A    -26.355589     5A    -26.346958     6A    -26.346819
       7A    -20.649521     8A    -11.528356     9A    -11.490297
      10A    -11.401388    11A    -10.577423    12A     -8.046765
      13A     -8.043260    14A     -8.043120    15A     -1.761102
      16A     -1.718505    17A     -1.658444    18A     -1.654157
      19A     -1.639102    20A     -1.487025    21A     -1.178021
      22A     -1.048172    23A     -0.988114    24A     -0.919571
      25A     -0.858727    26A     -0.853665    27A     -0.843828
      28A     -0.825849    29A     -0.813199    30A     -0.790481
      31A     -0.729515    32A     -0.725765    33A     -0.705087
      34A     -0.701689    35A     -0.677327    36A     -0.675270
      37A     -0.657638    38A     -0.656864    39A     -0.646169
      40A     -0.631974    41A     -0.597613    42A     -0.578462
      43A     -0.523155    44A     -0.476441    45A     -0.467263

  @DF-RHF Final Energy: -1146.30996903573509

   => Energetics <=

    Nuclear Repulsion Energy =            737.2026179752272128
    One-Electron Energy =               -3057.2661169890566271
    Two-Electron Energy =                1173.7535299780947753
    DFT Exchange-Correlation Energy =       0.0000000000000000
    Empirical Dispersion Energy =           0.0000000000000000
    PCM Polarization Energy =               0.0000000000000000
    EFP Energy =                            0.0000000000000000
    Total Energy =                      -1146.3099690357348663
    Molecular point group: c1
  Basis Set: 6-31G*
  Basis Set:

  -Total Gradient:
     Atom            X                  Y                   Z
    ------   -----------------  -----------------  -----------------
       1        0.000009111783     0.000017184615     0.000017918634
       2       -0.000198728983    -0.000059276174    -0.000041921425
       3        0.000136279457    -0.000055778524    -0.000148968044
       4        0.000030406094     0.000098678495     0.000012649562
       5        0.000092770843    -0.000081744475     0.000030162478
       6       -0.004676405091    -0.005916529370     0.004189278512
       7        0.000205936161    -0.001241662888    -0.007388068408
       8       -0.000007007703     0.000111348625     0.000075406532
       9        0.003940949164     0.005352705011    -0.002156331668
      10        0.000461822687     0.001756224955     0.005616016286
      11        0.000008223254    -0.000013544428    -0.000166691549
      12       -0.000003357689     0.000032394095    -0.000039450912

  **** Optimization is complete! (in 9 steps) ****
    Final optimized geometry and variables:
    Molecular point group: c1

    Geometry (in Angstrom), charge = 0, multiplicity = 1:

    H           -2.678871354327    -0.605149851884     1.253146411117
    C           -2.088422683827    -0.390105809674     0.384288250165
    O           -0.849215546718    -0.024881092131     0.791169684981
    F           -2.023768510423    -1.459503243150    -0.405625013504
    F           -2.653357866647     0.576743324637    -0.332165789037
    C            0.066873190806     0.314302008257    -0.181677917718
    C            1.330535007586    -0.543591114672    -0.013736799250
    CL           0.467651102680     2.041154659768    -0.071325533291
    H           -0.292823551797     0.177020119171    -1.185761344344
    F            1.004189630944    -1.743164308216     0.413968458461
    F            2.185703463499    -0.040174751975     0.845272102967
    F            1.935535694467    -0.656003729376    -1.179132096864

  Mulliken Charges: (a.u.)
   Center  Symbol    Alpha    Beta     Spin     Total
       1     H     0.40078  0.40078  0.00000  0.19843
       2     C     2.56550  2.56550  0.00000  0.86899
       3     O     4.29349  4.29349  0.00000 -0.58698
       4     F     4.68665  4.68665  0.00000 -0.37329
       5     F     4.68504  4.68504  0.00000 -0.37008
       6     C     3.05971  3.05971  0.00000 -0.11942
       7     C     2.43007  2.43007  0.00000  1.13987
       8    CL     8.49884  8.49884  0.00000  0.00233
       9     H     0.36396  0.36396  0.00000  0.27209
      10     F     4.67225  4.67225  0.00000 -0.34451
      11     F     4.66738  4.66738  0.00000 -0.33476
      12     F     4.67633  4.67633  0.00000 -0.35267

   Total alpha = 45.00000, Total beta = 45.00000, Total charge =  0.00000
