  ==> Input File <==

--------------------------------------------------------------------------
set {
	reference rhf
	basis 6-31G*
}

set_num_threads( 1 )
memory 2 gb

molecule MOL {
0 1

H	 -0.000158	 1.970498	 0.756846
O	 -0.000074	 1.880206	 -0.189275
C	 -0.000015	 0.544847	 -0.545111
C	 -1.278788	 -0.123820	 -0.051541
C	 1.278802	 -0.123718	 -0.051505
H	 -0.000001	 0.490777	 -1.623619
F	 -1.059320	 -1.406124	 0.146131
F	 -1.708672	 0.394994	 1.079119
F	 -2.244373	 -0.013157	 -0.949870
F	 2.323327	 0.466644	 -0.591854
F	 1.326242	 -1.401483	 -0.363667
F	 1.388946	 -0.015632	 1.262939

	symmetry c1
}
set optking {
	frozen_dihedral = ("
		6 3 2 1
	")
}

ee = energy('scf')
oeprop('DIPOLE', 'QUADRUPOLE', 'MULLIKEN_CHARGES')
f=open( 'psi4out.xyz', 'w' )
f.write( "12  " )
f.write( str(ee) + "\n" )
f.write( MOL.save_string_xyz() )
f.close()
--------------------------------------------------------------------------

    Molecular point group: c1

    Geometry (in Angstrom), charge = 0, multiplicity = 1:

       Center              X                  Y                   Z               Mass
    ------------   -----------------  -----------------  -----------------  -----------------
           H         -0.003107104015     1.978803140407     0.760456964498     1.007825032070
           O         -0.003023104015     1.888511140407    -0.185664035502    15.994914619560
           C         -0.002964104015     0.553152140407    -0.541500035502    12.000000000000
           C         -1.281737104015    -0.115514859593    -0.047930035502    12.000000000000
           C          1.275852895985    -0.115412859593    -0.047894035502    12.000000000000
           H         -0.002950104015     0.499082140407    -1.620008035502     1.007825032070
           F         -1.062269104015    -1.397818859593     0.149741964498    18.998403224000
           F         -1.711621104015     0.403299140407     1.082729964498    18.998403224000
           F         -2.247322104015    -0.004851859593    -0.946259035502    18.998403224000
           F          2.320377895985     0.474949140407    -0.588243035502    18.998403224000
           F          1.323292895985    -1.393177859593    -0.360056035502    18.998403224000
           F          1.385996895985    -0.007326859593     1.266549964498    18.998403224000

  Charge       = 0
  Multiplicity = 1
  Basis Set: 6-31G*
  Basis Set:

    Orbital Energies (a.u.)
    -----------------------

    Doubly Occupied:

       1A    -26.366887     2A    -26.363578     3A    -26.358975
       4A    -26.358411     5A    -26.358104     6A    -26.357739
       7A    -20.615196     8A    -11.526311     9A    -11.524900
      10A    -11.348258    11A     -1.765531    12A     -1.758254
      13A     -1.663712    14A     -1.658113    15A     -1.657596
      16A     -1.652768    17A     -1.434271    18A     -1.101545
      19A     -0.997018    20A     -0.938450    21A     -0.865168
      22A     -0.861177    23A     -0.851947    24A     -0.844921
      25A     -0.833468    26A     -0.816101    27A     -0.741468
      28A     -0.728108    29A     -0.724611    30A     -0.719738
      31A     -0.688997    32A     -0.687856    33A     -0.681993
      34A     -0.676200    35A     -0.667483    36A     -0.660897
      37A     -0.655443    38A     -0.651153    39A     -0.621879
      40A     -0.550007    41A     -0.505011

  @DF-RHF Final Energy:  -786.27354139249860

   => Energetics <=

    Nuclear Repulsion Energy =            671.4005520918944967
    One-Electron Energy =               -2429.6700224852065730
    Two-Electron Energy =                 971.9959290008137032
    DFT Exchange-Correlation Energy =       0.0000000000000000
    Empirical Dispersion Energy =           0.0000000000000000
    PCM Polarization Energy =               0.0000000000000000
    EFP Energy =                            0.0000000000000000
    Total Energy =                       -786.2735413924983732

  Mulliken Charges: (a.u.)
   Center  Symbol    Alpha    Beta     Spin     Total
       1     H     0.26546  0.26546  0.00000  0.46907
       2     O     4.36300  4.36300  0.00000 -0.72601
       3     C     3.06336  3.06336  0.00000 -0.12673
       4     C     2.43327  2.43327  0.00000  1.13345
       5     C     2.44300  2.44300  0.00000  1.11401
       6     H     0.37212  0.37212  0.00000  0.25576
       7     F     4.67480  4.67480  0.00000 -0.34961
       8     F     4.67607  4.67607  0.00000 -0.35214
       9     F     4.67885  4.67885  0.00000 -0.35771
      10     F     4.67507  4.67507  0.00000 -0.35014
      11     F     4.67343  4.67343  0.00000 -0.34686
      12     F     4.68155  4.68155  0.00000 -0.36310

   Total alpha = 41.00000, Total beta = 41.00000, Total charge =  0.00000
