                              Psi4 1.0.54 Driver

  ==> Input File <==

--------------------------------------------------------------------------
set {
	reference rhf
	basis cc-pvtz
}

set_num_threads( 4 )
memory 2 gb

molecule MOL {
0 1

O	 -0.995870	 2.338761	 1.485287
C	 -1.000518	 1.946594	 0.363853
C	 0.243675	 1.345166	 -0.259297
C	 -2.243842	 2.007676	 -0.491239
C	 0.376695	 -0.140025	 0.100361
H	 1.097705	 1.889486	 0.123403
H	 0.219045	 1.462833	 -1.337450
C	 1.630207	 -0.772146	 -0.501001
H	 0.387522	 -0.228459	 1.179384
H	 -0.498756	 -0.681720	 -0.249569
C	 2.907848	 -0.545876	 0.309149
H	 1.772784	 -0.391628	 -1.509394
H	 1.468529	 -1.842059	 -0.599744
C	 3.373802	 0.906639	 0.372125
H	 3.699140	 -1.146831	 -0.127906
H	 2.764321	 -0.923458	 1.318191
H	 3.519798	 1.311927	 -0.623875
H	 4.316899	 0.983758	 0.900700
H	 2.661122	 1.540651	 0.885346
H	 -2.090193	 2.722176	 -1.293660
H	 -3.090593	 2.311858	 0.104627
H	 -2.439292	 1.045891	 -0.952063

	symmetry c1
}
set optking {
	frozen_dihedral = ("
		3 5 8 12
	")
}

ee,wfn = optimize('scf', return_wfn=True)
oeprop( wfn, 'DIPOLE', 'QUADRUPOLE', 'MULLIKEN_CHARGES')
f=open( 'psi4out.xyz', 'w' )
f.write( "22  " )
f.write( str(ee) + "\n" )
f.write( MOL.save_string_xyz() )
f.close()
--------------------------------------------------------------------------

    Molecular point group: c1
  Charge       = 0
  Multiplicity = 1
  Basis Set: CC-PVTZ
  Basis Set:
  @DF-RHF Final Energy:  -348.21523801507590
    Total Energy =                       -348.2152380150758404
    Molecular point group: c1
  Basis Set: CC-PVTZ
  Basis Set:
  Basis Set: CC-PVTZ
  Basis Set:
  @DF-RHF Final Energy:  -348.21798581327982
    Total Energy =                       -348.2179858132793129
  Basis Set: CC-PVTZ
  Basis Set:
  Basis Set: CC-PVTZ
  Basis Set:
  @DF-RHF Final Energy:  -348.21865600303289
    Total Energy =                       -348.2186560030335727
  Basis Set: CC-PVTZ
  Basis Set:
  Basis Set: CC-PVTZ
  Basis Set:
  @DF-RHF Final Energy:  -348.21821263066516
    Total Energy =                       -348.2182126306651639
  Basis Set: CC-PVTZ
  Basis Set:
  Basis Set: CC-PVTZ
  Basis Set:
  @DF-RHF Final Energy:  -348.21874235168946
    Total Energy =                       -348.2187423516894569
  Basis Set: CC-PVTZ
  Basis Set:
  Basis Set: CC-PVTZ
  Basis Set:
  @DF-RHF Final Energy:  -348.21874212039785
    Total Energy =                       -348.2187421203979056
  Basis Set: CC-PVTZ
  Basis Set:
  Basis Set: CC-PVTZ
  Basis Set:
  @DF-RHF Final Energy:  -348.21874393183890
    Total Energy =                       -348.2187439318390716
  Basis Set: CC-PVTZ
  Basis Set:
  Charge       = 0
  Multiplicity = 1
  Basis Set: CC-PVTZ
  Basis Set:

    Orbital Energies (a.u.)
    -----------------------

    Doubly Occupied:

       1A    -20.536555     2A    -11.318877     3A    -11.228822
       4A    -11.226661     5A    -11.226222     6A    -11.221231
       7A    -11.218598     8A    -11.209395     9A     -1.396505
      10A     -1.094834    11A     -1.043321    12A     -0.999042
      13A     -0.945139    14A     -0.857939    15A     -0.783505
      16A     -0.735336    17A     -0.659394    18A     -0.652271
      19A     -0.627858    20A     -0.611436    21A     -0.599508
      22A     -0.588244    23A     -0.557898    24A     -0.551106
      25A     -0.533133    26A     -0.526106    27A     -0.499864
      28A     -0.491130    29A     -0.468352    30A     -0.466032
      31A     -0.454136    32A     -0.397926

  @DF-RHF Final Energy:  -348.21875618190359

   => Energetics <=

    Nuclear Repulsion Energy =            379.2381281804674700
    One-Electron Energy =               -1223.4610145232927607
    Two-Electron Energy =                 496.0041301609219317
    DFT Exchange-Correlation Energy =       0.0000000000000000
    Empirical Dispersion Energy =           0.0000000000000000
    PCM Polarization Energy =               0.0000000000000000
    EFP Energy =                            0.0000000000000000
    Total Energy =                       -348.2187561819033590
    Molecular point group: c1
  Basis Set: CC-PVTZ
  Basis Set:

  -Total Gradient:
     Atom            X                  Y                   Z
    ------   -----------------  -----------------  -----------------
       1        0.000026896016     0.000064937881     0.000166009693
       2       -0.000013382462    -0.000066693385    -0.000158240517
       3        0.000391444711     0.000270739133     0.000591334844
       4       -0.000005506192     0.000049729213    -0.000030759168
       5       -0.000692984846    -0.000591378891    -0.000873212770
       6        0.000013091003     0.000043603696     0.000014261415
       7       -0.000007030643     0.000006306020    -0.000039114614
       8        0.000833667567     0.001090816864     0.000544301553
       9        0.000017758865    -0.000009324880     0.000015189320
      10       -0.000007218870    -0.000025597228     0.000001571371
      11        0.000023341422     0.000005530387     0.000022827786
      12       -0.000582409208    -0.000787614141    -0.000289906436
      13       -0.000010615026    -0.000014409951    -0.000006603520
      14       -0.000029715839     0.000014382929     0.000010674777
      15       -0.000007222504    -0.000018772222    -0.000004637898
      16        0.000014887985     0.000003522363     0.000022885930
      17       -0.000000821231    -0.000004485981    -0.000007047592
      18        0.000037537598    -0.000005074866     0.000012931118
      19        0.000003282348     0.000026929239     0.000011344277
      20        0.000000558335    -0.000011874982    -0.000018644276
      21        0.000008119664    -0.000003613125     0.000032201807
      22       -0.000013678693    -0.000037658071    -0.000017367097

  **** Optimization is complete! (in 8 steps) ****
    Final optimized geometry and variables:
    Molecular point group: c1

    Geometry (in Angstrom), charge = 0, multiplicity = 1:

    O           -1.629525354668     1.527200527374     1.204113525600
    C           -1.624981398302     1.033412818700     0.123308991033
    C           -0.348775483080     0.472066113654    -0.472576445805
    C           -2.884696360798     0.926179954110    -0.702746893885
    C           -0.119047531885    -0.969810792288     0.006104716855
    H            0.460397592844     1.115619828385    -0.164867084005
    H           -0.403583259656     0.488182220546    -1.556151486706
    C            1.133782156745    -1.654233398113    -0.559090296498
    H           -0.085382434124    -0.978474743627     1.090425947289
    H           -0.983958873136    -1.562634161531    -0.275957961430
    C            2.451650755694    -1.419810526641     0.186129963421
    H            1.249014641477    -1.391545752219    -1.608110927065
    H            0.953448758564    -2.724584338647    -0.545061495978
    C            3.006594268738     0.002655376808     0.177086391098
    H            3.193303318596    -2.079048515460    -0.254772121999
    H            2.334041840008    -1.747923285937     1.215253369407
    H            3.066869845904     0.397829949138    -0.831912126089
    H            4.006607190331     0.016918030322     0.595205627026
    H            2.403551023216     0.679967745302     0.767697848784
    H           -2.800810333839     1.579616273455    -1.565324616689
    H           -3.741290205209     1.215843788740    -0.113731640524
    H           -3.014348543767    -0.083025227485    -1.077144511698

  Mulliken Charges: (a.u.)
   Center  Symbol    Alpha    Beta     Spin     Total
       1     O     4.17758  4.17758  0.00000 -0.35515
       2     C     2.85737  2.85737  0.00000  0.28527
       3     C     3.10254  3.10254  0.00000 -0.20507
       4     C     3.15521  3.15521  0.00000 -0.31041
       5     C     3.11068  3.11068  0.00000 -0.22136
       6     H     0.43516  0.43516  0.00000  0.12969
       7     H     0.44878  0.44878  0.00000  0.10244
       8     C     3.10335  3.10335  0.00000 -0.20670
       9     H     0.44040  0.44040  0.00000  0.11919
      10     H     0.44413  0.44413  0.00000  0.11175
      11     C     3.08356  3.08356  0.00000 -0.16711
      12     H     0.45302  0.45302  0.00000  0.09397
      13     H     0.44415  0.44415  0.00000  0.11170
      14     C     3.16255  3.16255  0.00000 -0.32509
      15     H     0.44873  0.44873  0.00000  0.10254
      16     H     0.45263  0.45263  0.00000  0.09475
      17     H     0.45354  0.45354  0.00000  0.09292
      18     H     0.44284  0.44284  0.00000  0.11432
      19     H     0.44868  0.44868  0.00000  0.10263
      20     H     0.44817  0.44817  0.00000  0.10365
      21     H     0.43605  0.43605  0.00000  0.12790
      22     H     0.45091  0.45091  0.00000  0.09818

   Total alpha = 32.00000, Total beta = 32.00000, Total charge = -0.00000

*** Psi4 exiting successfully. Buy a developer a beer!
