  ==> Input File <==

--------------------------------------------------------------------------
set {
	reference rhf
	basis 6-31G*
}

set_num_threads( 4 )
memory 2 gb

molecule MOL {
0 1

H	 -0.111376	 2.519230	 0.448362
C	 0.751261	 1.859460	 0.552509
N	 0.538815	 0.649616	 0.000000
O	 1.753095	 2.210436	 1.102376
C	 1.521968	 -0.411503	 0.000000
H	 -0.342941	 0.484965	 -0.428579
H	 2.150599	 -0.357004	 -0.881901
H	 0.999455	 -1.354525	 0.000000
H	 2.150599	 -0.357004	 0.881901

	symmetry c1
}
set optking {
	frozen_dihedral = ("
		6 3 5 7
	")
}

ee = optimize('scf')
oeprop('DIPOLE', 'QUADRUPOLE', 'MULLIKEN_CHARGES')
f=open( 'psi4out.xyz', 'w' )
f.write( "9  " )
f.write( str(ee) + "\n" )
f.write( MOL.save_string_xyz() )
f.close()
--------------------------------------------------------------------------

    Molecular point group: c1
  Charge       = 0
  Multiplicity = 1
  Basis Set: 6-31G*
  Basis Set:
  @DF-RHF Final Energy:  -207.96070931664954
    Total Energy =                       -207.9607093166494849
    Molecular point group: c1
  Basis Set: 6-31G*
  Basis Set:
  Basis Set: 6-31G*
  Basis Set:
  @DF-RHF Final Energy:  -207.96096670768696
    Total Energy =                       -207.9609667076869073
  Basis Set: 6-31G*
  Basis Set:
  Basis Set: 6-31G*
  Basis Set:
  @DF-RHF Final Energy:  -207.96095404211627
    Total Energy =                       -207.9609540421163274
  Basis Set: 6-31G*
  Basis Set:
  Basis Set: 6-31G*
  Basis Set:
  @DF-RHF Final Energy:  -207.96103283638689
    Total Energy =                       -207.9610328363868348
  Basis Set: 6-31G*
  Basis Set:
  Basis Set: 6-31G*
  Basis Set:
  @DF-RHF Final Energy:  -207.96105679413733
    Total Energy =                       -207.9610567941374200
  Basis Set: 6-31G*
  Basis Set:
  Basis Set: 6-31G*
  Basis Set:
  @DF-RHF Final Energy:  -207.96106397284970
    Total Energy =                       -207.9610639728497574
  Basis Set: 6-31G*
  Basis Set:
  Basis Set: 6-31G*
  Basis Set:
  @DF-RHF Final Energy:  -207.96106693927999
    Total Energy =                       -207.9610669392800162
  Basis Set: 6-31G*
  Basis Set:
  Charge       = 0
  Multiplicity = 1
  Basis Set: 6-31G*
  Basis Set:

    Orbital Energies (a.u.)
    -----------------------

    Doubly Occupied:

       1A    -20.526120     2A    -15.590571     3A    -11.343312
       4A    -11.260898     5A     -1.389414     6A     -1.236193
       7A     -0.967991     8A     -0.807664     9A     -0.746471
      10A     -0.641342    11A     -0.626694    12A     -0.592717
      13A     -0.556756    14A     -0.534088    15A     -0.424027
      16A     -0.391159

  @DF-RHF Final Energy:  -207.96106738678316

   => Energetics <=

    Nuclear Repulsion Energy =            122.6222579481834458
    One-Electron Energy =                -525.8958147883013226
    Two-Electron Energy =                 195.3124894533346492
    DFT Exchange-Correlation Energy =       0.0000000000000000
    Empirical Dispersion Energy =           0.0000000000000000
    PCM Polarization Energy =               0.0000000000000000
    EFP Energy =                            0.0000000000000000
    Total Energy =                       -207.9610673867832134
    Molecular point group: c1
  Basis Set: 6-31G*
  Basis Set:

  -Total Gradient:
     Atom            X                  Y                   Z
    ------   -----------------  -----------------  -----------------
       1        0.000002674228     0.000005784611    -0.000000460587
       2       -0.000026655023    -0.000036220121     0.000027897450
       3        0.000024409857     0.000040379339    -0.000077776243
       4        0.000011931848     0.000010478070     0.000011029075
       5       -0.000007087071    -0.000014948732     0.000026031661
       6       -0.000005009285    -0.000008437419     0.000016342994
       7       -0.000008706738    -0.000005994895    -0.000007570339
       8        0.000000884856    -0.000000518046     0.000010718639
       9        0.000007557326     0.000009477190    -0.000006212650

  **** Optimization is complete! (in 8 steps) ****
    Final optimized geometry and variables:
    Molecular point group: c1

    Geometry (in Angstrom), charge = 0, multiplicity = 1:

    H           -1.246583260316     1.472594378427     0.048968208395
    C           -0.391627406319     0.800189297936     0.135625134547
    N           -0.644358516217    -0.428246708172    -0.354029226533
    O            0.640683358631     1.145113937471     0.630097646132
    C            0.364612248225    -1.464892218798    -0.396742052339
    H           -1.508591446752    -0.577277992636    -0.821391164576
    H            1.029628379614    -1.348041003387    -1.246072399738
    H           -0.121247687026    -2.429619488400    -0.460995083041
    H            0.953291962549    -1.426731501519     0.507464029492

  Mulliken Charges: (a.u.)
   Center  Symbol    Alpha    Beta     Spin     Total
       1     H     0.42705  0.42705  0.00000  0.14590
       2     C     2.74674  2.74674  0.00000  0.50651
       3     N     3.87438  3.87438  0.00000 -0.74875
       4     O     4.28320  4.28320  0.00000 -0.56640
       5     C     3.13922  3.13922  0.00000 -0.27845
       6     H     0.30878  0.30878  0.00000  0.38243
       7     H     0.41134  0.41134  0.00000  0.17732
       8     H     0.41500  0.41500  0.00000  0.17000
       9     H     0.39428  0.39428  0.00000  0.21143

   Total alpha = 16.00000, Total beta = 16.00000, Total charge =  0.00000
