  ==> Input File <==

--------------------------------------------------------------------------
set {
	reference rhf
	basis 6-31G*
}

set_num_threads( 4 )
memory 2 gb

molecule MOL {
0 1

O	 -1.276010	 1.052711	 -0.768302
C	 -1.204840	 0.067374	 -0.106123
C	 -2.388195	 -0.672128	 0.458071
O	 -0.067104	 -0.527208	 0.221609
H	 -2.388023	 -1.694060	 0.097175
H	 -3.300579	 -0.174919	 0.164318
H	 -2.315377	 -0.706351	 1.539059
C	 1.170111	 0.034140	 -0.238951
C	 1.504738	 1.155706	 0.728366
C	 1.014657	 0.512068	 -1.674244
H	 1.923280	 -0.738463	 -0.190687
H	 1.590816	 0.775843	 1.740068
H	 2.447734	 1.617013	 0.453981
H	 0.732876	 1.917722	 0.713770
H	 1.940946	 0.958933	 -2.021109
H	 0.772280	 -0.314480	 -2.330024
H	 0.228837	 1.257603	 -1.742595

	symmetry c1
}
set optking {
	frozen_dihedral = ("
		11 8 4 2
	")
}

ee = optimize('scf')
oeprop('DIPOLE', 'QUADRUPOLE', 'MULLIKEN_CHARGES')
f=open( 'psi4out.xyz', 'w' )
f.write( "17  " )
f.write( str(ee) + "\n" )
f.write( MOL.save_string_xyz() )
f.close()
--------------------------------------------------------------------------

    Molecular point group: c1
  Charge       = 0
  Multiplicity = 1
  Basis Set: 6-31G*
  Basis Set:
  @DF-RHF Final Energy:  -344.89160833927042
    Total Energy =                       -344.8916083392704763
    Molecular point group: c1
  Basis Set: 6-31G*
  Basis Set:
  Basis Set: 6-31G*
  Basis Set:
  @DF-RHF Final Energy:  -344.90542982135850
    Total Energy =                       -344.9054298213584957
  Basis Set: 6-31G*
  Basis Set:
  Basis Set: 6-31G*
  Basis Set:
  @DF-RHF Final Energy:  -344.90805677204349
    Total Energy =                       -344.9080567720432100
  Basis Set: 6-31G*
  Basis Set:
  Basis Set: 6-31G*
  Basis Set:
  @DF-RHF Final Energy:  -344.90812217496358
    Total Energy =                       -344.9081221749636939
  Basis Set: 6-31G*
  Basis Set:
  @DF-RHF Final Energy:  -344.90776314480968
    Total Energy =                       -344.9077631448096781
  Basis Set: 6-31G*
  Basis Set:
  @DF-RHF Final Energy:  -344.90861364221865
    Total Energy =                       -344.9086136422187110
  Basis Set: 6-31G*
  Basis Set:
  Basis Set: 6-31G*
  Basis Set:
  @DF-RHF Final Energy:  -344.90862774833278
    Total Energy =                       -344.9086277483328331
  Basis Set: 6-31G*
  Basis Set:
  Basis Set: 6-31G*
  Basis Set:
  @DF-RHF Final Energy:  -344.90862933133417
    Total Energy =                       -344.9086293313341116
  Basis Set: 6-31G*
  Basis Set:
  Charge       = 0
  Multiplicity = 1
  Basis Set: 6-31G*
  Basis Set:

    Orbital Energies (a.u.)
    -----------------------

    Doubly Occupied:

       1A    -20.596922     2A    -20.541374     3A    -11.374631
       4A    -11.294591     5A    -11.230804     6A    -11.216310
       7A    -11.213312     8A     -1.461732     9A     -1.360813
      10A     -1.076573    11A     -1.003056    12A     -0.946090
      13A     -0.866811    14A     -0.731952    15A     -0.694224
      16A     -0.670309    17A     -0.658920    18A     -0.615512
      19A     -0.584927    20A     -0.580206    21A     -0.568780
      22A     -0.551835    23A     -0.529191    24A     -0.518530
      25A     -0.499234    26A     -0.482227    27A     -0.444476
      28A     -0.428323

  @DF-RHF Final Energy:  -344.90862985568987

   => Energetics <=

    Nuclear Repulsion Energy =            326.4412614652979414
    One-Electron Energy =               -1117.2164467651018640
    Two-Electron Energy =                 445.8665554441142262
    DFT Exchange-Correlation Energy =       0.0000000000000000
    Empirical Dispersion Energy =           0.0000000000000000
    PCM Polarization Energy =               0.0000000000000000
    EFP Energy =                            0.0000000000000000
    Total Energy =                       -344.9086298556897532
    Molecular point group: c1
  Basis Set: 6-31G*
  Basis Set:

  -Total Gradient:
     Atom            X                  Y                   Z
    ------   -----------------  -----------------  -----------------
       1       -0.000014210779     0.000009474586     0.000042378811
       2       -0.000289441114    -0.002500620229    -0.003760064334
       3       -0.000001093481    -0.000030601533    -0.000049026532
       4        0.000308010949     0.003605773519     0.004918507497
       5        0.000004193759     0.000001361852     0.000027955501
       6       -0.000000089817     0.000001030844     0.000008963991
       7       -0.000006189373     0.000018604142     0.000020961392
       8        0.001131845516     0.000158847872     0.003172824464
       9       -0.000007227754     0.000001350343     0.000012442282
      10       -0.000037925919     0.000009673908     0.000009985833
      11       -0.001113688463    -0.001282238943    -0.004413832983
      12       -0.000006306784     0.000006653209     0.000000109246
      13       -0.000006050725     0.000002834003     0.000005403984
      14       -0.000006620841     0.000009822494     0.000002220551
      15        0.000012843522     0.000004912929    -0.000000764690
      16        0.000006335407    -0.000015047032     0.000000978017
      17        0.000025615898    -0.000001831962     0.000000956972

  **** Optimization is complete! (in 9 steps) ****
    Final optimized geometry and variables:
    Molecular point group: c1

    Geometry (in Angstrom), charge = 0, multiplicity = 1:

    O           -1.246143762029     0.881240616005    -0.388095232205
    C           -1.082574293541    -0.172926669342     0.137214173266
    C           -2.198971666030    -1.065736768636     0.612609769539
    O            0.095990157510    -0.712433760052     0.404977456770
    H           -2.142226721954    -2.023445499518     0.108185378033
    H           -3.149913164401    -0.595936794692     0.410061342368
    H           -2.093494309376    -1.248752558363     1.675673681930
    C            1.337901963404    -0.160300709496    -0.066563154517
    C            1.792409557718     0.957680484662     0.856721388963
    C            1.319362218631     0.234353059027    -1.540336839169
    H            1.999624610764    -1.011878366219     0.015137342987
    H            1.817378676192     0.614653139973     1.885035725465
    H            2.790267056068     1.284869994473     0.582249191723
    H            1.122110899553     1.805900267402     0.787727123408
    H            2.346029632142     0.368535958597    -1.867959797492
    H            0.881818533808    -0.556639912897    -2.140589855463
    H            0.773479777516     1.147493715818    -1.719230389238

  Mulliken Charges: (a.u.)
   Center  Symbol    Alpha    Beta     Spin     Total
       1     O     4.28640  4.28640  0.00000 -0.57279
       2     C     2.61507  2.61507  0.00000  0.76986
       3     C     3.28062  3.28062  0.00000 -0.56125
       4     O     4.32090  4.32090  0.00000 -0.64179
       5     H     0.40195  0.40195  0.00000  0.19609
       6     H     0.39800  0.39800  0.00000  0.20400
       7     H     0.40081  0.40081  0.00000  0.19838
       8     C     2.91409  2.91409  0.00000  0.17182
       9     C     3.25102  3.25102  0.00000 -0.50203
      10     C     3.25824  3.25824  0.00000 -0.51648
      11     H     0.40988  0.40988  0.00000  0.18023
      12     H     0.41307  0.41307  0.00000  0.17385
      13     H     0.41875  0.41875  0.00000  0.16251
      14     H     0.40258  0.40258  0.00000  0.19483
      15     H     0.41970  0.41970  0.00000  0.16059
      16     H     0.41564  0.41564  0.00000  0.16872
      17     H     0.39327  0.39327  0.00000  0.21345

   Total alpha = 28.00000, Total beta = 28.00000, Total charge = -0.00000
