  ==> Input File <==

--------------------------------------------------------------------------
set {
	reference rhf
	basis 6-31G*
}

set_num_threads( 4 )
memory 2 gb

molecule MOL {
0 1

O	 -0.682937	 1.318834	 -0.186099
C	 -0.860635	 0.152188	 -0.042321
C	 -2.173363	 -0.477127	 0.338347
O	 0.083258	 -0.765189	 -0.202595
H	 -2.477673	 -1.180929	 -0.427595
H	 -2.923125	 0.290956	 0.455536
H	 -2.058825	 -1.029004	 1.264191
C	 0.862817	 -0.734817	 -1.395978
C	 2.016629	 0.244166	 -1.282150
H	 0.223598	 -0.492477	 -2.231329
H	 1.223503	 -1.746962	 -1.509854
H	 2.633938	 0.189396	 -2.173587
H	 1.653046	 1.259152	 -1.182251
H	 2.635633	 0.006078	 -0.423918

	symmetry c1
}
set optking {
	frozen_dihedral = ("
		8 4 2 1
	")
}

ee = optimize('scf')
oeprop('DIPOLE', 'QUADRUPOLE', 'MULLIKEN_CHARGES')
f=open( 'psi4out.xyz', 'w' )
f.write( "14  " )
f.write( str(ee) + "\n" )
f.write( MOL.save_string_xyz() )
f.close()
--------------------------------------------------------------------------

    Molecular point group: c1
  Charge       = 0
  Multiplicity = 1
  Basis Set: 6-31G*
  Basis Set:
  @DF-RHF Final Energy:  -305.86308428757525
    Total Energy =                       -305.8630842875754183
    Molecular point group: c1
  Basis Set: 6-31G*
  Basis Set:
  Basis Set: 6-31G*
  Basis Set:
  @DF-RHF Final Energy:  -305.86130505121776
    Total Energy =                       -305.8613050512179257
  Basis Set: 6-31G*
  Basis Set:
  Basis Set: 6-31G*
  Basis Set:
  @DF-RHF Final Energy:  -305.86425918273255
    Total Energy =                       -305.8642591827326669
  Basis Set: 6-31G*
  Basis Set:
  Basis Set: 6-31G*
  Basis Set:
  @DF-RHF Final Energy:  -305.86442395097441
    Total Energy =                       -305.8644239509743556
  Basis Set: 6-31G*
  Basis Set:
  Basis Set: 6-31G*
  Basis Set:
  @DF-RHF Final Energy:  -305.86449960193329
    Total Energy =                       -305.8644996019332325
  Basis Set: 6-31G*
  Basis Set:
  Basis Set: 6-31G*
  Basis Set:
  @DF-RHF Final Energy:  -305.86451805761897
    Total Energy =                       -305.8645180576190796
  Basis Set: 6-31G*
  Basis Set:
  Basis Set: 6-31G*
  Basis Set:
  @DF-RHF Final Energy:  -305.86452086842075
    Total Energy =                       -305.8645208684207546
  Basis Set: 6-31G*
  Basis Set:
  Charge       = 0
  Multiplicity = 1
  Basis Set: 6-31G*
  Basis Set:

    Orbital Energies (a.u.)
    -----------------------

    Doubly Occupied:

       1A    -20.591057     2A    -20.551151     3A    -11.377280
       4A    -11.291687     5A    -11.234595     6A    -11.215794
       7A     -1.461709     8A     -1.364180     9A     -1.051808
      10A     -1.000311    11A     -0.878673    12A     -0.771646
      13A     -0.696519    14A     -0.681054    15A     -0.653257
      16A     -0.612747    17A     -0.583633    18A     -0.573674
      19A     -0.563119    20A     -0.533023    21A     -0.505523
      22A     -0.497660    23A     -0.447977    24A     -0.438478

  @DF-RHF Final Energy:  -305.86452110668404

   => Energetics <=

    Nuclear Repulsion Energy =            247.1039947399486607
    One-Electron Energy =                -906.7839237943694570
    Two-Electron Energy =                 353.8154079477366736
    DFT Exchange-Correlation Energy =       0.0000000000000000
    Empirical Dispersion Energy =           0.0000000000000000
    PCM Polarization Energy =               0.0000000000000000
    EFP Energy =                            0.0000000000000000
    Total Energy =                       -305.8645211066840943
    Molecular point group: c1
  Basis Set: 6-31G*
  Basis Set:

  -Total Gradient:
     Atom            X                  Y                   Z
    ------   -----------------  -----------------  -----------------
       1        0.002285383600     0.002229785876     0.009832462085
       2       -0.005823940511    -0.006181313703    -0.016065955997
       3       -0.000050238485    -0.000107221357    -0.000061547231
       4        0.008234679971     0.010053753314     0.009411889310
       5       -0.000020173542     0.000003203047    -0.000012058615
       6        0.000039755852     0.000000195616    -0.000001823254
       7        0.000015963559     0.000003247969     0.000015267259
       8       -0.004692972795    -0.006057053801    -0.003046497972
       9        0.000032875415     0.000046551042    -0.000013896186
      10       -0.000003278372    -0.000008421898     0.000007009397
      11       -0.000002121549     0.000029411673    -0.000045089968
      12        0.000015950399    -0.000029097999    -0.000016470294
      13       -0.000003818691     0.000014751743     0.000019352616
      14       -0.000028064847     0.000002208474    -0.000022641151

  **** Optimization is complete! (in 8 steps) ****
    Final optimized geometry and variables:
    Molecular point group: c1

    Geometry (in Angstrom), charge = 0, multiplicity = 1:

    O           -0.757698611388     1.342731153579     0.075146255229
    C           -0.813412139220     0.191493697186     0.353336860560
    C           -2.029332877239    -0.496798632154     0.910086195835
    O            0.244583579655    -0.626384663861     0.302218590156
    H           -2.345865186207    -1.280705172657     0.230273109696
    H           -2.827888138006     0.216775127914     1.048790284737
    H           -1.778431669352    -0.967349102792     1.853699061422
    C            1.033460043995    -0.635389267208    -0.886975697940
    C            2.280031566042     0.214800679946    -0.734110595798
    H            0.431141506804    -0.289234005822    -1.717064789193
    H            1.285920867624    -1.673382101837    -1.052514212413
    H            2.893958183651     0.139104530002    -1.626908127002
    H            2.013924653986     1.252592550390    -0.580113821239
    H            2.865648650337    -0.123650645071     0.113419444324

  Mulliken Charges: (a.u.)
   Center  Symbol    Alpha    Beta     Spin     Total
       1     O     4.26809  4.26809  0.00000 -0.53618
       2     C     2.62382  2.62382  0.00000  0.75237
       3     C     3.28316  3.28316  0.00000 -0.56631
       4     O     4.31279  4.31279  0.00000 -0.62557
       5     H     0.40429  0.40429  0.00000  0.19142
       6     H     0.39780  0.39780  0.00000  0.20441
       7     H     0.39808  0.39808  0.00000  0.20383
       8     C     3.00503  3.00503  0.00000 -0.01006
       9     C     3.24841  3.24841  0.00000 -0.49681
      10     H     0.41432  0.41432  0.00000  0.17135
      11     H     0.41010  0.41010  0.00000  0.17981
      12     H     0.42143  0.42143  0.00000  0.15715
      13     H     0.39958  0.39958  0.00000  0.20085
      14     H     0.41312  0.41312  0.00000  0.17376

   Total alpha = 24.00000, Total beta = 24.00000, Total charge = -0.00000
