                              Psi4 1.0.54 Driver

  ==> Input File <==

--------------------------------------------------------------------------
set {
	reference rhf
	basis cc-pvtz
}

set_num_threads( 4 )
memory 2 gb

molecule MOL {
0 1

O	 1.566471	 0.001110	 -0.929478
C	 0.860843	 0.273204	 -0.013120
C	 -0.623368	 -0.117453	 -0.005652
C	 1.427530	 1.027049	 1.173728
C	 -0.892588	 -1.253841	 -1.002900
C	 -1.473463	 1.100646	 -0.372896
C	 -0.981836	 -0.579025	 1.418506
H	 -0.609333	 -0.970024	 -2.010649
H	 -1.950451	 -1.487353	 -1.013175
H	 -0.360848	 -2.161259	 -0.746463
H	 -1.232203	 1.461623	 -1.364827
H	 -2.524364	 0.834451	 -0.354500
H	 -1.312381	 1.914833	 0.318657
H	 -2.035706	 -0.826342	 1.468082
H	 -0.425078	 -1.458934	 1.716857
H	 -0.788494	 0.205047	 2.140903
H	 1.611318	 0.329838	 1.983594
H	 2.364871	 1.476363	 0.883939
H	 0.752488	 1.786259	 1.544066

	symmetry c1
}
set optking {
	frozen_dihedral = ("
		1 2 3 5
	")
}

ee,wfn = optimize('scf', return_wfn=True)
oeprop( wfn, 'DIPOLE', 'QUADRUPOLE', 'MULLIKEN_CHARGES')
f=open( 'psi4out.xyz', 'w' )
f.write( "19  " )
f.write( str(ee) + "\n" )
f.write( MOL.save_string_xyz() )
f.close()
--------------------------------------------------------------------------

    Molecular point group: c1
  Charge       = 0
  Multiplicity = 1
  Basis Set: CC-PVTZ
  Basis Set:
  @DF-RHF Final Energy:  -309.17285827027257
    Total Energy =                       -309.1728582702723997
    Molecular point group: c1
  Basis Set: CC-PVTZ
  Basis Set:
  Basis Set: CC-PVTZ
  Basis Set:
  @DF-RHF Final Energy:  -309.17251336861955
    Total Energy =                       -309.1725133686197751
  Basis Set: CC-PVTZ
  Basis Set:
  Basis Set: CC-PVTZ
  Basis Set:
  @DF-RHF Final Energy:  -309.17252231189730
    Total Energy =                       -309.1725223118974100
  Basis Set: CC-PVTZ
  Basis Set:
  Basis Set: CC-PVTZ
  Basis Set:
  @DF-RHF Final Energy:  -309.17388781045662
    Total Energy =                       -309.1738878104565629
  Basis Set: CC-PVTZ
  Basis Set:
  @DF-RHF Final Energy:  -309.17393104854324
    Total Energy =                       -309.1739310485434657
  @DF-RHF Final Energy:  -309.17418915108686
    Total Energy =                       -309.1741891510870346
  @DF-RHF Final Energy:  -309.17423808981920
    Total Energy =                       -309.1742380898190277
  Basis Set: CC-PVTZ
  Basis Set:
  @DF-RHF Final Energy:  -309.17424065841459
    Total Energy =                       -309.1742406584151013
  Basis Set: CC-PVTZ
  Basis Set:
  Basis Set: CC-PVTZ
  Basis Set:
  @DF-RHF Final Energy:  -309.17424524242330
    Total Energy =                       -309.1742452424234102
  Basis Set: CC-PVTZ
  Basis Set:
  Basis Set: CC-PVTZ
  Basis Set:
  @DF-RHF Final Energy:  -309.17424768101210
    Total Energy =                       -309.1742476810119911
  Basis Set: CC-PVTZ
  Basis Set:
  Charge       = 0
  Multiplicity = 1
  Basis Set: CC-PVTZ
  Basis Set:

    Orbital Energies (a.u.)
    -----------------------

    Doubly Occupied:

       1A    -20.537263     2A    -11.317854     3A    -11.245686
       4A    -11.225326     5A    -11.222200     6A    -11.221576
       7A    -11.206807     8A     -1.398397     9A     -1.110803
      10A     -1.003358    11A     -0.947494    12A     -0.936137
      13A     -0.835618    14A     -0.705498    15A     -0.666749
      16A     -0.634119    17A     -0.622060    18A     -0.598006
      19A     -0.592154    20A     -0.566725    21A     -0.546662
      22A     -0.545955    23A     -0.524965    24A     -0.514506
      25A     -0.502352    26A     -0.472808    27A     -0.467652
      28A     -0.394578

  @DF-RHF Final Energy:  -309.17424846321080

   => Energetics <=

    Nuclear Repulsion Energy =            326.9246791135184367
    One-Electron Energy =               -1067.0712379060744297
    Two-Electron Energy =                 430.9723103293451913
    DFT Exchange-Correlation Energy =       0.0000000000000000
    Empirical Dispersion Energy =           0.0000000000000000
    PCM Polarization Energy =               0.0000000000000000
    EFP Energy =                            0.0000000000000000
    Total Energy =                       -309.1742484632108017
    Molecular point group: c1
  Basis Set: CC-PVTZ
  Basis Set:

  -Total Gradient:
     Atom            X                  Y                   Z
    ------   -----------------  -----------------  -----------------
       1       -0.000162376345     0.000460463755    -0.000182200947
       2        0.000284018932    -0.000735356113     0.000328323893
       3       -0.000189548812     0.000557406680    -0.000391589414
       4        0.000019687242    -0.000011282178     0.000002215494
       5        0.000091701397    -0.000275021656     0.000201667301
       6       -0.000030341379    -0.000038263063     0.000014273729
       7        0.000002581939     0.000007050189     0.000002495687
       8       -0.000006996489    -0.000008859476     0.000039605096
       9        0.000026198073     0.000006348939    -0.000001928169
      10       -0.000029393950     0.000009530562     0.000005224827
      11        0.000025079417     0.000007745774     0.000010667693
      12       -0.000003718996    -0.000003447772    -0.000004394880
      13       -0.000005089357     0.000006676565    -0.000001747819
      14        0.000000633190     0.000000262933     0.000003005366
      15        0.000000769316     0.000025070903    -0.000011021354
      16       -0.000018779597    -0.000016714393    -0.000012271527
      17        0.000004372878     0.000019527121    -0.000005575502
      18       -0.000014513233     0.000001666201     0.000004366227
      19        0.000005715774    -0.000012804971    -0.000001115704

  **** Optimization is complete! (in 11 steps) ****
    Final optimized geometry and variables:
    Molecular point group: c1

    Geometry (in Angstrom), charge = 0, multiplicity = 1:

    O            1.494266167052     0.094700259820    -1.088363839751
    C            0.861576183887     0.256013233272    -0.095648113583
    C           -0.592695928028    -0.225620387752     0.006437172247
    C            1.482901236364     0.973863682476     1.085444861465
    C           -0.851780443600    -1.293835420190    -1.058630044976
    C           -1.497962388321     0.991531247751    -0.255731606081
    C           -0.892542795549    -0.804694076848     1.396303758897
    H           -0.657979795803    -0.914098377181    -2.050860474462
    H           -1.884375118492    -1.620512026784    -1.008500007007
    H           -0.216226424174    -2.157895725657    -0.907952819614
    H           -1.304230499372     1.414319367241    -1.234007083231
    H           -2.538071417337     0.689356398493    -0.220164560327
    H           -1.357798187857     1.771110553833     0.483759393244
    H           -1.911004354258    -1.172857704094     1.425543792306
    H           -0.236805306016    -1.636911591457     1.628063454930
    H           -0.790570184227    -0.066864620319     2.181736200326
    H            1.733342445854     0.253292002516     1.855733719054
    H            2.386668635837     1.463825529183     0.757769110171
    H            0.809139163217     1.697602422655     1.524345961744

  Mulliken Charges: (a.u.)
   Center  Symbol    Alpha    Beta     Spin     Total
       1     O     4.17643  4.17643  0.00000 -0.35285
       2     C     2.85195  2.85195  0.00000  0.29611
       3     C     3.00822  3.00822  0.00000 -0.01645
       4     C     3.16395  3.16395  0.00000 -0.32789
       5     C     3.15072  3.15072  0.00000 -0.30143
       6     C     3.15761  3.15761  0.00000 -0.31522
       7     C     3.16460  3.16460  0.00000 -0.32921
       8     H     0.43801  0.43801  0.00000  0.12398
       9     H     0.45187  0.45187  0.00000  0.09626
      10     H     0.44759  0.44759  0.00000  0.10483
      11     H     0.44097  0.44097  0.00000  0.11806
      12     H     0.44579  0.44579  0.00000  0.10842
      13     H     0.44645  0.44645  0.00000  0.10709
      14     H     0.44272  0.44272  0.00000  0.11455
      15     H     0.44336  0.44336  0.00000  0.11327
      16     H     0.44574  0.44574  0.00000  0.10851
      17     H     0.44568  0.44568  0.00000  0.10864
      18     H     0.43177  0.43177  0.00000  0.13645
      19     H     0.44656  0.44656  0.00000  0.10688

   Total alpha = 28.00000, Total beta = 28.00000, Total charge =  0.00000

*** Psi4 exiting successfully. Buy a developer a beer!
