  ==> Input File <==

--------------------------------------------------------------------------
set {
	reference rhf
	basis cc-pvtz
}

set_num_threads( 4 )
memory 2 gb

molecule MOL {
0 1

H	 -0.366580	 2.045936	 -0.305741
C	 0.351829	 1.335402	 0.083179
N	 -0.000018	 0.000080	 -0.334836
H	 1.327156	 1.599860	 -0.305475
H	 0.380566	 1.445403	 1.171445
C	 -0.680505	 -0.005427	 -1.607348
C	 1.139142	 -0.885646	 -0.328065
H	 -0.990808	 -1.012330	 -1.856248
H	 -1.566949	 0.614006	 -1.555326
H	 -0.055276	 0.367242	 -2.424218
H	 1.582944	 -0.909891	 0.659170
H	 0.826956	 -1.891584	 -0.578571
H	 1.914239	 -0.585212	 -1.039455

	symmetry c1
}
set optking {
	frozen_dihedral = ("
		6 3 2 1
	")
}

ee = optimize('scf')
oeprop('DIPOLE', 'QUADRUPOLE', 'MULLIKEN_CHARGES')
f=open( 'psi4out.xyz', 'w' )
f.write( "13  " )
f.write( str(ee) + "\n" )
f.write( MOL.save_string_xyz() )
f.close()
--------------------------------------------------------------------------

    Molecular point group: c1
  Charge       = 0
  Multiplicity = 1
  Basis Set: CC-PVTZ
  Basis Set:
  @DF-RHF Final Energy:  -173.33077393177786
    Total Energy =                       -173.3307739317777987
    Molecular point group: c1
  Basis Set: CC-PVTZ
  Basis Set:
  Basis Set: CC-PVTZ
  Basis Set:
  @DF-RHF Final Energy:  -173.33153335131303
    Total Energy =                       -173.3315333513129417
  Basis Set: CC-PVTZ
  Basis Set:
  Basis Set: CC-PVTZ
  Basis Set:
  @DF-RHF Final Energy:  -173.33161265902825
    Total Energy =                       -173.3316126590282806
  Basis Set: CC-PVTZ
  Basis Set:
  Basis Set: CC-PVTZ
  Basis Set:
  @DF-RHF Final Energy:  -173.33161653835054
    Total Energy =                       -173.3316165383504881
  Basis Set: CC-PVTZ
  Basis Set:
  Charge       = 0
  Multiplicity = 1
  Basis Set: CC-PVTZ
  Basis Set:

    Orbital Energies (a.u.)
    -----------------------

    Doubly Occupied:

       1A    -15.536502     2A    -11.234519     3A    -11.234201
       4A    -11.234175     5A     -1.224673     6A     -0.953348
       7A     -0.952322     8A     -0.805905     9A     -0.640609
      10A     -0.631972    11A     -0.630661    12A     -0.546667
      13A     -0.543690    14A     -0.516392    15A     -0.503889
      16A     -0.502933    17A     -0.342944

  @DF-RHF Final Energy:  -173.33161685004660

   => Energetics <=

    Nuclear Repulsion Energy =            139.1908978632098410
    One-Electron Energy =                -508.9742264983406130
    Two-Electron Energy =                 196.4517117850842567
    DFT Exchange-Correlation Energy =       0.0000000000000000
    Empirical Dispersion Energy =           0.0000000000000000
    PCM Polarization Energy =               0.0000000000000000
    EFP Energy =                            0.0000000000000000
    Total Energy =                       -173.3316168500465153
    Molecular point group: c1
  Basis Set: CC-PVTZ
  Basis Set:

  -Total Gradient:
     Atom            X                  Y                   Z
    ------   -----------------  -----------------  -----------------
       1        0.002441689325     0.000642460586    -0.003750144541
       2       -0.004278651237    -0.000732814042     0.005403760662
       3        0.004841871179    -0.000147713185    -0.003324065999
       4        0.000008158347     0.000015735652    -0.000009407989
       5        0.000002411139    -0.000012914111    -0.000010692996
       6       -0.003015875753     0.000213459617     0.001693267269
       7        0.000008473762     0.000025223078     0.000005892184
       8        0.000000279244     0.000002867601    -0.000002525335
       9       -0.000001692980    -0.000003291683    -0.000004090389
      10       -0.000000987753    -0.000001641628     0.000001553608
      11        0.000001781462    -0.000003444430    -0.000000673159
      12       -0.000007747566     0.000004881020     0.000000229102
      13        0.000000290831    -0.000002808476    -0.000003102415

  **** Optimization is complete! (in 5 steps) ****
    Final optimized geometry and variables:
    Molecular point group: c1

    Geometry (in Angstrom), charge = 0, multiplicity = 1:

    H           -0.591215098917     1.936046274987     0.304519592056
    C            0.139969597509     1.220976797168     0.656722466954
    N           -0.202060631639    -0.107261074468     0.202576013088
    H            1.106603720690     1.556337381995     0.270073121150
    H            0.183164422888     1.260437683392     1.738551232052
    C           -0.905274697664    -0.127863684549    -1.054789211541
    C            0.914899286924    -1.013666934556     0.249490342948
    H           -1.201361566325    -1.142305090920    -1.291645501453
    H           -1.803148050094     0.472409971394    -0.986674537700
    H           -0.308837111974     0.248831981897    -1.892326065065
    H            1.346751005059    -1.015292586281     1.243018192061
    H            0.587692201820    -2.021863174212     0.027918111248
    H            1.706659314344    -0.750231535200    -0.459022465395

  Mulliken Charges: (a.u.)
   Center  Symbol    Alpha    Beta     Spin     Total
       1     H     0.45534  0.45534  0.00000  0.08932
       2     C     3.08743  3.08743  0.00000 -0.17486
       3     N     3.59635  3.59635  0.00000 -0.19269
       4     H     0.47261  0.47261  0.00000  0.05479
       5     H     0.45086  0.45086  0.00000  0.09829
       6     C     3.08838  3.08838  0.00000 -0.17677
       7     C     3.08913  3.08913  0.00000 -0.17826
       8     H     0.45325  0.45325  0.00000  0.09350
       9     H     0.45247  0.45247  0.00000  0.09507
      10     H     0.47448  0.47448  0.00000  0.05104
      11     H     0.45298  0.45298  0.00000  0.09404
      12     H     0.45326  0.45326  0.00000  0.09347
      13     H     0.47347  0.47347  0.00000  0.05306

   Total alpha = 17.00000, Total beta = 17.00000, Total charge = -0.00000
