  ==> Input File <==

--------------------------------------------------------------------------
set {
	reference rhf
	basis 6-31G*
}

set_num_threads( 1 )
memory 2 gb

molecule MOL {
0 1

H	 2.176868	 -0.646004	 -0.217325
O	 1.337496	 -0.537251	 0.205931
C	 0.702312	 0.627605	 -0.264544
C	 -0.714990	 0.596302	 0.266387
H	 0.682322	 0.642550	 -1.350929
H	 1.215941	 1.520383	 0.085680
O	 -1.405996	 -0.526611	 -0.195820
H	 -1.257453	 1.468809	 -0.075599
H	 -0.688972	 0.618407	 1.353696
H	 -0.777529	 -1.099531	 -0.616302

	symmetry c1
}
set optking {
	frozen_dihedral = ("
		5 3 4 7
	")
}

ee = energy('scf')
oeprop('DIPOLE', 'QUADRUPOLE', 'MULLIKEN_CHARGES')
f=open( 'psi4out.xyz', 'w' )
f.write( "10  " )
f.write( str(ee) + "\n" )
f.write( MOL.save_string_xyz() )
f.close()
--------------------------------------------------------------------------

    Molecular point group: c1

    Geometry (in Angstrom), charge = 0, multiplicity = 1:

       Center              X                  Y                   Z               Mass
    ------------   -----------------  -----------------  -----------------  -----------------
           H          2.175030987296    -0.649142699811    -0.206954361063     1.007825032070
           O          1.335658987296    -0.540389699811     0.216301638937    15.994914619560
           C          0.700474987296     0.624466300189    -0.254173361063    12.000000000000
           C         -0.716827012704     0.593163300189     0.276757638937    12.000000000000
           H          0.680484987296     0.639411300189    -1.340558361063     1.007825032070
           H          1.214103987296     1.517244300189     0.096050638937     1.007825032070
           O         -1.407833012704    -0.529749699811    -0.185449361063    15.994914619560
           H         -1.259290012704     1.465670300189    -0.065228361063     1.007825032070
           H         -0.690809012704     0.615268300189     1.364066638937     1.007825032070
           H         -0.779366012704    -1.102669699811    -0.605931361063     1.007825032070

  Charge       = 0
  Multiplicity = 1
  Basis Set: 6-31G*
  Basis Set:

    Orbital Energies (a.u.)
    -----------------------

    Doubly Occupied:

       1A    -20.572909     2A    -20.546428     3A    -11.283517
       4A    -11.267682     5A     -1.385890     6A     -1.350662
       7A     -1.004061     8A     -0.849120     9A     -0.728138
      10A     -0.668937    11A     -0.663357    12A     -0.602912
      13A     -0.573344    14A     -0.546217    15A     -0.478581
      16A     -0.458761    17A     -0.433095

  @DF-RHF Final Energy:  -228.92043184054882

   => Energetics <=

    Nuclear Repulsion Energy =            134.7950865206786943
    One-Electron Energy =                -580.6038765102977095
    Two-Electron Energy =                 216.8883581490702284
    DFT Exchange-Correlation Energy =       0.0000000000000000
    Empirical Dispersion Energy =           0.0000000000000000
    PCM Polarization Energy =               0.0000000000000000
    EFP Energy =                            0.0000000000000000
    Total Energy =                       -228.9204318405487868

  Mulliken Charges: (a.u.)
   Center  Symbol    Alpha    Beta     Spin     Total
       1     H     0.27697  0.27697  0.00000  0.44607
       2     O     4.37097  4.37097  0.00000 -0.74194
       3     C     3.03526  3.03526  0.00000 -0.07051
       4     C     2.97779  2.97779  0.00000  0.04442
       5     H     0.42503  0.42503  0.00000  0.14993
       6     H     0.42204  0.42204  0.00000  0.15592
       7     O     4.37584  4.37584  0.00000 -0.75167
       8     H     0.42348  0.42348  0.00000  0.15304
       9     H     0.41940  0.41940  0.00000  0.16120
      10     H     0.27323  0.27323  0.00000  0.45354

   Total alpha = 17.00000, Total beta = 17.00000, Total charge = -0.00000
