  ==> Input File <==

--------------------------------------------------------------------------
set {
	reference rhf
	basis cc-pvtz
}

set_num_threads( 4 )
memory 2 gb

molecule MOL {
0 1

H	 1.246132	 -1.648126	 -2.670704
C	 1.271321	 -0.887488	 -1.897671
C	 0.045081	 -1.006103	 -1.002813
H	 1.296071	 0.085366	 -2.372922
H	 2.195173	 -1.012192	 -1.346600
N	 0.000297	 0.000045	 0.046090
H	 -0.833590	 -0.892564	 -1.622622
H	 -0.010804	 -2.013462	 -0.580870
C	 -1.359159	 0.315706	 0.454404
C	 0.854443	 -0.335702	 1.174023
C	 -2.416729	 -0.286720	 -0.460525
H	 -1.478729	 1.390261	 0.442008
H	 -1.539692	 0.003361	 1.486761
C	 1.363104	 0.885937	 1.927215
H	 1.711293	 -0.881135	 0.803388
H	 0.341988	 -1.010996	 1.864877
H	 -2.285276	 0.073129	 -1.473515
H	 -2.371743	 -1.368476	 -0.483209
H	 -3.408658	 -0.007405	 -0.121593
H	 1.931327	 1.525930	 1.263559
H	 0.556708	 1.474291	 2.347146
H	 2.006165	 0.580634	 2.745796

	symmetry c1
}
set optking {
	frozen_dihedral = ("
		3 6 9 11
	")
}

ee = optimize('scf')
oeprop('DIPOLE', 'QUADRUPOLE', 'MULLIKEN_CHARGES')
f=open( 'psi4out.xyz', 'w' )
f.write( "22  " )
f.write( str(ee) + "\n" )
f.write( MOL.save_string_xyz() )
f.close()
--------------------------------------------------------------------------

    Molecular point group: c1
  Charge       = 0
  Multiplicity = 1
  Basis Set: CC-PVTZ
  Basis Set:
  @DF-RHF Final Energy:  -290.45732902810460
    Total Energy =                       -290.4573290281041409
    Molecular point group: c1
  Basis Set: CC-PVTZ
  Basis Set:
  Basis Set: CC-PVTZ
  Basis Set:
  @DF-RHF Final Energy:  -290.45383868123292
    Total Energy =                       -290.4538386812331510
  Basis Set: CC-PVTZ
  Basis Set:
  Basis Set: CC-PVTZ
  Basis Set:
  @DF-RHF Final Energy:  -290.46503060649661
    Total Energy =                       -290.4650306064968390
  Basis Set: CC-PVTZ
  Basis Set:
  Basis Set: CC-PVTZ
  Basis Set:
  @DF-RHF Final Energy:  -290.46740157175162
    Total Energy =                       -290.4674015717514521
  Basis Set: CC-PVTZ
  Basis Set:
  @DF-RHF Final Energy:  -290.46762849079960
    Total Energy =                       -290.4676284907993704
  @DF-RHF Final Energy:  -290.46784116733267
    Total Energy =                       -290.4678411673328355
  Basis Set: CC-PVTZ
  Basis Set:
  @DF-RHF Final Energy:  -290.46785673543167
    Total Energy =                       -290.4678567354313259
  Basis Set: CC-PVTZ
  Basis Set:
  Basis Set: CC-PVTZ
  Basis Set:
  @DF-RHF Final Energy:  -290.46786020790876
    Total Energy =                       -290.4678602079091547
  Basis Set: CC-PVTZ
  Basis Set:
  Basis Set: CC-PVTZ
  Basis Set:
  @DF-RHF Final Energy:  -290.46786169471744
    Total Energy =                       -290.4678616947178398
  Basis Set: CC-PVTZ
  Basis Set:
  Charge       = 0
  Multiplicity = 1
  Basis Set: CC-PVTZ
  Basis Set:

    Orbital Energies (a.u.)
    -----------------------

    Doubly Occupied:

       1A    -15.527941     2A    -11.240086     3A    -11.237461
       4A    -11.236857     5A    -11.210888     6A    -11.202407
       7A    -11.201639     8A     -1.220210     9A     -1.025531
      10A     -1.023714    11A     -0.957436    12A     -0.858139
      13A     -0.844055    14A     -0.758807    15A     -0.653779
      16A     -0.643182    17A     -0.625826    18A     -0.594054
      19A     -0.590339    20A     -0.546922    21A     -0.534653
      22A     -0.519457    23A     -0.514319    24A     -0.502312
      25A     -0.492395    26A     -0.487865    27A     -0.467679
      28A     -0.460265    29A     -0.330302

  @DF-RHF Final Energy:  -290.46786188267509

   => Energetics <=

    Nuclear Repulsion Energy =            337.6985740793934951
    One-Electron Energy =               -1061.3158400022775822
    Two-Electron Energy =                 433.1494040402091059
    DFT Exchange-Correlation Energy =       0.0000000000000000
    Empirical Dispersion Energy =           0.0000000000000000
    PCM Polarization Energy =               0.0000000000000000
    EFP Energy =                            0.0000000000000000
    Total Energy =                       -290.4678618826750380
    Molecular point group: c1
  Basis Set: CC-PVTZ
  Basis Set:

  -Total Gradient:
     Atom            X                  Y                   Z
    ------   -----------------  -----------------  -----------------
       1       -0.000011311425    -0.000001726496     0.000005679772
       2        0.000013792317     0.000010237788     0.000036418820
       3        0.000027391482     0.002140941324    -0.002011629322
       4       -0.000000646805     0.000000979649     0.000000517714
       5        0.000013359694     0.000003012825     0.000000406603
       6       -0.000152458626    -0.004307187697     0.003657713087
       7       -0.000005276685     0.000010643447    -0.000005394010
       8        0.000004967835     0.000016512591     0.000009774421
       9        0.000341993220     0.004392489754    -0.003182443563
      10        0.000029525926    -0.000008777855    -0.000019194089
      11       -0.000243114216    -0.002281829767     0.001502056213
      12        0.000003803602    -0.000001255052     0.000001875248
      13        0.000001260295     0.000007929082     0.000001337495
      14       -0.000021093208    -0.000004295073     0.000005139850
      15        0.000013078356    -0.000010298378    -0.000000676684
      16        0.000000207381     0.000019312839    -0.000006887043
      17        0.000004267693    -0.000009175805    -0.000011594424
      18       -0.000019112926     0.000014153275     0.000014292601
      19        0.000003299189     0.000011832934     0.000002881773
      20       -0.000004431272    -0.000005314444    -0.000002351322
      21       -0.000004072202     0.000005799801    -0.000001996420
      22        0.000004570373    -0.000003984739     0.000004073282

  **** Optimization is complete! (in 10 steps) ****
    Final optimized geometry and variables:
    Molecular point group: c1

    Geometry (in Angstrom), charge = 0, multiplicity = 1:

    H            1.432090314055    -1.430466810646    -2.718538836817
    C            1.404276876431    -0.698670326314    -1.917771827848
    C            0.158204701403    -0.909505182229    -1.063579938282
    H            1.393570467797     0.291660513725    -2.356622396478
    H            2.320793243537    -0.802839908006    -1.351295522705
    N            0.030222916763     0.071212463420    -0.004030494354
    H           -0.693097642875    -0.835514500933    -1.718764115277
    H            0.157346260077    -1.932539760675    -0.674636692644
    C           -1.299102453480     0.498708497876     0.426456101069
    C            0.927390013280    -0.146380233778     1.110575546343
    C           -2.487803930154     0.063270774965    -0.420479199106
    H           -1.313503175177     1.581224310259     0.499163677061
    H           -1.484381689533     0.128161714854     1.435502248388
    C            1.273794998540     1.127829178361     1.870678758087
    H            1.846112543097    -0.573887019173     0.735249415600
    H            0.510050763880    -0.879637434558     1.808620062741
    H           -2.438510068978     0.446632319478    -1.432573544815
    H           -2.586812869517    -1.013880856193    -0.466336152787
    H           -3.389711233605     0.458675619880     0.032378324551
    H            1.712932677085     1.858887394175     1.202260756824
    H            0.403215969615     1.575790298115     2.333336364482
    H            1.986688894473     0.909218112575     2.658252024228

  Mulliken Charges: (a.u.)
   Center  Symbol    Alpha    Beta     Spin     Total
       1     H     0.45373  0.45373  0.00000  0.09254
       2     C     3.14050  3.14050  0.00000 -0.28099
       3     C     3.04439  3.04439  0.00000 -0.08878
       4     H     0.45325  0.45325  0.00000  0.09351
       5     H     0.45553  0.45553  0.00000  0.08893
       6     N     3.61930  3.61930  0.00000 -0.23860
       7     H     0.44641  0.44641  0.00000  0.10718
       8     H     0.46702  0.46702  0.00000  0.06596
       9     C     3.02400  3.02400  0.00000 -0.04799
      10     C     3.04425  3.04425  0.00000 -0.08849
      11     C     3.16381  3.16381  0.00000 -0.32762
      12     H     0.45588  0.45588  0.00000  0.08823
      13     H     0.46993  0.46993  0.00000  0.06015
      14     C     3.14463  3.14463  0.00000 -0.28926
      15     H     0.44976  0.44976  0.00000  0.10048
      16     H     0.46510  0.46510  0.00000  0.06980
      17     H     0.45138  0.45138  0.00000  0.09725
      18     H     0.45027  0.45027  0.00000  0.09947
      19     H     0.44437  0.44437  0.00000  0.11125
      20     H     0.45171  0.45171  0.00000  0.09657
      21     H     0.45344  0.45344  0.00000  0.09313
      22     H     0.45136  0.45136  0.00000  0.09728

   Total alpha = 29.00000, Total beta = 29.00000, Total charge =  0.00000
