                              Psi4 1.0.54 Driver

  ==> Input File <==

--------------------------------------------------------------------------
set {
	reference rhf
	basis cc-pvtz
}

set_num_threads( 4 )
memory 2 gb

molecule MOL {
0 1

H	 1.607463	 1.680282	 -1.621056
O	 0.724298	 1.518248	 -1.346446
C	 0.700177	 0.619554	 -0.266242
C	 -0.713111	 0.588314	 0.266177
H	 1.376188	 0.945530	 0.518408
H	 0.992287	 -0.377854	 -0.584404
O	 -1.421673	 -0.521378	 -0.196983
H	 -1.244794	 1.469161	 -0.069059
H	 -0.685100	 0.604721	 1.352683
H	 -0.933408	 -1.297830	 0.014544

	symmetry c1
}
set optking {
	frozen_dihedral = ("
		5 3 4 7
	")
}

ee,wfn = optimize('scf', return_wfn=True)
oeprop( wfn, 'DIPOLE', 'QUADRUPOLE', 'MULLIKEN_CHARGES')
f=open( 'psi4out.xyz', 'w' )
f.write( "10  " )
f.write( str(ee) + "\n" )
f.write( MOL.save_string_xyz() )
f.close()
--------------------------------------------------------------------------

    Molecular point group: c1
  Charge       = 0
  Multiplicity = 1
  Basis Set: CC-PVTZ
  Basis Set:
  @DF-RHF Final Energy:  -229.01852321151958
    Total Energy =                       -229.0185232115197209
    Molecular point group: c1
  Basis Set: CC-PVTZ
  Basis Set:
  Basis Set: CC-PVTZ
  Basis Set:
  @DF-RHF Final Energy:  -229.01957101458268
    Total Energy =                       -229.0195710145827377
  Basis Set: CC-PVTZ
  Basis Set:
  Basis Set: CC-PVTZ
  Basis Set:
  @DF-RHF Final Energy:  -229.01996863272694
    Total Energy =                       -229.0199686327267727
  Basis Set: CC-PVTZ
  Basis Set:
  Basis Set: CC-PVTZ
  Basis Set:
  @DF-RHF Final Energy:  -229.02004596324070
    Total Energy =                       -229.0200459632406762
  Basis Set: CC-PVTZ
  Basis Set:
  Basis Set: CC-PVTZ
  Basis Set:
  @DF-RHF Final Energy:  -229.02007827811119
    Total Energy =                       -229.0200782781111570
  Basis Set: CC-PVTZ
  Basis Set:
  Basis Set: CC-PVTZ
  Basis Set:
  @DF-RHF Final Energy:  -229.02008444643704
    Total Energy =                       -229.0200844464370107
  Basis Set: CC-PVTZ
  Basis Set:
  Charge       = 0
  Multiplicity = 1
  Basis Set: CC-PVTZ
  Basis Set:

    Orbital Energies (a.u.)
    -----------------------

    Doubly Occupied:

       1A    -20.552319     2A    -20.548317     3A    -11.272467
       4A    -11.268278     5A     -1.376997     6A     -1.360995
       7A     -0.999661     8A     -0.848027     9A     -0.719949
      10A     -0.691656    11A     -0.646732    12A     -0.597425
      13A     -0.581630    14A     -0.536135    15A     -0.488368
      16A     -0.447355    17A     -0.438405

  @DF-RHF Final Energy:  -229.02008480031756

   => Energetics <=

    Nuclear Repulsion Energy =            132.0418687295187112
    One-Electron Energy =                -575.3744737434456056
    Two-Electron Energy =                 214.3125202136091616
    DFT Exchange-Correlation Energy =       0.0000000000000000
    Empirical Dispersion Energy =           0.0000000000000000
    PCM Polarization Energy =               0.0000000000000000
    EFP Energy =                            0.0000000000000000
    Total Energy =                       -229.0200848003177612
    Molecular point group: c1
  Basis Set: CC-PVTZ
  Basis Set:

  -Total Gradient:
     Atom            X                  Y                   Z
    ------   -----------------  -----------------  -----------------
       1       -0.000030464640     0.000009269504    -0.000005134164
       2        0.000052346779    -0.000052622986     0.000047319262
       3       -0.000319341080     0.004123624418    -0.000421555052
       4       -0.001204068040     0.001458946740    -0.003092474366
       5        0.000510919621    -0.003780872494     0.001017788683
       6        0.000013917327    -0.000014137364     0.000006433268
       7        0.000979308243    -0.001771165352     0.002459855965
       8        0.000009292893     0.000014654346     0.000004697961
       9        0.000001858735    -0.000000066777     0.000004517551
      10       -0.000013769839     0.000012369964    -0.000021449109

  **** Optimization is complete! (in 7 steps) ****
    Final optimized geometry and variables:
    Molecular point group: c1

    Geometry (in Angstrom), charge = 0, multiplicity = 1:

    H            1.791005644592     0.940685341035    -1.334859580194
    O            0.938053625139     0.970879224460    -0.942464954688
    C            0.872769339704     0.093603572237     0.145548258202
    C           -0.556380434087     0.043011407802     0.673556896433
    H            1.551154643455     0.396659630830     0.939715194577
    H            1.164787744502    -0.910869929524    -0.152676695669
    O           -1.296116854580    -1.045043029760     0.192803579891
    H           -1.072182104566     0.938147533378     0.360206450171
    H           -0.540874298855     0.029055570815     1.760057525969
    H           -0.978356834416    -1.843295900029     0.572282388868

  Mulliken Charges: (a.u.)
   Center  Symbol    Alpha    Beta     Spin     Total
       1     H     0.39420  0.39420  0.00000  0.21160
       2     O     4.19533  4.19533  0.00000 -0.39067
       3     C     2.95941  2.95941  0.00000  0.08119
       4     C     2.97149  2.97149  0.00000  0.05701
       5     H     0.47870  0.47870  0.00000  0.04259
       6     H     0.48135  0.48135  0.00000  0.03730
       7     O     4.19921  4.19921  0.00000 -0.39843
       8     H     0.45146  0.45146  0.00000  0.09708
       9     H     0.47259  0.47259  0.00000  0.05482
      10     H     0.39625  0.39625  0.00000  0.20750

   Total alpha = 17.00000, Total beta = 17.00000, Total charge = -0.00000

*** Psi4 exiting successfully. Buy a developer a beer!
