  ==> Input File <==

--------------------------------------------------------------------------
set {
	reference rhf
	basis 6-31G*
}

set_num_threads( 4 )
memory 2 gb

molecule MOL {
0 1

H	 -1.128245	 1.577076	 -0.692794
C	 -0.501810	 0.698458	 -0.853719
N	 0.538815	 0.649616	 0.000000
O	 -0.747056	 -0.106016	 -1.703356
C	 1.521968	 -0.411503	 0.000000
H	 0.629060	 1.385548	 0.662226
H	 2.150599	 -0.357004	 -0.881901
H	 0.999455	 -1.354525	 0.000000
H	 2.150599	 -0.357004	 0.881901

	symmetry c1
}
set optking {
	frozen_dihedral = ("
		6 3 5 7
	")
}

ee = optimize('scf')
oeprop('DIPOLE', 'QUADRUPOLE', 'MULLIKEN_CHARGES')
f=open( 'psi4out.xyz', 'w' )
f.write( "9  " )
f.write( str(ee) + "\n" )
f.write( MOL.save_string_xyz() )
f.close()
--------------------------------------------------------------------------

    Molecular point group: c1
  Charge       = 0
  Multiplicity = 1
  Basis Set: 6-31G*
  Basis Set:
  @DF-RHF Final Energy:  -207.96050206242279
    Total Energy =                       -207.9605020624228189
    Molecular point group: c1
  Basis Set: 6-31G*
  Basis Set:
  Basis Set: 6-31G*
  Basis Set:
  @DF-RHF Final Energy:  -207.96095889496291
    Total Energy =                       -207.9609588949629995
  Basis Set: 6-31G*
  Basis Set:
  Basis Set: 6-31G*
  Basis Set:
  @DF-RHF Final Energy:  -207.96096661084334
    Total Energy =                       -207.9609666108432862
  Basis Set: 6-31G*
  Basis Set:
  Basis Set: 6-31G*
  Basis Set:
  @DF-RHF Final Energy:  -207.96103076844270
    Total Energy =                       -207.9610307684426687
  Basis Set: 6-31G*
  Basis Set:
  Basis Set: 6-31G*
  Basis Set:
  @DF-RHF Final Energy:  -207.96104055623036
    Total Energy =                       -207.9610405562303868
  Basis Set: 6-31G*
  Basis Set:
  Basis Set: 6-31G*
  Basis Set:
  @DF-RHF Final Energy:  -207.96104386726279
    Total Energy =                       -207.9610438672627879
  Basis Set: 6-31G*
  Basis Set:
  Charge       = 0
  Multiplicity = 1
  Basis Set: 6-31G*
  Basis Set:

    Orbital Energies (a.u.)
    -----------------------

    Doubly Occupied:

       1A    -20.525829     2A    -15.590318     3A    -11.342539
       4A    -11.261353     5A     -1.389172     6A     -1.235830
       7A     -0.967785     8A     -0.808154     9A     -0.746688
      10A     -0.640850    11A     -0.626705    12A     -0.592431
      13A     -0.558380    14A     -0.532085    15A     -0.423537
      16A     -0.391116

  @DF-RHF Final Energy:  -207.96104474409955

   => Energetics <=

    Nuclear Repulsion Energy =            122.7199872030540462
    One-Electron Energy =                -526.0965222413460651
    Two-Electron Energy =                 195.4154902941925229
    DFT Exchange-Correlation Energy =       0.0000000000000000
    Empirical Dispersion Energy =           0.0000000000000000
    PCM Polarization Energy =               0.0000000000000000
    EFP Energy =                            0.0000000000000000
    Total Energy =                       -207.9610447440994676
    Molecular point group: c1
  Basis Set: 6-31G*
  Basis Set:

  -Total Gradient:
     Atom            X                  Y                   Z
    ------   -----------------  -----------------  -----------------
       1       -0.000013456297     0.000001548771    -0.000001592158
       2        0.000041496471     0.000048195278     0.000047604152
       3       -0.000016914481     0.000048745724    -0.000091843053
       4        0.000002069904    -0.000027115429    -0.000006633592
       5        0.000064538950    -0.000017403238     0.000047335957
       6       -0.000044819982    -0.000032461101     0.000034344808
       7       -0.000034382816    -0.000031749067    -0.000019256479
       8        0.000003213375     0.000009604464    -0.000002517842
       9       -0.000001745122     0.000000634598    -0.000007441791

  **** Optimization is complete! (in 7 steps) ****
    Final optimized geometry and variables:
    Molecular point group: c1

    Geometry (in Angstrom), charge = 0, multiplicity = 1:

    H           -1.354095945811     1.377354731931    -0.072906300044
    C           -0.713493525474     0.506273374642    -0.219614089508
    N            0.299647464160     0.445123170201     0.662758237739
    O           -0.917999484589    -0.297889081091    -1.080523606486
    C            1.280635726758    -0.618942107696     0.625179692037
    H            0.405934432177     1.185039100711     1.316699411950
    H            1.879240731349    -0.571586153266    -0.276717638009
    H            0.791559482303    -1.583018765039     0.659619707521
    H            1.930407442182    -0.523242961485     1.484403322496

  Mulliken Charges: (a.u.)
   Center  Symbol    Alpha    Beta     Spin     Total
       1     H     0.42692  0.42692  0.00000  0.14615
       2     C     2.74735  2.74735  0.00000  0.50530
       3     N     3.87518  3.87518  0.00000 -0.75037
       4     O     4.28314  4.28314  0.00000 -0.56628
       5     C     3.13613  3.13613  0.00000 -0.27225
       6     H     0.30750  0.30750  0.00000  0.38500
       7     H     0.40673  0.40673  0.00000  0.18653
       8     H     0.40109  0.40109  0.00000  0.19781
       9     H     0.41595  0.41595  0.00000  0.16810

   Total alpha = 16.00000, Total beta = 16.00000, Total charge =  0.00000
