  ==> Input File <==

--------------------------------------------------------------------------
set {
	reference rhf
	basis 6-31G*
}

set_num_threads( 4 )
memory 2 gb

molecule MOL {
0 1

H	 -1.202162	 0.905679	 2.997042
C	 -1.836058	 0.183085	 2.468217
C	 -2.345296	 0.644289	 1.126361
O	 -2.075737	 -0.872291	 2.958610
C	 -1.220012	 1.144545	 0.209990
H	 -2.897291	 -0.170089	 0.671610
H	 -3.044432	 1.458719	 1.312287
C	 -0.252658	 0.041456	 -0.226725
H	 -1.668355	 1.599643	 -0.668167
H	 -0.669371	 1.937427	 0.713865
C	 1.180775	 0.282413	 0.250794
H	 -0.266029	 -0.034465	 -1.312038
H	 -0.597733	 -0.921000	 0.146291
C	 2.148627	 -0.814315	 -0.201312
H	 1.516199	 1.249228	 -0.115937
H	 1.192670	 0.346017	 1.338083
C	 3.580890	 -0.659131	 0.322722
H	 2.166869	 -0.852443	 -1.289387
H	 1.762857	 -1.776509	 0.128956
C	 4.324889	 0.564933	 -0.213704
H	 4.142010	 -1.551473	 0.056605
H	 3.564836	 -0.624694	 1.410140
H	 4.342616	 0.565491	 -1.300421
H	 3.866655	 1.493402	 0.110242
H	 5.353900	 0.572371	 0.132816

	symmetry c1
}
set optking {
	frozen_dihedral = ("
		3 5 8 12
	")
}

ee = optimize('scf')
oeprop('DIPOLE', 'QUADRUPOLE', 'MULLIKEN_CHARGES')
f=open( 'psi4out.xyz', 'w' )
f.write( "25  " )
f.write( str(ee) + "\n" )
f.write( MOL.save_string_xyz() )
f.close()
--------------------------------------------------------------------------

    Molecular point group: c1
  Charge       = 0
  Multiplicity = 1
  Basis Set: 6-31G*
  Basis Set:
  @DF-RHF Final Energy:  -387.11639776700417
    Total Energy =                       -387.1163977670049690
    Molecular point group: c1
  Basis Set: 6-31G*
  Basis Set:
  Basis Set: 6-31G*
  Basis Set:
  @DF-RHF Final Energy:  -387.11654607107522
    Total Energy =                       -387.1165460710753905
  Basis Set: 6-31G*
  Basis Set:
  Basis Set: 6-31G*
  Basis Set:
  @DF-RHF Final Energy:  -387.11313428289446
    Total Energy =                       -387.1131342828941797
  Basis Set: 6-31G*
  Basis Set:
  Basis Set: 6-31G*
  Basis Set:
  @DF-RHF Final Energy:  -387.11675817710653
    Total Energy =                       -387.1167581771061350
  Basis Set: 6-31G*
  Basis Set:
  @DF-RHF Final Energy:  -387.11678013008918
    Total Energy =                       -387.1167801300897509
  @DF-RHF Final Energy:  -387.11675332786035
    Total Energy =                       -387.1167533278605788
  @DF-RHF Final Energy:  -387.11683081289527
    Total Energy =                       -387.1168308128955005
  Basis Set: 6-31G*
  Basis Set:
  @DF-RHF Final Energy:  -387.11683455349061
    Total Energy =                       -387.1168345534905484
  Basis Set: 6-31G*
  Basis Set:
  Basis Set: 6-31G*
  Basis Set:
  @DF-RHF Final Energy:  -387.11683973901927
    Total Energy =                       -387.1168397390189284
  Basis Set: 6-31G*
  Basis Set:
  Basis Set: 6-31G*
  Basis Set:
  @DF-RHF Final Energy:  -387.11684131638276
    Total Energy =                       -387.1168413163823061
  Basis Set: 6-31G*
  Basis Set:
  Charge       = 0
  Multiplicity = 1
  Basis Set: 6-31G*
  Basis Set:

    Orbital Energies (a.u.)
    -----------------------

    Doubly Occupied:

       1A    -20.563161     2A    -11.326397     3A    -11.235245
       4A    -11.234647     5A    -11.221338     6A    -11.218605
       7A    -11.215986     8A    -11.214700     9A    -11.209265
      10A     -1.402600    11A     -1.100874    12A     -1.067584
      13A     -1.011169    14A     -0.940842    15A     -0.876407
      16A     -0.817337    17A     -0.788671    18A     -0.778956
      19A     -0.667613    20A     -0.654158    21A     -0.640263
      22A     -0.616457    23A     -0.611509    24A     -0.578405
      25A     -0.572497    26A     -0.559804    27A     -0.533206
      28A     -0.518659    29A     -0.509827    30A     -0.501373
      31A     -0.485010    32A     -0.474411    33A     -0.460682
      34A     -0.457078    35A     -0.440770    36A     -0.409285

  @DF-RHF Final Energy:  -387.11684139660179

   => Energetics <=

    Nuclear Repulsion Energy =            447.6132990811029231
    One-Electron Energy =               -1411.6306942571250147
    Two-Electron Energy =                 576.9005537794205338
    DFT Exchange-Correlation Energy =       0.0000000000000000
    Empirical Dispersion Energy =           0.0000000000000000
    PCM Polarization Energy =               0.0000000000000000
    EFP Energy =                            0.0000000000000000
    Total Energy =                       -387.1168413966015578
    Molecular point group: c1
  Basis Set: 6-31G*
  Basis Set:

  -Total Gradient:
     Atom            X                  Y                   Z
    ------   -----------------  -----------------  -----------------
       1        0.000005432232    -0.000001097396    -0.000001384264
       2        0.000002194151     0.000002929749    -0.000004088842
       3       -0.000092479316    -0.000034075752    -0.000118001605
       4       -0.000004629230     0.000002416069     0.000001764578
       5        0.000089301124     0.000016061183     0.000170328102
       6        0.000001435503     0.000001587617    -0.000003098147
       7       -0.000002230850    -0.000004347474     0.000003039121
       8        0.000156448292     0.000162233576    -0.000064389739
       9        0.000000831241    -0.000000485300     0.000002047452
      10       -0.000001496746     0.000002056868    -0.000000461305
      11        0.000003939662     0.000001354222    -0.000001152426
      12       -0.000151949126    -0.000144796072     0.000012538459
      13       -0.000000278430    -0.000002216000    -0.000000857950
      14       -0.000000922065    -0.000008029262     0.000014278523
      15        0.000009836663     0.000011210851     0.000001233940
      16        0.000000924347    -0.000003986268    -0.000003847724
      17        0.000003319809    -0.000007618049    -0.000014384843
      18        0.000001233219     0.000002648057     0.000004210714
      19       -0.000000210834    -0.000003140307     0.000000637324
      20       -0.000007171522     0.000002389002     0.000001494816
      21       -0.000000608028    -0.000002396624     0.000000092865
      22       -0.000002903678     0.000000461259    -0.000003014456
      23       -0.000000124993    -0.000001803207     0.000001823876
      24       -0.000009854650     0.000007774919    -0.000000404052
      25       -0.000000036772     0.000000868341     0.000001595584

  **** Optimization is complete! (in 11 steps) ****
    Final optimized geometry and variables:
    Molecular point group: c1

    Geometry (in Angstrom), charge = 0, multiplicity = 1:

    H           -1.765037854236     0.907813429031     2.323500552771
    C           -2.254320429676     0.134957915986     1.718219479995
    C           -2.785417477444     0.605605650068     0.389297571110
    O           -2.324371974180    -0.981839473646     2.119536886464
    C           -1.658664232993     1.107548870141    -0.530008213771
    H           -3.330939026533    -0.209725077794    -0.071046900150
    H           -3.483150443239     1.419334041075     0.579292770306
    C           -0.669464990044     0.001440900281    -0.965508662031
    H           -2.118497986607     1.562526569751    -1.400544228481
    H           -1.122970992006     1.909548218311    -0.026788279885
    C            0.767997252469     0.241814702484    -0.494840600738
    H           -0.675796359838    -0.083986927576    -2.048522485194
    H           -1.006250327009    -0.960989119355    -0.589838405903
    C            1.728163223767    -0.864639546981    -0.937286681253
    H            1.105841586607     1.203989721344    -0.871654567504
    H            0.784602650912     0.315444210821     0.592011949865
    C            3.162095637294    -0.713721902611    -0.416641708430
    H            1.745261172557    -0.911955448636    -2.025190158153
    H            1.336272432127    -1.820829294803    -0.597669284789
    C            3.912163878429     0.502792550866    -0.962395642221
    H            3.717840250204    -1.611126047452    -0.676710802754
    H            3.146908930300    -0.671822578239     0.670455455802
    H            3.932753917496     0.493464221853    -2.048964965877
    H            3.456943942458     1.436258017763    -0.648170345386
    H            4.940268499968     0.509614674217    -0.613674362087

  Mulliken Charges: (a.u.)
   Center  Symbol    Alpha    Beta     Spin     Total
       1     H     0.43184  0.43184  0.00000  0.13632
       2     C     2.83148  2.83148  0.00000  0.33704
       3     C     3.20734  3.20734  0.00000 -0.41467
       4     O     4.23787  4.23787  0.00000 -0.47575
       5     C     3.16855  3.16855  0.00000 -0.33711
       6     H     0.39997  0.39997  0.00000  0.20007
       7     H     0.41023  0.41023  0.00000  0.17954
       8     C     3.16295  3.16295  0.00000 -0.32590
       9     H     0.40998  0.40998  0.00000  0.18004
      10     H     0.41680  0.41680  0.00000  0.16640
      11     C     3.15603  3.15603  0.00000 -0.31207
      12     H     0.41701  0.41701  0.00000  0.16599
      13     H     0.40976  0.40976  0.00000  0.18049
      14     C     3.15397  3.15397  0.00000 -0.30793
      15     H     0.42102  0.42102  0.00000  0.15796
      16     H     0.42395  0.42395  0.00000  0.15210
      17     C     3.15281  3.15281  0.00000 -0.30562
      18     H     0.42430  0.42430  0.00000  0.15140
      19     H     0.41844  0.41844  0.00000  0.16312
      20     C     3.24121  3.24121  0.00000 -0.48242
      21     H     0.42014  0.42014  0.00000  0.15973
      22     H     0.42216  0.42216  0.00000  0.15569
      23     H     0.42238  0.42238  0.00000  0.15523
      24     H     0.42104  0.42104  0.00000  0.15792
      25     H     0.41877  0.41877  0.00000  0.16245

   Total alpha = 36.00000, Total beta = 36.00000, Total charge = -0.00000
