  ==> Input File <==

--------------------------------------------------------------------------
set {
	reference rhf
	basis 6-31G*
}

set_num_threads( 4 )
memory 2 gb

molecule MOL {
0 1

H	 1.609364	 -0.263970	 -2.584702
C	 0.880113	 -0.480602	 -1.812568
C	 1.322923	 0.120767	 -0.479465
H	 -0.073470	 -0.073194	 -2.133613
H	 0.779482	 -1.559462	 -1.745281
C	 0.306652	 -0.176050	 0.621399
H	 1.433961	 1.196027	 -0.573878
H	 2.284834	 -0.282500	 -0.185586
N	 -1.068537	 -0.011044	 0.085269
H	 0.372515	 -1.192590	 0.973735
H	 0.391664	 0.520566	 1.441230
O	 -1.656956	 -0.997225	 -0.235017
O	 -1.478635	 1.104830	 -0.018026

	symmetry c1
}
set optking {
	frozen_dihedral = ("
		7 3 6 9
	")
}

ee = optimize('scf')
oeprop('DIPOLE', 'QUADRUPOLE', 'MULLIKEN_CHARGES')
f=open( 'psi4out.xyz', 'w' )
f.write( "13  " )
f.write( str(ee) + "\n" )
f.write( MOL.save_string_xyz() )
f.close()
--------------------------------------------------------------------------

    Molecular point group: c1
  Charge       = 0
  Multiplicity = 1
  Basis Set: 6-31G*
  Basis Set:
  @DF-RHF Final Energy:  -321.73203248974107
    Total Energy =                       -321.7320324897411865
    Molecular point group: c1
  Basis Set: 6-31G*
  Basis Set:
  Basis Set: 6-31G*
  Basis Set:
  @DF-RHF Final Energy:  -321.72891434166536
    Total Energy =                       -321.7289143416653587
  Basis Set: 6-31G*
  Basis Set:
  Basis Set: 6-31G*
  Basis Set:
  @DF-RHF Final Energy:  -321.73255482784657
    Total Energy =                       -321.7325548278464566
  Basis Set: 6-31G*
  Basis Set:
  Basis Set: 6-31G*
  Basis Set:
  @DF-RHF Final Energy:  -321.73401740073155
    Total Energy =                       -321.7340174007314886
  Basis Set: 6-31G*
  Basis Set:
  @DF-RHF Final Energy:  -321.73410463082809
    Total Energy =                       -321.7341046308281420
  Basis Set: 6-31G*
  Basis Set:
  @DF-RHF Final Energy:  -321.73416235999707
    Total Energy =                       -321.7341623599971854
  Basis Set: 6-31G*
  Basis Set:
  Basis Set: 6-31G*
  Basis Set:
  @DF-RHF Final Energy:  -321.73420400659199
    Total Energy =                       -321.7342040065918809
  Basis Set: 6-31G*
  Basis Set:
  Basis Set: 6-31G*
  Basis Set:
  @DF-RHF Final Energy:  -321.73422458568893
    Total Energy =                       -321.7342245856891623
  Basis Set: 6-31G*
  Basis Set:
  Charge       = 0
  Multiplicity = 1
  Basis Set: 6-31G*
  Basis Set:

    Orbital Energies (a.u.)
    -----------------------

    Doubly Occupied:

       1A    -20.603584     2A    -20.598509     3A    -15.846628
       4A    -11.299392     5A    -11.256337     6A    -11.231250
       7A     -1.630890     8A     -1.416227     9A     -1.133458
      10A     -1.021733    11A     -0.896175    12A     -0.820795
      13A     -0.754724    14A     -0.736843    15A     -0.724984
      16A     -0.658838    17A     -0.612024    18A     -0.592405
      19A     -0.535252    20A     -0.519932    21A     -0.511010
      22A     -0.482461    23A     -0.473929    24A     -0.448937

  @DF-RHF Final Energy:  -321.73422531218023

   => Energetics <=

    Nuclear Repulsion Energy =            254.0456668415228307
    One-Electron Energy =                -941.9471525194510377
    Two-Electron Energy =                 366.1672603657478930
    DFT Exchange-Correlation Energy =       0.0000000000000000
    Empirical Dispersion Energy =           0.0000000000000000
    PCM Polarization Energy =               0.0000000000000000
    EFP Energy =                            0.0000000000000000
    Total Energy =                       -321.7342253121803424
    Molecular point group: c1
  Basis Set: 6-31G*
  Basis Set:

  -Total Gradient:
     Atom            X                  Y                   Z
    ------   -----------------  -----------------  -----------------
       1        0.000001910210     0.000003100818    -0.000013432849
       2       -0.000023300759     0.000014837124     0.000034822604
       3       -0.004128319470    -0.000830057123    -0.003887055402
       4       -0.000000469500    -0.000003753158    -0.000007956706
       5        0.000006528068     0.000016740475     0.000004388451
       6        0.000927238158     0.004089390910     0.002013861372
       7        0.003319418695    -0.000200662087     0.002835987633
       8        0.000001808465    -0.000000613260     0.000015830271
       9        0.000008871512    -0.003186866980    -0.000919728926
      10       -0.000003454701     0.000006348206     0.000002640450
      11        0.000000791275    -0.000002154694    -0.000001115458
      12       -0.000037514845     0.000150145291    -0.000046946093
      13       -0.000073507102    -0.000056455521    -0.000031295347

  **** Optimization is complete! (in 9 steps) ****
    Final optimized geometry and variables:
    Molecular point group: c1

    Geometry (in Angstrom), charge = 0, multiplicity = 1:

    H            2.063731806983    -0.206767095147    -2.297813532157
    C            1.269246041706    -0.403301195251    -1.586908304295
    C            1.620764019779     0.207301024974    -0.231496533166
    H            0.355843440487     0.019204335369    -1.989425276533
    H            1.141593364056    -1.478554653509    -1.515227544877
    C            0.634343742465    -0.122071550126     0.891432076036
    H            1.741357154808     1.281633483830    -0.299948495068
    H            2.580926309952    -0.177916832725     0.100562415145
    N           -0.768083597399     0.058940953055     0.433021057185
    H            0.702774026788    -1.151730355842     1.201864371296
    H            0.757643447933     0.536929757246     1.737491491672
    O           -1.446182095574    -0.914045022397     0.321178997955
    O           -1.114237937614     1.175247986956     0.188139627737

  Mulliken Charges: (a.u.)
   Center  Symbol    Alpha    Beta     Spin     Total
       1     H     0.41015  0.41015  0.00000  0.17971
       2     C     3.25264  3.25264  0.00000 -0.50528
       3     C     3.17004  3.17004  0.00000 -0.34008
       4     H     0.40309  0.40309  0.00000  0.19381
       5     H     0.41150  0.41150  0.00000  0.17700
       6     C     3.08999  3.08999  0.00000 -0.17997
       7     H     0.39963  0.39963  0.00000  0.20073
       8     H     0.40850  0.40850  0.00000  0.18299
       9     N     3.22408  3.22408  0.00000  0.55183
      10     H     0.38769  0.38769  0.00000  0.22463
      11     H     0.38614  0.38614  0.00000  0.22772
      12     O     4.22554  4.22554  0.00000 -0.45108
      13     O     4.23100  4.23100  0.00000 -0.46200

   Total alpha = 24.00000, Total beta = 24.00000, Total charge = -0.00000
