  ==> Input File <==

--------------------------------------------------------------------------
set {
	reference rhf
	basis 6-31G*
}

set_num_threads( 4 )
memory 2 gb

molecule MOL {
0 1

H	 2.310870	 -0.389608	 0.155507
O	 1.454260	 -0.254504	 0.534301
C	 0.702312	 0.627605	 -0.264544
C	 -0.714990	 0.596302	 0.266387
H	 0.707897	 0.305940	 -1.302501
H	 1.101846	 1.638115	 -0.211951
O	 -1.405996	 -0.526611	 -0.195820
H	 -1.257453	 1.468809	 -0.075599
H	 -0.688972	 0.618407	 1.353696
H	 -0.890587	 -1.292708	 0.022039

	symmetry c1
}
set optking {
	frozen_dihedral = ("
		5 3 4 7
	")
}

ee = optimize('scf')
oeprop('DIPOLE', 'QUADRUPOLE', 'MULLIKEN_CHARGES')
f=open( 'psi4out.xyz', 'w' )
f.write( "10  " )
f.write( str(ee) + "\n" )
f.write( MOL.save_string_xyz() )
f.close()
--------------------------------------------------------------------------

    Molecular point group: c1
  Charge       = 0
  Multiplicity = 1
  Basis Set: 6-31G*
  Basis Set:
  @DF-RHF Final Energy:  -228.92301008537694
    Total Energy =                       -228.9230100853769443
    Molecular point group: c1
  Basis Set: 6-31G*
  Basis Set:
  Basis Set: 6-31G*
  Basis Set:
  @DF-RHF Final Energy:  -228.92344790940174
    Total Energy =                       -228.9234479094017161
  Basis Set: 6-31G*
  Basis Set:
  Basis Set: 6-31G*
  Basis Set:
  @DF-RHF Final Energy:  -228.92355115261515
    Total Energy =                       -228.9235511526151754
  Basis Set: 6-31G*
  Basis Set:
  Basis Set: 6-31G*
  Basis Set:
  @DF-RHF Final Energy:  -228.92355336860712
    Total Energy =                       -228.9235533686071449
  Basis Set: 6-31G*
  Basis Set:
  Charge       = 0
  Multiplicity = 1
  Basis Set: 6-31G*
  Basis Set:

    Orbital Energies (a.u.)
    -----------------------

    Doubly Occupied:

       1A    -20.564769     2A    -20.552221     3A    -11.273925
       4A    -11.268221     5A     -1.377092     6A     -1.353022
       7A     -1.000772     8A     -0.843284     9A     -0.726434
      10A     -0.676796    11A     -0.647135    12A     -0.605310
      13A     -0.572708    14A     -0.526614    15A     -0.490268
      16A     -0.454127    17A     -0.433444

  @DF-RHF Final Energy:  -228.92355353898748

   => Energetics <=

    Nuclear Repulsion Energy =            133.5857117909903025
    One-Electron Energy =                -578.2862453475617031
    Two-Electron Energy =                 215.7769800175839237
    DFT Exchange-Correlation Energy =       0.0000000000000000
    Empirical Dispersion Energy =           0.0000000000000000
    PCM Polarization Energy =               0.0000000000000000
    EFP Energy =                            0.0000000000000000
    Total Energy =                       -228.9235535389874485
    Molecular point group: c1
  Basis Set: 6-31G*
  Basis Set:

  -Total Gradient:
     Atom            X                  Y                   Z
    ------   -----------------  -----------------  -----------------
       1       -0.000008618511     0.000008121186    -0.000008105807
       2       -0.000040543705     0.000029690184    -0.000007698037
       3       -0.001412887556     0.007399280344    -0.003218478901
       4        0.002056479741    -0.004438854937     0.005193565789
       5        0.000801382454    -0.005383739364     0.001621310591
       6       -0.000006647390     0.000008399114    -0.000005679987
       7       -0.001392813532     0.002354714096    -0.003580335251
       8        0.000009733255    -0.000015176200    -0.000000988873
       9       -0.000004129761     0.000007782931     0.000012389215
      10       -0.000001954993     0.000029782645    -0.000005978742

  **** Optimization is complete! (in 5 steps) ****
    Final optimized geometry and variables:
    Molecular point group: c1

    Geometry (in Angstrom), charge = 0, multiplicity = 1:

    H            2.285896675269    -0.448922300971     0.058725415184
    O            1.423073416703    -0.342363377158     0.433223482558
    C            0.674632274053     0.577523208771    -0.331682304625
    C           -0.748743708039     0.520366367605     0.183155369620
    H            0.681262124354     0.267143444999    -1.372298331534
    H            1.082358409341     1.581162210042    -0.241274123329
    O           -1.431598707829    -0.604282302048    -0.294785520963
    H           -1.302012293468     1.380439314487    -0.173295029295
    H           -0.736480675964     0.551737100652     1.269064723713
    H           -0.993289534748    -1.379988975878     0.030451202820

  Mulliken Charges: (a.u.)
   Center  Symbol    Alpha    Beta     Spin     Total
       1     H     0.27838  0.27838  0.00000  0.44324
       2     O     4.37694  4.37694  0.00000 -0.75389
       3     C     3.01399  3.01399  0.00000 -0.02799
       4     C     2.99908  2.99908  0.00000  0.00185
       5     H     0.42051  0.42051  0.00000  0.15898
       6     H     0.42774  0.42774  0.00000  0.14451
       7     O     4.37061  4.37061  0.00000 -0.74122
       8     H     0.41659  0.41659  0.00000  0.16682
       9     H     0.41937  0.41937  0.00000  0.16125
      10     H     0.27677  0.27677  0.00000  0.44645

   Total alpha = 17.00000, Total beta = 17.00000, Total charge = -0.00000
