  ==> Input File <==

--------------------------------------------------------------------------
set {
	reference rhf
	basis 6-31G*
}

set_num_threads( 4 )
memory 2 gb

molecule MOL {
0 1

H	 2.751474	 0.075558	 -0.249540
N	 1.773688	 0.288317	 -0.255010
C	 1.195760	 0.053019	 1.055465
C	 1.092854	 -0.479983	 -1.281115
H	 1.721473	 0.658770	 1.785849
H	 1.273645	 -0.991866	 1.364965
C	 -0.273766	 0.445785	 1.029827
H	 1.544045	 -0.260221	 -2.242833
H	 1.164507	 -1.557151	 -1.113135
C	 -0.376609	 -0.086886	 -1.305306
H	 -0.351892	 1.525267	 0.869470
H	 -0.726654	 0.220454	 1.989861
N	 -0.975995	 -0.298722	 0.000000
H	 -0.903766	 -0.696895	 -2.031626
H	 -0.461624	 0.956908	 -1.622108
C	 -2.393863	 -0.024976	 0.000000
H	 -2.854032	 -0.467193	 -0.876721
H	 -2.854032	 -0.467193	 0.876721
H	 -2.623281	 1.044943	 0.000000

	symmetry c1
}
set optking {
	frozen_dihedral = ("
		7 13 16 19
	")
}

ee = optimize('scf')
oeprop('DIPOLE', 'QUADRUPOLE', 'MULLIKEN_CHARGES')
f=open( 'psi4out.xyz', 'w' )
f.write( "19  " )
f.write( str(ee) + "\n" )
f.write( MOL.save_string_xyz() )
f.close()
--------------------------------------------------------------------------

    Molecular point group: c1
  Charge       = 0
  Multiplicity = 1
  Basis Set: 6-31G*
  Basis Set:
  @DF-RHF Final Energy:  -305.19892865895969
    Total Energy =                       -305.1989286589597441
    Molecular point group: c1
  Basis Set: 6-31G*
  Basis Set:
  Basis Set: 6-31G*
  Basis Set:
  @DF-RHF Final Energy:  -305.19901275840527
    Total Energy =                       -305.1990127584053312
  Basis Set: 6-31G*
  Basis Set:
  Basis Set: 6-31G*
  Basis Set:
  @DF-RHF Final Energy:  -305.19901850903915
    Total Energy =                       -305.1990185090393197
  Basis Set: 6-31G*
  Basis Set:
  Charge       = 0
  Multiplicity = 1
  Basis Set: 6-31G*
  Basis Set:

    Orbital Energies (a.u.)
    -----------------------

    Doubly Occupied:

       1A    -15.541454     2A    -15.536569     3A    -11.238611
       4A    -11.238547     5A    -11.237169     6A    -11.237153
       7A    -11.234975     8A     -1.247356     9A     -1.185654
      10A     -1.022723    11A     -0.964492    12A     -0.860479
      13A     -0.857332    14A     -0.757651    15A     -0.691211
      16A     -0.633166    17A     -0.626322    18A     -0.608262
      19A     -0.603188    20A     -0.579406    21A     -0.543343
      22A     -0.529290    23A     -0.512220    24A     -0.490261
      25A     -0.465740    26A     -0.456634    27A     -0.363295
      28A     -0.346611

  @DF-RHF Final Energy:  -305.19901900053162

   => Energetics <=

    Nuclear Repulsion Energy =            339.8678457618872244
    One-Electron Energy =               -1086.9154989712515089
    Two-Electron Energy =                 441.8486342088326637
    DFT Exchange-Correlation Energy =       0.0000000000000000
    Empirical Dispersion Energy =           0.0000000000000000
    PCM Polarization Energy =               0.0000000000000000
    EFP Energy =                            0.0000000000000000
    Total Energy =                       -305.1990190005316208
    Molecular point group: c1
  Basis Set: 6-31G*
  Basis Set:

  -Total Gradient:
     Atom            X                  Y                   Z
    ------   -----------------  -----------------  -----------------
       1       -0.000009382353    -0.000001719685     0.000000419174
       2       -0.000005432734     0.000001062079     0.000003883357
       3        0.000005930476    -0.000028599404     0.000005772231
       4        0.000033072931     0.000016443868    -0.000012794077
       5       -0.000015662156    -0.000000977628    -0.000003611043
       6        0.000017019308    -0.000010587168     0.000003226695
       7        0.000338505734     0.001739554301    -0.001518444978
       8        0.000013234761    -0.000000146704    -0.000003320152
       9       -0.000009387239     0.000008784105    -0.000000453796
      10       -0.000015378504    -0.000032311730     0.000051031607
      11       -0.000011358710     0.000021320332     0.000004545802
      12        0.000010586657     0.000002808808     0.000002824649
      13       -0.000489027373    -0.002347529414     0.002898896138
      14       -0.000011826275     0.000001020747    -0.000002022322
      15        0.000004976159    -0.000004295898     0.000002970636
      16        0.000129573663     0.000619435050    -0.004567922719
      17        0.000027758085    -0.000009993351     0.000006675714
      18       -0.000022419345    -0.000000351704     0.000022876160
      19        0.000009216918     0.000026083395     0.003105446925

  **** Optimization is complete! (in 4 steps) ****
    Final optimized geometry and variables:
    Molecular point group: c1

    Geometry (in Angstrom), charge = 0, multiplicity = 1:

    H            2.755374789259     0.086988219010    -0.135244398420
    N            1.778038949762     0.301638339670    -0.142793129352
    C            1.195661704723     0.065267021045     1.165413573505
    C            1.098255324670    -0.462277381759    -1.172791458305
    H            1.716320605480     0.673197196504     1.897672307527
    H            1.275123874883    -0.979000630485     1.476379537899
    C           -0.274517858759     0.454194804733     1.132509189179
    H            1.550732180419    -0.238843033200    -2.133131771942
    H            1.169332185469    -1.540134162567    -1.009128496860
    C           -0.371680443233    -0.070621271985    -1.198079206178
    H           -0.355727616497     1.531826486139     0.963320382015
    H           -0.729946239478     0.235580032127     2.093321459772
    N           -0.974727943181    -0.296886418122     0.105218900121
    H           -0.893996305603    -0.675747900554    -1.931560296631
    H           -0.456284992746     0.975592963944    -1.506436456748
    C           -2.392423203919    -0.011518801684     0.110344910252
    H           -2.868539985413    -0.469054990328    -0.748393010919
    H           -2.845059615857    -0.429133296376     1.004355630599
    H           -2.611744757879     1.059846660284     0.105634842770

  Mulliken Charges: (a.u.)
   Center  Symbol    Alpha    Beta     Spin     Total
       1     H     0.32951  0.32951  0.00000  0.34098
       2     N     3.85425  3.85425  0.00000 -0.70850
       3     C     3.06310  3.06310  0.00000 -0.12621
       4     C     3.06339  3.06339  0.00000 -0.12677
       5     H     0.41759  0.41759  0.00000  0.16482
       6     H     0.42751  0.42751  0.00000  0.14498
       7     C     3.05657  3.05657  0.00000 -0.11315
       8     H     0.41761  0.41761  0.00000  0.16477
       9     H     0.42757  0.42757  0.00000  0.14486
      10     C     3.05620  3.05620  0.00000 -0.11240
      11     H     0.42739  0.42739  0.00000  0.14521
      12     H     0.41848  0.41848  0.00000  0.16305
      13     N     3.78691  3.78691  0.00000 -0.57381
      14     H     0.41857  0.41857  0.00000  0.16285
      15     H     0.42797  0.42797  0.00000  0.14407
      16     C     3.14059  3.14059  0.00000 -0.28118
      17     H     0.41760  0.41760  0.00000  0.16480
      18     H     0.41650  0.41650  0.00000  0.16700
      19     H     0.43269  0.43269  0.00000  0.13462

   Total alpha = 28.00000, Total beta = 28.00000, Total charge = -0.00000
