                              Psi4 1.0.54 Driver

  ==> Input File <==

--------------------------------------------------------------------------
set {
	reference rhf
	basis cc-pvtz
}

set_num_threads( 4 )
memory 2 gb

molecule MOL {
0 1

O	 -0.694481	 1.313155	 -0.204815
C	 -0.862519	 0.151932	 -0.046791
C	 -2.171428	 -0.477048	 0.339095
O	 0.085519	 -0.757083	 -0.192238
H	 -2.467997	 -1.191667	 -0.417688
H	 -2.923379	 0.287970	 0.444097
H	 -2.053854	 -1.015120	 1.270901
C	 1.392036	 -0.330828	 -0.560749
C	 1.817193	 0.901616	 0.210109
H	 1.421198	 -0.153440	 -1.624468
H	 2.029798	 -1.169962	 -0.326514
H	 2.839064	 1.156436	 -0.047371
H	 1.185530	 1.745490	 -0.031263
H	 1.769964	 0.720710	 1.277178

	symmetry c1
}
set optking {
	frozen_dihedral = ("
		10 8 4 2
	")
}

ee,wfn = optimize('scf', return_wfn=True)
oeprop( wfn, 'DIPOLE', 'QUADRUPOLE', 'MULLIKEN_CHARGES')
f=open( 'psi4out.xyz', 'w' )
f.write( "14  " )
f.write( str(ee) + "\n" )
f.write( MOL.save_string_xyz() )
f.close()
--------------------------------------------------------------------------

    Molecular point group: c1
  Charge       = 0
  Multiplicity = 1
  Basis Set: CC-PVTZ
  Basis Set:
  @DF-RHF Final Energy:  -305.97636486713429
    Total Energy =                       -305.9763648671342935
    Molecular point group: c1
  Basis Set: CC-PVTZ
  Basis Set:
  Basis Set: CC-PVTZ
  Basis Set:
  @DF-RHF Final Energy:  -305.97184691302050
    Total Energy =                       -305.9718469130202720
  Basis Set: CC-PVTZ
  Basis Set:
  Basis Set: CC-PVTZ
  Basis Set:
  @DF-RHF Final Energy:  -305.98546847811565
    Total Energy =                       -305.9854684781157630
  Basis Set: CC-PVTZ
  Basis Set:
  Basis Set: CC-PVTZ
  Basis Set:
  @DF-RHF Final Energy:  -305.98597611110415
    Total Energy =                       -305.9859761111039802
  Basis Set: CC-PVTZ
  Basis Set:
  @DF-RHF Final Energy:  -305.98528201214037
    Total Energy =                       -305.9852820121404307
  @DF-RHF Final Energy:  -305.98600925618189
    Total Energy =                       -305.9860092561817737
  @DF-RHF Final Energy:  -305.98601454682779
    Total Energy =                       -305.9860145468279597
  @DF-RHF Final Energy:  -305.98601599823712
    Total Energy =                       -305.9860159982370078
  @DF-RHF Final Energy:  -305.98601540425216
    Total Energy =                       -305.9860154042522140
  Basis Set: CC-PVTZ
  Basis Set:
  @DF-RHF Final Energy:  -305.98575759213185
    Total Energy =                       -305.9857575921315629
  Basis Set: CC-PVTZ
  Basis Set:
  Basis Set: CC-PVTZ
  Basis Set:
  @DF-RHF Final Energy:  -305.98601741313911
    Total Energy =                       -305.9860174131389385
  Basis Set: CC-PVTZ
  Basis Set:
  Basis Set: CC-PVTZ
  Basis Set:
  @DF-RHF Final Energy:  -305.98601866548643
    Total Energy =                       -305.9860186654865970
  Basis Set: CC-PVTZ
  Basis Set:
  Charge       = 0
  Multiplicity = 1
  Basis Set: CC-PVTZ
  Basis Set:

    Orbital Energies (a.u.)
    -----------------------

    Doubly Occupied:

       1A    -20.593232     2A    -20.531765     3A    -11.367559
       4A    -11.287120     5A    -11.230561     6A    -11.215060
       7A     -1.467988     8A     -1.365461     9A     -1.055511
      10A     -0.998593    11A     -0.891178    12A     -0.755063
      13A     -0.698095    14A     -0.684866    15A     -0.665901
      16A     -0.613934    17A     -0.588860    18A     -0.570962
      19A     -0.552471    20A     -0.533149    21A     -0.515312
      22A     -0.495957    23A     -0.454641    24A     -0.436369

  @DF-RHF Final Energy:  -305.98601884710547

   => Energetics <=

    Nuclear Repulsion Energy =            249.9534854526350216
    One-Electron Energy =                -912.7397921717143845
    Two-Electron Energy =                 356.8002878719740920
    DFT Exchange-Correlation Energy =       0.0000000000000000
    Empirical Dispersion Energy =           0.0000000000000000
    PCM Polarization Energy =               0.0000000000000000
    EFP Energy =                            0.0000000000000000
    Total Energy =                       -305.9860188471052425
    Molecular point group: c1
  Basis Set: CC-PVTZ
  Basis Set:

  -Total Gradient:
     Atom            X                  Y                   Z
    ------   -----------------  -----------------  -----------------
       1        0.000016784871    -0.000039619413     0.000008664676
       2        0.000026121812     0.002192961337     0.005235899845
       3       -0.000031417562    -0.000023467030     0.000059356055
       4        0.000783410361    -0.004555516453    -0.007545889867
       5       -0.000001199304     0.000009047051    -0.000025324191
       6       -0.000017530157    -0.000002561954     0.000005688243
       7       -0.000006666216     0.000004862981    -0.000011698424
       8       -0.004254570524     0.007448350517     0.001436816827
       9        0.000016586978     0.000005977555    -0.000083494647
      10        0.003468474176    -0.005058280737     0.000999983444
      11       -0.000016962355    -0.000045851169    -0.000062941665
      12        0.000024973932     0.000026346400     0.000007430539
      13       -0.000009473061     0.000047472994     0.000002601817
      14        0.000001467046    -0.000009722079    -0.000027092651

  **** Optimization is complete! (in 13 steps) ****
    Final optimized geometry and variables:
    Molecular point group: c1

    Geometry (in Angstrom), charge = 0, multiplicity = 1:

    O           -0.999445204005     0.753773240179    -0.691922360138
    C           -0.799127287249    -0.249956054867    -0.097761646424
    C           -1.876786269524    -1.121834772779     0.484539422535
    O            0.397788932873    -0.763063062307     0.119509903623
    H           -1.781200174883    -2.127905372359     0.097881882185
    H           -2.843848648033    -0.715993555751     0.235779890652
    H           -1.759890975938    -1.170616754307     1.559723766810
    C            1.589596797694    -0.038124875385    -0.173537708554
    C            1.651444750891     1.384535031621     0.345917044015
    H            1.786720826595    -0.108841649798    -1.235413050323
    H            2.351706951009    -0.626687869590     0.316884876496
    H            2.674758623692     1.730922389527     0.251357104363
    H            1.004708424686     2.052982898569    -0.196243120731
    H            1.386884424072     1.415779438702     1.396841790172

  Mulliken Charges: (a.u.)
   Center  Symbol    Alpha    Beta     Spin     Total
       1     O     4.19937  4.19937  0.00000 -0.39875
       2     C     2.80067  2.80067  0.00000  0.39865
       3     C     3.13835  3.13835  0.00000 -0.27669
       4     O     4.15556  4.15556  0.00000 -0.31112
       5     H     0.44464  0.44464  0.00000  0.11072
       6     H     0.43853  0.43853  0.00000  0.12294
       7     H     0.44709  0.44709  0.00000  0.10582
       8     C     2.98112  2.98112  0.00000  0.03776
       9     C     3.15618  3.15618  0.00000 -0.31235
      10     H     0.45489  0.45489  0.00000  0.09022
      11     H     0.44767  0.44767  0.00000  0.10466
      12     H     0.45005  0.45005  0.00000  0.09990
      13     H     0.43238  0.43238  0.00000  0.13523
      14     H     0.45350  0.45350  0.00000  0.09300

   Total alpha = 24.00000, Total beta = 24.00000, Total charge = -0.00000

*** Psi4 exiting successfully. Buy a developer a beer!
