                              Psi4 1.0.54 Driver

  ==> Input File <==

--------------------------------------------------------------------------
set {
	reference rhf
	basis cc-pvtz
}

set_num_threads( 4 )
memory 2 gb

molecule MOL {
0 1

H	 0.663522	 3.761228	 -0.000000
O	 1.415312	 3.195955	 -0.000000
C	 1.056949	 1.899746	 -0.000000
C	 2.072852	 0.954726	 0.000000
C	 -0.261039	 1.495686	 -0.000000
H	 3.090870	 1.290577	 0.000000
C	 1.766131	 -0.386644	 0.000000
H	 -1.064454	 2.202667	 -0.000000
C	 -0.532034	 0.141680	 0.000000
H	 2.557832	 -1.109802	 0.000000
C	 0.449825	 -0.817087	 -0.000000
N	 -1.937041	 -0.281114	 0.000000
H	 0.196729	 -1.854712	 0.000000
O	 -2.159542	 -1.446261	 0.000000
O	 -2.764978	 0.565773	 0.000000

	symmetry c1
}
set optking {
	frozen_dihedral = ("
		11 9 12 14
	")
}

ee,wfn = optimize('scf', return_wfn=True)
oeprop( wfn, 'DIPOLE', 'QUADRUPOLE', 'MULLIKEN_CHARGES')
f=open( 'psi4out.xyz', 'w' )
f.write( "15  " )
f.write( str(ee) + "\n" )
f.write( MOL.save_string_xyz() )
f.close()
--------------------------------------------------------------------------

    Molecular point group: c1
  Charge       = 0
  Multiplicity = 1
  Basis Set: CC-PVTZ
  Basis Set:
  @DF-RHF Final Energy:  -509.21910319088937
    Total Energy =                       -509.2191031908892001
    Molecular point group: c1
  Basis Set: CC-PVTZ
  Basis Set:
  Basis Set: CC-PVTZ
  Basis Set:
  @DF-RHF Final Energy:  -509.21911017425992
    Total Energy =                       -509.2191101742598676
  Basis Set: CC-PVTZ
  Basis Set:
  Basis Set: CC-PVTZ
  Basis Set:
  @DF-RHF Final Energy:  -509.21911150266016
    Total Energy =                       -509.2191115026602120
  Basis Set: CC-PVTZ
  Basis Set:
  Basis Set: CC-PVTZ
  Basis Set:
  @DF-RHF Final Energy:  -509.21910931976720
    Total Energy =                       -509.2191093197670853
  Basis Set: CC-PVTZ
  Basis Set:
  Charge       = 0
  Multiplicity = 1
  Basis Set: CC-PVTZ
  Basis Set:

    Orbital Energies (a.u.)
    -----------------------

    Doubly Occupied:

       1A    -20.608399     2A    -20.595048     3A    -20.594511
       4A    -15.850632     5A    -11.327667     6A    -11.308971
       7A    -11.263137     8A    -11.262758     9A    -11.258489
      10A    -11.256571    11A     -1.644308    12A     -1.441015
      13A     -1.426718    14A     -1.202483    15A     -1.095488
      16A     -1.047895    17A     -0.966848    18A     -0.881351
      19A     -0.831989    20A     -0.795486    21A     -0.756019
      22A     -0.743610    23A     -0.729551    24A     -0.709386
      25A     -0.677187    26A     -0.636045    27A     -0.621632
      28A     -0.598518    29A     -0.560534    30A     -0.546596
      31A     -0.520073    32A     -0.494932    33A     -0.493644
      34A     -0.460319    35A     -0.380215    36A     -0.346123

  @DF-RHF Final Energy:  -509.21911151309365

   => Energetics <=

    Nuclear Repulsion Energy =            504.7349199762060721
    One-Electron Energy =               -1696.0397614698235884
    Two-Electron Energy =                 682.0857299805236380
    DFT Exchange-Correlation Energy =       0.0000000000000000
    Empirical Dispersion Energy =           0.0000000000000000
    PCM Polarization Energy =               0.0000000000000000
    EFP Energy =                            0.0000000000000000
    Total Energy =                       -509.2191115130938215
    Molecular point group: c1
  Basis Set: CC-PVTZ
  Basis Set:

  -Total Gradient:
     Atom            X                  Y                   Z
    ------   -----------------  -----------------  -----------------
       1       -0.000000623235    -0.000001381634    -0.000000023340
       2        0.000001677791    -0.000002520611     0.000000101514
       3       -0.000005462212     0.000007011438    -0.000000251421
       4        0.000001227582    -0.000004355231     0.000000222523
       5        0.000003808967     0.000006142796     0.000000055844
       6        0.000000744619    -0.000001247350     0.000000044153
       7       -0.000000578631     0.000007316424    -0.000000338995
       8        0.000001555664    -0.000000252328     0.000000107498
       9        0.000003220570    -0.000006260407    -0.000000723401
      10        0.000000016542    -0.000000745559     0.000000127953
      11       -0.000003694508     0.000001928817     0.000000279103
      12        0.000009848913    -0.000012988927     0.000000888070
      13       -0.000000971910    -0.000001234007     0.000000015406
      14       -0.000001923658    -0.000001133564    -0.000000159756
      15       -0.000008846502     0.000009720146    -0.000000345151

  **** Optimization is complete! (in 5 steps) ****
    Final optimized geometry and variables:
    Molecular point group: c1

    Geometry (in Angstrom), charge = 0, multiplicity = 1:

    H            0.829650380383     3.207988362790    -0.000000050088
    O            1.581461490472     2.642784303892     0.000002183901
    C            1.223331816461     1.346502034878    -0.000000842523
    C            2.239312650504     0.401627934199    -0.000000137738
    C           -0.094644978633     0.942223969368    -0.000001095168
    H            3.257293857485     0.737564449771     0.000001886880
    C            1.932777634511    -0.939811011402    -0.000001698414
    H           -0.898152048252     1.649066053679     0.000002047795
    C           -0.365427578490    -0.411785856776    -0.000002690463
    H            2.724625745138    -1.662804723596     0.000000648328
    C            0.616570017806    -1.370452140374    -0.000001331486
    N           -1.770363286162    -0.834825029348     0.000001431020
    H            0.363564837345    -2.408080079882    -0.000000233312
    O           -1.993232127121    -1.998032368132     0.000005689235
    O           -2.599099264409     0.013882413231    -0.000003548162

  Mulliken Charges: (a.u.)
   Center  Symbol    Alpha    Beta     Spin     Total
       1     H     0.38407  0.38407  0.00000  0.23187
       2     O     4.16873  4.16873  0.00000 -0.33747
       3     C     2.84352  2.84352  0.00000  0.31297
       4     C     3.09742  3.09742  0.00000 -0.19483
       5     C     3.13347  3.13347  0.00000 -0.26694
       6     H     0.41314  0.41314  0.00000  0.17373
       7     C     3.05668  3.05668  0.00000 -0.11336
       8     H     0.40727  0.40727  0.00000  0.18545
       9     C     2.98296  2.98296  0.00000  0.03408
      10     H     0.41597  0.41597  0.00000  0.16807
      11     C     3.09526  3.09526  0.00000 -0.19053
      12     N     3.24898  3.24898  0.00000  0.50204
      13     H     0.39950  0.39950  0.00000  0.20101
      14     O     4.17459  4.17459  0.00000 -0.34918
      15     O     4.17845  4.17845  0.00000 -0.35691

   Total alpha = 36.00000, Total beta = 36.00000, Total charge =  0.00000

*** Psi4 exiting successfully. Buy a developer a beer!
