                              Psi4 1.0.54 Driver

  ==> Input File <==

--------------------------------------------------------------------------
set {
	reference rhf
	basis cc-pvtz
}

set_num_threads( 4 )
memory 2 gb

molecule MOL {
0 1

O	 0.951510	 -0.819010	 -4.979453
C	 0.512488	 -0.086534	 -4.153517
C	 0.390781	 -0.522648	 -2.706783
C	 0.072031	 1.317404	 -4.493698
C	 1.716019	 -0.327288	 -1.959508
H	 0.122369	 -1.571479	 -2.702186
H	 -0.397675	 0.033691	 -2.211112
C	 1.630207	 -0.772146	 -0.501001
H	 2.485049	 -0.883019	 -2.481028
H	 2.006683	 0.719829	 -1.996378
C	 2.907848	 -0.545876	 0.309149
H	 1.364245	 -1.825672	 -0.464590
H	 0.816519	 -0.236302	 -0.019974
C	 3.373802	 0.906639	 0.372125
H	 3.699140	 -1.146831	 -0.127906
H	 2.764321	 -0.923458	 1.318191
H	 3.519798	 1.311927	 -0.623875
H	 4.316899	 0.983758	 0.900700
H	 2.661122	 1.540651	 0.885346
H	 -1.005046	 1.390405	 -4.381566
H	 0.345431	 1.557180	 -5.509734
H	 0.514305	 2.033655	 -3.810348

	symmetry c1
}
set optking {
	frozen_dihedral = ("
		12 8 11 15
	")
}

ee,wfn = optimize('scf', return_wfn=True)
oeprop( wfn, 'DIPOLE', 'QUADRUPOLE', 'MULLIKEN_CHARGES')
f=open( 'psi4out.xyz', 'w' )
f.write( "22  " )
f.write( str(ee) + "\n" )
f.write( MOL.save_string_xyz() )
f.close()
--------------------------------------------------------------------------

    Molecular point group: c1
  Charge       = 0
  Multiplicity = 1
  Basis Set: CC-PVTZ
  Basis Set:
  @DF-RHF Final Energy:  -348.22243922666104
    Total Energy =                       -348.2224392266609243
    Molecular point group: c1
  Basis Set: CC-PVTZ
  Basis Set:
  Basis Set: CC-PVTZ
  Basis Set:
  @DF-RHF Final Energy:  -348.22282249101283
    Total Energy =                       -348.2228224910128915
  Basis Set: CC-PVTZ
  Basis Set:
  Basis Set: CC-PVTZ
  Basis Set:
  @DF-RHF Final Energy:  -348.22338871296955
    Total Energy =                       -348.2233887129691539
  Basis Set: CC-PVTZ
  Basis Set:
  Basis Set: CC-PVTZ
  Basis Set:
  @DF-RHF Final Energy:  -348.22332242978138
    Total Energy =                       -348.2233224297815468
  Basis Set: CC-PVTZ
  Basis Set:
  @DF-RHF Final Energy:  -348.22336168102441
    Total Energy =                       -348.2233616810245849
  Basis Set: CC-PVTZ
  Basis Set:
  @DF-RHF Final Energy:  -348.22339514208824
    Total Energy =                       -348.2233951420882931
  Basis Set: CC-PVTZ
  Basis Set:
  Basis Set: CC-PVTZ
  Basis Set:
  @DF-RHF Final Energy:  -348.22341129831773
    Total Energy =                       -348.2234112983177283
  Basis Set: CC-PVTZ
  Basis Set:
  Basis Set: CC-PVTZ
  Basis Set:
  @DF-RHF Final Energy:  -348.22341263643500
    Total Energy =                       -348.2234126364353415
  Basis Set: CC-PVTZ
  Basis Set:
  Charge       = 0
  Multiplicity = 1
  Basis Set: CC-PVTZ
  Basis Set:

    Orbital Energies (a.u.)
    -----------------------

    Doubly Occupied:

       1A    -20.536659     2A    -11.319144     3A    -11.227977
       4A    -11.227369     5A    -11.226816     6A    -11.220849
       7A    -11.219165     8A    -11.211500     9A     -1.396777
      10A     -1.097633    11A     -1.046065    12A     -1.000357
      13A     -0.939508    14A     -0.860109    15A     -0.786559
      16A     -0.734380    17A     -0.662772    18A     -0.649850
      19A     -0.628475    20A     -0.619645    21A     -0.599768
      22A     -0.588524    23A     -0.555428    24A     -0.549200
      25A     -0.534534    26A     -0.522384    27A     -0.501392
      28A     -0.489111    29A     -0.469766    30A     -0.466659
      31A     -0.463259    32A     -0.398381

  @DF-RHF Final Energy:  -348.22341291899505

   => Energetics <=

    Nuclear Repulsion Energy =            373.9077319534395087
    One-Electron Energy =               -1212.7622596009500739
    Two-Electron Energy =                 490.6311147285152856
    DFT Exchange-Correlation Energy =       0.0000000000000000
    Empirical Dispersion Energy =           0.0000000000000000
    PCM Polarization Energy =               0.0000000000000000
    EFP Energy =                            0.0000000000000000
    Total Energy =                       -348.2234129189953364
    Molecular point group: c1
  Basis Set: CC-PVTZ
  Basis Set:

  -Total Gradient:
     Atom            X                  Y                   Z
    ------   -----------------  -----------------  -----------------
       1       -0.000009201325     0.000018736996     0.000037746640
       2        0.000027014452     0.000017018610    -0.000019255658
       3       -0.000013206914     0.000015864099    -0.000006912941
       4       -0.000013296573    -0.000021211670    -0.000021016961
       5        0.000021123360    -0.000025267938    -0.000016536540
       6       -0.000001063604     0.000009721325     0.000012992990
       7        0.000011431137    -0.000004485458    -0.000010620109
       8       -0.000586835733     0.000011147100     0.000933063782
       9       -0.000022713166     0.000014651552    -0.000000835028
      10       -0.000020167466    -0.000018662745    -0.000002102425
      11        0.000375286457     0.000770303436    -0.000737419661
      12        0.000434552375    -0.000126598044    -0.000679401419
      13        0.000012320582    -0.000018689163    -0.000008828936
      14        0.000017041300     0.000004823027    -0.000003626488
      15       -0.000248456152    -0.000608565026     0.000487445306
      16        0.000016109695     0.000020180946    -0.000011092997
      17       -0.000014021754    -0.000029137969     0.000051229037
      18       -0.000015594465     0.000007902690    -0.000007948187
      19        0.000023693311    -0.000027846196    -0.000019773573
      20       -0.000004054022     0.000006394021     0.000005154506
      21        0.000000728843    -0.000004391376     0.000016436120
      22        0.000009309662    -0.000011888210     0.000001302537

  **** Optimization is complete! (in 9 steps) ****
    Final optimized geometry and variables:
    Molecular point group: c1

    Geometry (in Angstrom), charge = 0, multiplicity = 1:

    O           -0.442247571957    -0.720956174642    -2.726138005711
    C           -0.924085532201    -0.005500004606    -1.909309852542
    C           -1.056037807149    -0.445058480703    -0.464769737221
    C           -1.413460522097     1.379504717493    -2.260113813322
    C            0.237259568396    -0.173951106486     0.314324844968
    H           -1.267201960275    -1.506655991336    -0.462962038885
    H           -1.885332312200     0.069096827110     0.009749232263
    C            0.137474564718    -0.616693396993     1.772931468327
    H            1.051467999598    -0.699981299504    -0.172899541821
    H            0.473624861494     0.883725727567     0.263091041941
    C            1.434292533521    -0.477358568670     2.571960842055
    H           -0.167115712322    -1.658996538782     1.793040663359
    H           -0.651916600716    -0.054901448052     2.266652497215
    C            1.952177226819     0.951339429309     2.714904989343
    H            2.201275034265    -1.099960398615     2.119802056171
    H            1.264772388914    -0.886286133460     3.563278400422
    H            2.247089935196     1.374382601125     1.762341982696
    H            2.819186893404     0.980734860872     3.364438596731
    H            1.195627602041     1.599271968829     3.146286948741
    H           -2.495230805056     1.406474435134    -2.176026829796
    H           -1.124698767109     1.631392597070    -3.268911425572
    H           -1.019947400939     2.113456571287    -1.565955255075

  Mulliken Charges: (a.u.)
   Center  Symbol    Alpha    Beta     Spin     Total
       1     O     4.17786  4.17786  0.00000 -0.35571
       2     C     2.85814  2.85814  0.00000  0.28371
       3     C     3.09734  3.09734  0.00000 -0.19467
       4     C     3.15518  3.15518  0.00000 -0.31037
       5     C     3.10354  3.10354  0.00000 -0.20707
       6     H     0.43866  0.43866  0.00000  0.12268
       7     H     0.44934  0.44934  0.00000  0.10133
       8     C     3.09733  3.09733  0.00000 -0.19466
       9     H     0.44073  0.44073  0.00000  0.11853
      10     H     0.44999  0.44999  0.00000  0.10001
      11     C     3.09027  3.09027  0.00000 -0.18054
      12     H     0.44688  0.44688  0.00000  0.10624
      13     H     0.45276  0.45276  0.00000  0.09448
      14     C     3.15440  3.15440  0.00000 -0.30880
      15     H     0.45178  0.45178  0.00000  0.09644
      16     H     0.44777  0.44777  0.00000  0.10446
      17     H     0.45316  0.45316  0.00000  0.09368
      18     H     0.44454  0.44454  0.00000  0.11093
      19     H     0.45488  0.45488  0.00000  0.09024
      20     H     0.44832  0.44832  0.00000  0.10336
      21     H     0.43604  0.43604  0.00000  0.12791
      22     H     0.45109  0.45109  0.00000  0.09783

   Total alpha = 32.00000, Total beta = 32.00000, Total charge =  0.00000

*** Psi4 exiting successfully. Buy a developer a beer!
