  ==> Input File <==

--------------------------------------------------------------------------
set {
	reference rhf
	basis cc-pvtz
}

set_num_threads( 4 )
memory 2 gb

molecule MOL {
0 1

H	 2.679323	 1.239901	 -2.223047
O	 1.754258	 1.117067	 -2.335266
C	 1.154735	 0.816003	 -1.166763
C	 1.860174	 0.712756	 0.022513
C	 -0.209243	 0.607611	 -1.179336
H	 2.922675	 0.875412	 0.030492
C	 1.201244	 0.401854	 1.194736
H	 -0.756891	 0.686627	 -2.096223
C	 -0.861704	 0.296439	 0.000000
H	 1.757400	 0.324651	 2.108822
C	 -0.163057	 0.191887	 1.190707
C	 -2.330689	 0.069587	 0.000000
H	 -0.678175	 -0.050014	 2.100666
O	 -2.848621	 -0.993976	 0.000000
H	 -2.934306	 0.982410	 0.000000

	symmetry c1
}
set optking {
	frozen_dihedral = ("
		11 9 12 14
	")
}

ee = optimize('scf')
oeprop('DIPOLE', 'QUADRUPOLE', 'MULLIKEN_CHARGES')
f=open( 'psi4out.xyz', 'w' )
f.write( "15  " )
f.write( str(ee) + "\n" )
f.write( MOL.save_string_xyz() )
f.close()
--------------------------------------------------------------------------

    Molecular point group: c1
  Charge       = 0
  Multiplicity = 1
  Basis Set: CC-PVTZ
  Basis Set:
  @DF-RHF Final Energy:  -418.42729244994320
    Total Energy =                       -418.4272924499430246
    Molecular point group: c1
  Basis Set: CC-PVTZ
  Basis Set:
  Basis Set: CC-PVTZ
  Basis Set:
  @DF-RHF Final Energy:  -418.42765447926649
    Total Energy =                       -418.4276544792669483
  Basis Set: CC-PVTZ
  Basis Set:
  Basis Set: CC-PVTZ
  Basis Set:
  @DF-RHF Final Energy:  -418.42680982376004
    Total Energy =                       -418.4268098237602089
  Basis Set: CC-PVTZ
  Basis Set:
  Basis Set: CC-PVTZ
  Basis Set:
  @DF-RHF Final Energy:  -418.42773840208326
    Total Energy =                       -418.4277384020833779
  Basis Set: CC-PVTZ
  Basis Set:
  Basis Set: CC-PVTZ
  Basis Set:
  @DF-RHF Final Energy:  -418.42774234375730
    Total Energy =                       -418.4277423437573589
  Basis Set: CC-PVTZ
  Basis Set:
  Charge       = 0
  Multiplicity = 1
  Basis Set: CC-PVTZ
  Basis Set:

    Orbital Energies (a.u.)
    -----------------------

    Doubly Occupied:

       1A    -20.597024     2A    -20.563871     3A    -11.333085
       4A    -11.312724     5A    -11.256401     6A    -11.249404
       7A    -11.239130     8A    -11.237780     9A    -11.235911
      10A     -1.428904    11A     -1.418328    12A     -1.172253
      13A     -1.051483    14A     -1.026903    15A     -0.901992
      16A     -0.845713    17A     -0.821122    18A     -0.742973
      19A     -0.703273    20A     -0.677646    21A     -0.672262
      22A     -0.642671    23A     -0.616342    24A     -0.607959
      25A     -0.587401    26A     -0.545949    27A     -0.535658
      28A     -0.515735    29A     -0.498247    30A     -0.426764
      31A     -0.357691    32A     -0.328677

  @DF-RHF Final Energy:  -418.42774283029433

   => Energetics <=

    Nuclear Repulsion Energy =            402.7289838046808086
    One-Electron Energy =               -1368.0108982312372063
    Two-Electron Energy =                 546.8541715962627450
    DFT Exchange-Correlation Energy =       0.0000000000000000
    Empirical Dispersion Energy =           0.0000000000000000
    PCM Polarization Energy =               0.0000000000000000
    EFP Energy =                            0.0000000000000000
    Total Energy =                       -418.4277428302935959
    Molecular point group: c1
  Basis Set: CC-PVTZ
  Basis Set:

  -Total Gradient:
     Atom            X                  Y                   Z
    ------   -----------------  -----------------  -----------------
       1       -0.000002969004     0.000009288863     0.000001311870
       2        0.000002306390     0.000036684066     0.000017671902
       3       -0.000060469874    -0.000129463622    -0.000078080909
       4        0.000010656984     0.000005667319     0.000109397456
       5        0.000012487630     0.000034391727    -0.000013868990
       6       -0.000004144389     0.000006364852    -0.000005986221
       7        0.000099689017     0.000039597270    -0.000066818152
       8        0.000013679144     0.000006175287    -0.000001547485
       9        0.000482332946    -0.003254524357    -0.001641225268
      10       -0.000006824941    -0.000003511277     0.000009360738
      11       -0.000401991838     0.002206395698     0.000290719874
      12       -0.000250414988     0.001066835576     0.004163314574
      13        0.000008484711     0.000005776312     0.000001016941
      14        0.000061460204    -0.000029126466    -0.002790019729
      15        0.000035718002    -0.000000551248     0.000004753397

  **** Optimization is complete! (in 6 steps) ****
    Final optimized geometry and variables:
    Molecular point group: c1

    Geometry (in Angstrom), charge = 0, multiplicity = 1:

    H            2.726345436318     0.881798465494    -1.934246562616
    O            1.798916357252     0.766722597882    -2.037218436113
    C            1.214115845842     0.462208696321    -0.863583944175
    C            1.925302248909     0.365297767000     0.318686332611
    C           -0.153573329845     0.249698435885    -0.869872035196
    H            2.986282515407     0.535939359831     0.324778011396
    C            1.264254533993     0.050147506362     1.489994300269
    H           -0.687759239540     0.336270597708    -1.796397067679
    C           -0.797857716308    -0.082653294066     0.304242626407
    H            1.820540693269    -0.021621586159     2.404868101166
    C           -0.097056129783    -0.174454937104     1.495292946742
    C           -2.285050537092    -0.278147870630     0.291875459434
    H           -0.603755168875    -0.428857290423     2.405482468324
    O           -2.813641885193    -1.333419178071     0.307822423202
    H           -2.879136849838     0.640367169509     0.244524831805

  Mulliken Charges: (a.u.)
   Center  Symbol    Alpha    Beta     Spin     Total
       1     H     0.38618  0.38618  0.00000  0.22764
       2     O     4.17156  4.17156  0.00000 -0.34313
       3     C     2.83569  2.83569  0.00000  0.32862
       4     C     3.14142  3.14142  0.00000 -0.28284
       5     C     3.13635  3.13635  0.00000 -0.27270
       6     H     0.43259  0.43259  0.00000  0.13482
       7     C     3.05248  3.05248  0.00000 -0.10497
       8     H     0.41922  0.41922  0.00000  0.16156
       9     C     2.91873  2.91873  0.00000  0.16255
      10     H     0.41968  0.41968  0.00000  0.16064
      11     C     3.12143  3.12143  0.00000 -0.24287
      12     C     2.92975  2.92975  0.00000  0.14049
      13     H     0.42132  0.42132  0.00000  0.15736
      14     O     4.15565  4.15565  0.00000 -0.31130
      15     H     0.45793  0.45793  0.00000  0.08413

   Total alpha = 32.00000, Total beta = 32.00000, Total charge = -0.00000
