  ==> Input File <==

--------------------------------------------------------------------------
set {
	reference rhf
	basis 6-31G*
}

set_num_threads( 1 )
memory 2 gb

molecule MOL {
0 1

H	 0.336193	 -1.674840	 -4.578540
O	 1.272618	 -1.806363	 -4.608241
C	 1.906742	 -0.891523	 -3.750915
C	 1.718345	 -1.221500	 -2.274315
H	 2.958583	 -0.932189	 -4.003205
H	 1.564445	 0.122338	 -3.955121
C	 0.264941	 -1.145875	 -1.800219
H	 2.110631	 -2.218428	 -2.090980
H	 2.325070	 -0.529803	 -1.692243
C	 0.115918	 -1.429151	 -0.302766
H	 -0.332321	 -1.856229	 -2.365056
H	 -0.135922	 -0.155822	 -2.018035
C	 -1.309753	 -1.282496	 0.241564
H	 0.480840	 -2.432385	 -0.090161
H	 0.764986	 -0.748723	 0.244435
C	 -2.037799	 -0.007733	 -0.193645
H	 -1.890610	 -2.142323	 -0.085726
H	 -1.285946	 -1.330893	 1.329189
C	 -3.489788	 0.042957	 0.286558
H	 -2.017067	 0.064384	 -1.280144
H	 -1.513726	 0.868678	 0.179924
C	 -4.216917	 1.317354	 -0.141063
H	 -4.025645	 -0.823308	 -0.095450
H	 -3.513059	 -0.038752	 1.371301
H	 -4.239342	 1.411634	 -1.223113
H	 -5.243387	 1.322503	 0.212445
H	 -3.726170	 2.201406	 0.256408

	symmetry c1
}
set optking {
	frozen_dihedral = ("
		14 10 7 4,
		10 7 4 8,
		8 4 3 2,
		10 13 16 20,
		20 16 19 22,
		4 3 2 1
	")
}

ee = energy('scf')
oeprop('DIPOLE', 'QUADRUPOLE', 'MULLIKEN_CHARGES')
f=open( 'psi4out.xyz', 'w' )
f.write( "27  " )
f.write( str(ee) + "\n" )
f.write( MOL.save_string_xyz() )
f.close()
--------------------------------------------------------------------------

    Molecular point group: c1

    Geometry (in Angstrom), charge = 0, multiplicity = 1:

       Center              X                  Y                   Z               Mass
    ------------   -----------------  -----------------  -----------------  -----------------
           H          0.964327631769    -0.958122624992    -3.126474162783     1.007825032070
           O          1.900752631769    -1.089645624992    -3.156175162783    15.994914619560
           C          2.534876631769    -0.174805624992    -2.298849162783    12.000000000000
           C          2.346479631769    -0.504782624992    -0.822249162783    12.000000000000
           H          3.586717631769    -0.215471624992    -2.551139162783     1.007825032070
           H          2.192579631769     0.839055375008    -2.503055162783     1.007825032070
           C          0.893075631769    -0.429157624992    -0.348153162783    12.000000000000
           H          2.738765631769    -1.501710624992    -0.638914162783     1.007825032070
           H          2.953204631769     0.186914375008    -0.240177162783     1.007825032070
           C          0.744052631769    -0.712433624992     1.149299837217    12.000000000000
           H          0.295813631769    -1.139511624992    -0.912990162783     1.007825032070
           H          0.492212631769     0.560895375008    -0.565969162783     1.007825032070
           C         -0.681618368231    -0.565778624992     1.693629837217    12.000000000000
           H          1.108974631769    -1.715667624992     1.361904837217     1.007825032070
           H          1.393120631769    -0.032005624992     1.696500837217     1.007825032070
           C         -1.409664368231     0.708984375008     1.258420837217    12.000000000000
           H         -1.262475368231    -1.425605624992     1.366339837217     1.007825032070
           H         -0.657811368231    -0.614175624992     2.781254837217     1.007825032070
           C         -2.861653368231     0.759674375008     1.738623837217    12.000000000000
           H         -1.388932368231     0.781101375008     0.171921837217     1.007825032070
           H         -0.885591368231     1.585395375008     1.631989837217     1.007825032070
           C         -3.588782368231     2.034071375008     1.311002837217    12.000000000000
           H         -3.397510368231    -0.106590624992     1.356615837217     1.007825032070
           H         -2.884924368231     0.677965375008     2.823366837217     1.007825032070
           H         -3.611207368231     2.128351375008     0.228952837217     1.007825032070
           H         -4.615252368231     2.039220375008     1.664510837217     1.007825032070
           H         -3.098035368231     2.918123375008     1.708473837217     1.007825032070

  Charge       = 0
  Multiplicity = 1
  Basis Set: 6-31G*
  Basis Set:

    Orbital Energies (a.u.)
    -----------------------

    Doubly Occupied:

       1A    -20.552260     2A    -11.267018     3A    -11.219511
       4A    -11.217302     5A    -11.216538     6A    -11.215784
       7A    -11.215071     8A    -11.214674     9A    -11.210148
      10A     -1.359017    11A     -1.096452    12A     -1.061111
      13A     -1.011724    14A     -0.947816    15A     -0.890156
      16A     -0.820084    17A     -0.805924    18A     -0.773471
      19A     -0.694163    20A     -0.649885    21A     -0.640842
      22A     -0.613104    23A     -0.605497    24A     -0.584314
      25A     -0.577092    26A     -0.553582    27A     -0.546748
      28A     -0.523383    29A     -0.506044    30A     -0.501351
      31A     -0.486133    32A     -0.474491    33A     -0.463472
      34A     -0.458974    35A     -0.453218    36A     -0.442531
      37A     -0.423303

  @DF-RHF Final Energy:  -388.27890974306405

   => Energetics <=

    Nuclear Repulsion Energy =            461.9215978124274784
    One-Electron Energy =               -1441.8167349448974619
    Two-Electron Energy =                 591.6162273894049122
    DFT Exchange-Correlation Energy =       0.0000000000000000
    Empirical Dispersion Energy =           0.0000000000000000
    PCM Polarization Energy =               0.0000000000000000
    EFP Energy =                            0.0000000000000000
    Total Energy =                       -388.2789097430650145

  Mulliken Charges: (a.u.)
   Center  Symbol    Alpha    Beta     Spin     Total
       1     H     0.28000  0.28000  0.00000  0.44000
       2     O     4.37094  4.37094  0.00000 -0.74189
       3     C     2.99738  2.99738  0.00000  0.00524
       4     C     3.16012  3.16012  0.00000 -0.32023
       5     H     0.41443  0.41443  0.00000  0.17114
       6     H     0.43212  0.43212  0.00000  0.13576
       7     C     3.16641  3.16641  0.00000 -0.33282
       8     H     0.41530  0.41530  0.00000  0.16940
       9     H     0.42417  0.42417  0.00000  0.15167
      10     C     3.15110  3.15110  0.00000 -0.30220
      11     H     0.42543  0.42543  0.00000  0.14915
      12     H     0.42127  0.42127  0.00000  0.15746
      13     C     3.15286  3.15286  0.00000 -0.30572
      14     H     0.41912  0.41912  0.00000  0.16176
      15     H     0.42388  0.42388  0.00000  0.15224
      16     C     3.15505  3.15505  0.00000 -0.31010
      17     H     0.42413  0.42413  0.00000  0.15174
      18     H     0.42052  0.42052  0.00000  0.15896
      19     C     3.15058  3.15058  0.00000 -0.30116
      20     H     0.42266  0.42266  0.00000  0.15468
      21     H     0.42417  0.42417  0.00000  0.15166
      22     C     3.23917  3.23917  0.00000 -0.47834
      23     H     0.42297  0.42297  0.00000  0.15406
      24     H     0.42291  0.42291  0.00000  0.15417
      25     H     0.42247  0.42247  0.00000  0.15505
      26     H     0.41898  0.41898  0.00000  0.16204
      27     H     0.42186  0.42186  0.00000  0.15628

   Total alpha = 37.00000, Total beta = 37.00000, Total charge =  0.00000
