  ==> Input File <==

--------------------------------------------------------------------------
set {
	reference rhf
	basis 6-31G*
}

set_num_threads( 4 )
memory 2 gb

molecule MOL {
0 1

H	 -3.269016	 -0.876744	 0.468090
C	 -2.809304	 0.000122	 0.025886
N	 -1.391456	 0.000019	 0.300661
H	 -3.037557	 -0.000063	 -1.044252
H	 -3.269223	 0.876956	 0.468000
C	 -1.046861	 -0.861960	 1.414229
C	 -0.870353	 1.337346	 0.505154
H	 -1.517246	 -0.525860	 2.343359
H	 -1.408954	 -1.863389	 1.205447
C	 0.460967	 -0.903060	 1.607456
H	 -1.103746	 1.939898	 -0.366635
H	 -1.329053	 1.819034	 1.374107
C	 0.637474	 1.296245	 0.698381
H	 0.694360	 -1.505613	 2.479244
H	 0.919666	 -1.384748	 0.738503
N	 0.982070	 0.434267	 1.811949
H	 0.999568	 2.297675	 0.907163
H	 1.107859	 0.960146	 -0.230748
C	 2.399917	 0.434164	 2.086725
H	 2.604085	 -0.171613	 2.962580
H	 2.734030	 1.444626	 2.294485
H	 2.996350	 0.043078	 1.256897

	symmetry c1
}
set optking {
	frozen_dihedral = ("
		6 3 2 4
	")
}

ee = optimize('scf')
oeprop('DIPOLE', 'QUADRUPOLE', 'MULLIKEN_CHARGES')
f=open( 'psi4out.xyz', 'w' )
f.write( "22  " )
f.write( str(ee) + "\n" )
f.write( MOL.save_string_xyz() )
f.close()
--------------------------------------------------------------------------

    Molecular point group: c1
  Charge       = 0
  Multiplicity = 1
  Basis Set: 6-31G*
  Basis Set:
  @DF-RHF Final Energy:  -344.22545539569353
    Total Energy =                       -344.2254553956935297
    Molecular point group: c1
  Basis Set: 6-31G*
  Basis Set:
  Basis Set: 6-31G*
  Basis Set:
  @DF-RHF Final Energy:  -344.22653478266227
    Total Energy =                       -344.2265347826623838
  Basis Set: 6-31G*
  Basis Set:
  Basis Set: 6-31G*
  Basis Set:
  @DF-RHF Final Energy:  -344.22668394376444
    Total Energy =                       -344.2266839437643284
  Basis Set: 6-31G*
  Basis Set:
  Basis Set: 6-31G*
  Basis Set:
  @DF-RHF Final Energy:  -344.22669275549976
    Total Energy =                       -344.2266927554999256
  Basis Set: 6-31G*
  Basis Set:
  Charge       = 0
  Multiplicity = 1
  Basis Set: 6-31G*
  Basis Set:

    Orbital Energies (a.u.)
    -----------------------

    Doubly Occupied:

       1A    -15.541539     2A    -15.538339     3A    -11.238671
       4A    -11.238377     5A    -11.237643     6A    -11.237610
       7A    -11.235718     8A    -11.235581     9A     -1.253290
      10A     -1.201642    11A     -1.024611    12A     -0.990939
      13A     -0.911830    14A     -0.866876    15A     -0.835219
      16A     -0.753199    17A     -0.664641    18A     -0.635690
      19A     -0.629409    20A     -0.625071    21A     -0.619809
      22A     -0.579574    23A     -0.550137    24A     -0.548443
      25A     -0.542558    26A     -0.519193    27A     -0.495946
      28A     -0.488492    29A     -0.465461    30A     -0.455575
      31A     -0.348697    32A     -0.338386

  @DF-RHF Final Energy:  -344.22669353951630

   => Energetics <=

    Nuclear Repulsion Energy =            420.9447051815785699
    One-Electron Energy =               -1300.6464675714514669
    Two-Electron Energy =                 535.4750688503563651
    DFT Exchange-Correlation Energy =       0.0000000000000000
    Empirical Dispersion Energy =           0.0000000000000000
    PCM Polarization Energy =               0.0000000000000000
    EFP Energy =                            0.0000000000000000
    Total Energy =                       -344.2266935395165319
    Molecular point group: c1
  Basis Set: 6-31G*
  Basis Set:

  -Total Gradient:
     Atom            X                  Y                   Z
    ------   -----------------  -----------------  -----------------
       1       -0.000012012822    -0.000018832325     0.000005329614
       2        0.000132638790     0.004956034708    -0.000796925007
       3       -0.000777694219     0.002630754635     0.003366526157
       4        0.000087159574    -0.004794305164    -0.000138733665
       5        0.000019702328    -0.000032961885    -0.000002226030
       6        0.000567722011    -0.002753032927    -0.002393442387
       7       -0.000003983961     0.000003624954    -0.000032642443
       8       -0.000001688119     0.000003933837    -0.000013798949
       9       -0.000000102641     0.000004273575     0.000001290860
      10        0.000006053606    -0.000002135012    -0.000002364422
      11       -0.000003280647     0.000001908959     0.000002529571
      12        0.000001006544    -0.000007267919    -0.000000080582
      13       -0.000011004980     0.000026164184     0.000007300632
      14        0.000002401430    -0.000001888573    -0.000001115334
      15       -0.000003006932    -0.000003467935    -0.000002082095
      16       -0.000020280642    -0.000012992012    -0.000013244258
      17        0.000006202505     0.000001291403    -0.000001964433
      18       -0.000008698245     0.000002548061    -0.000001666205
      19        0.000006187236    -0.000002561526     0.000017815238
      20        0.000008512348     0.000001557193    -0.000000002999
      21        0.000004014226    -0.000002860758    -0.000000025004
      22        0.000000152606     0.000000214526    -0.000000478257

  **** Optimization is complete! (in 5 steps) ****
    Final optimized geometry and variables:
    Molecular point group: c1

    Geometry (in Angstrom), charge = 0, multiplicity = 1:

    H           -3.068087422823    -1.135460405584    -0.716677976591
    C           -2.611369525662    -0.211660762116    -1.053470079618
    N           -1.204404854768    -0.204250984106    -0.708930190356
    H           -2.741197467133    -0.179286345640    -2.131108906141
    H           -3.166150139996     0.610211140114    -0.599960441790
    C           -0.844827582129    -1.080188204970     0.386523541581
    C           -0.663794300231     1.127114594438    -0.545507633570
    H           -1.294794799389    -0.763208266996     1.332709496535
    H           -1.205463578615    -2.079178324665     0.167729716889
    C            0.666796611096    -1.121639259441     0.549628706956
    H           -0.901557659447     1.710948368344    -1.429266185776
    H           -1.106122007375     1.637445730214     0.315840436799
    C            0.845682224283     1.072915297906    -0.370684804833
    H            0.917169088283    -1.725624993906     1.415741919867
    H            1.107583349252    -1.602188723609    -0.329314317697
    N            1.194706674031     0.214751270041     0.744790952364
    H            1.220552509373     2.071979625700    -0.173245823255
    H            1.302128094923     0.725067957107    -1.302502567144
    C            2.614937928866     0.208993725257     1.007191668001
    H            2.824209539940    -0.393307117914     1.884256236514
    H            2.955787041363     1.218831469925     1.206821215753
    H            3.202280927297    -0.188965430174     0.174086286868

  Mulliken Charges: (a.u.)
   Center  Symbol    Alpha    Beta     Spin     Total
       1     H     0.42009  0.42009  0.00000  0.15983
       2     C     3.13808  3.13808  0.00000 -0.27617
       3     N     3.79360  3.79360  0.00000 -0.58719
       4     H     0.41631  0.41631  0.00000  0.16738
       5     H     0.42879  0.42879  0.00000  0.14242
       6     C     3.05252  3.05252  0.00000 -0.10503
       7     C     3.05337  3.05337  0.00000 -0.10675
       8     H     0.42953  0.42953  0.00000  0.14093
       9     H     0.41815  0.41815  0.00000  0.16370
      10     C     3.05711  3.05711  0.00000 -0.11421
      11     H     0.41793  0.41793  0.00000  0.16415
      12     H     0.42901  0.42901  0.00000  0.14198
      13     C     3.05657  3.05657  0.00000 -0.11314
      14     H     0.41827  0.41827  0.00000  0.16346
      15     H     0.42894  0.42894  0.00000  0.14212
      16     N     3.78720  3.78720  0.00000 -0.57440
      17     H     0.41823  0.41823  0.00000  0.16355
      18     H     0.42898  0.42898  0.00000  0.14204
      19     C     3.14011  3.14011  0.00000 -0.28022
      20     H     0.41683  0.41683  0.00000  0.16635
      21     H     0.41682  0.41682  0.00000  0.16635
      22     H     0.43357  0.43357  0.00000  0.13286

   Total alpha = 32.00000, Total beta = 32.00000, Total charge = -0.00000
