  ==> Input File <==

--------------------------------------------------------------------------
set {
	reference rhf
	basis 6-31G*
}

set_num_threads( 4 )
memory 2 gb

molecule MOL {
0 1

O	 -0.876541	 1.117833	 -2.460073
C	 -1.390549	 0.762323	 -1.443292
C	 -0.889235	 -0.467034	 -0.705952
C	 -2.537349	 1.528879	 -0.823119
C	 0.379448	 -0.143569	 0.099626
H	 -0.663485	 -1.225847	 -1.447264
H	 -1.658778	 -0.857194	 -0.045948
C	 1.631333	 -0.777471	 -0.511575
H	 0.482768	 0.934507	 0.149241
H	 0.263088	 -0.495696	 1.123449
C	 2.915987	 -0.544314	 0.291766
H	 1.766672	 -0.399098	 -1.523130
H	 1.471257	 -1.849544	 -0.605828
C	 3.373361	 0.914346	 0.347591
H	 3.708709	 -1.142521	 -0.150311
H	 2.780642	 -0.921148	 1.303579
H	 3.506512	 1.320010	 -0.651625
H	 4.322697	 0.999599	 0.867103
H	 2.660624	 1.545032	 0.868198
H	 -3.438284	 0.921437	 -0.847489
H	 -2.707976	 2.446083	 -1.369386
H	 -2.330683	 1.753141	 0.219379

	symmetry c1
}
set optking {
	frozen_dihedral = ("
		6 3 5 8
	")
}

ee = optimize('scf')
oeprop('DIPOLE', 'QUADRUPOLE', 'MULLIKEN_CHARGES')
f=open( 'psi4out.xyz', 'w' )
f.write( "22  " )
f.write( str(ee) + "\n" )
f.write( MOL.save_string_xyz() )
f.close()
--------------------------------------------------------------------------

    Molecular point group: c1
  Charge       = 0
  Multiplicity = 1
  Basis Set: 6-31G*
  Basis Set:
  @DF-RHF Final Energy:  -348.09290904455759
    Total Energy =                       -348.0929090445578709
    Molecular point group: c1
  Basis Set: 6-31G*
  Basis Set:
  Basis Set: 6-31G*
  Basis Set:
  @DF-RHF Final Energy:  -348.09324498933631
    Total Energy =                       -348.0932449893363696
  Basis Set: 6-31G*
  Basis Set:
  Basis Set: 6-31G*
  Basis Set:
  @DF-RHF Final Energy:  -348.09331801617537
    Total Energy =                       -348.0933180161752603
  Basis Set: 6-31G*
  Basis Set:
  Basis Set: 6-31G*
  Basis Set:
  @DF-RHF Final Energy:  -348.09343584189401
    Total Energy =                       -348.0934358418937791
  Basis Set: 6-31G*
  Basis Set:
  @DF-RHF Final Energy:  -348.09346357919520
    Total Energy =                       -348.0934635791952587
  @DF-RHF Final Energy:  -348.09347804767435
    Total Energy =                       -348.0934780476738979
  @DF-RHF Final Energy:  -348.09348589038291
    Total Energy =                       -348.0934858903830786
  Basis Set: 6-31G*
  Basis Set:
  @DF-RHF Final Energy:  -348.09349220718417
    Total Energy =                       -348.0934922071841697
  Basis Set: 6-31G*
  Basis Set:
  Basis Set: 6-31G*
  Basis Set:
  @DF-RHF Final Energy:  -348.09350532882615
    Total Energy =                       -348.0935053288260406
  Basis Set: 6-31G*
  Basis Set:
  Basis Set: 6-31G*
  Basis Set:
  @DF-RHF Final Energy:  -348.09350987950563
    Total Energy =                       -348.0935098795055183
  Basis Set: 6-31G*
  Basis Set:
  Charge       = 0
  Multiplicity = 1
  Basis Set: 6-31G*
  Basis Set:

    Orbital Energies (a.u.)
    -----------------------

    Doubly Occupied:

       1A    -20.547103     2A    -11.324048     3A    -11.231735
       4A    -11.228797     5A    -11.227890     6A    -11.219236
       7A    -11.218551     8A    -11.210415     9A     -1.392666
      10A     -1.093702    11A     -1.043145    12A     -0.997343
      13A     -0.936629    14A     -0.859183    15A     -0.786069
      16A     -0.734211    17A     -0.659229    18A     -0.639874
      19A     -0.627270    20A     -0.611064    21A     -0.601476
      22A     -0.586819    23A     -0.552618    24A     -0.548250
      25A     -0.532904    26A     -0.520471    27A     -0.503192
      28A     -0.484338    29A     -0.468050    30A     -0.462884
      31A     -0.454952    32A     -0.395981

  @DF-RHF Final Energy:  -348.09350944863860

   => Energetics <=

    Nuclear Repulsion Energy =            377.3657111893170963
    One-Electron Energy =               -1219.5182469305962059
    Two-Electron Energy =                 494.0590262926404534
    DFT Exchange-Correlation Energy =       0.0000000000000000
    Empirical Dispersion Energy =           0.0000000000000000
    PCM Polarization Energy =               0.0000000000000000
    EFP Energy =                            0.0000000000000000
    Total Energy =                       -348.0935094486385992
    Molecular point group: c1
  Basis Set: 6-31G*
  Basis Set:

  -Total Gradient:
     Atom            X                  Y                   Z
    ------   -----------------  -----------------  -----------------
       1       -0.000039878662     0.000014653996     0.000021043992
       2        0.000060791911    -0.000031246225    -0.000053210947
       3       -0.000758990835    -0.002703836006     0.002219229039
       4       -0.000044875402    -0.000026649887     0.000015714687
       5        0.000430774154     0.002401229395    -0.001619227389
       6        0.000550122150     0.001818909579    -0.001530760400
       7       -0.000034512847    -0.000013150044    -0.000003244984
       8       -0.000236831557    -0.001448537938     0.000927753263
       9        0.000034750719    -0.000024829773     0.000014114903
      10       -0.000014389559    -0.000005946674     0.000010910226
      11       -0.000007191407     0.000025763071     0.000030989437
      12       -0.000009672324    -0.000053209411    -0.000056227773
      13        0.000027769331     0.000021386898     0.000033074654
      14        0.000021252570    -0.000006334943     0.000006384373
      15       -0.000003155146     0.000022052057    -0.000002562796
      16        0.000000726284    -0.000012021519     0.000001512050
      17        0.000000764039     0.000009130687    -0.000008785584
      18        0.000005844422     0.000011715196    -0.000011186935
      19        0.000009727598    -0.000022126270     0.000003810802
      20        0.000004090009     0.000010230864     0.000011976672
      21        0.000008311753     0.000003222802     0.000002735205
      22       -0.000005427200     0.000009594143    -0.000014042493

  **** Optimization is complete! (in 11 steps) ****
    Final optimized geometry and variables:
    Molecular point group: c1

    Geometry (in Angstrom), charge = 0, multiplicity = 1:

    O           -1.346451748269     0.663787931127    -1.927058720749
    C           -1.720978318740     0.402361206442    -0.824337745640
    C           -1.220199024240    -0.829384831197    -0.092803540577
    C           -2.696308966015     1.295049394702    -0.087128350925
    C            0.031775023423    -0.495203039936     0.762986912481
    H           -0.969286479244    -1.558559656210    -0.853057039073
    H           -2.010004329646    -1.237189375052     0.529336189454
    C            1.317167404314    -1.078023856513     0.168631959864
    H            0.129983420337     0.580456282842     0.872661792531
    H           -0.102199228211    -0.887443388158     1.767164554675
    C            2.582044552687    -0.792269631894     0.985253770878
    H            1.443654263135    -0.700784870462    -0.843861747945
    H            1.195318366992    -2.155197810063     0.081127013226
    C            2.995768527975     0.680205144629     1.025076801642
    H            3.398536563364    -1.371183026795     0.561282235714
    H            2.447011479676    -1.159132282816     2.001036301513
    H            3.121649181515     1.076948710963     0.021624110616
    H            3.939171330564     0.800159624010     1.548605874497
    H            2.262698848325     1.296801586539     1.534848336172
    H           -3.654058486881     0.787993043721    -0.002787225078
    H           -2.831100075111     2.221589980153    -0.627741967521
    H           -2.353315998284     1.501786667509     0.921960387141

  Mulliken Charges: (a.u.)
   Center  Symbol    Alpha    Beta     Spin     Total
       1     O     4.26119  4.26119  0.00000 -0.52238
       2     C     2.74095  2.74095  0.00000  0.51810
       3     C     3.20361  3.20361  0.00000 -0.40721
       4     C     3.28917  3.28917  0.00000 -0.57834
       5     C     3.16348  3.16348  0.00000 -0.32697
       6     H     0.39843  0.39843  0.00000  0.20315
       7     H     0.41307  0.41307  0.00000  0.17386
       8     C     3.15530  3.15530  0.00000 -0.31059
       9     H     0.41443  0.41443  0.00000  0.17113
      10     H     0.41667  0.41667  0.00000  0.16666
      11     C     3.15459  3.15459  0.00000 -0.30918
      12     H     0.41194  0.41194  0.00000  0.17613
      13     H     0.42039  0.42039  0.00000  0.15922
      14     C     3.24173  3.24173  0.00000 -0.48347
      15     H     0.41879  0.41879  0.00000  0.16241
      16     H     0.42386  0.42386  0.00000  0.15228
      17     H     0.41845  0.41845  0.00000  0.16311
      18     H     0.41843  0.41843  0.00000  0.16313
      19     H     0.42186  0.42186  0.00000  0.15628
      20     H     0.40653  0.40653  0.00000  0.18694
      21     H     0.39710  0.39710  0.00000  0.20580
      22     H     0.41003  0.41003  0.00000  0.17994

   Total alpha = 32.00000, Total beta = 32.00000, Total charge =  0.00000
