                              Psi4 1.0.54 Driver

  ==> Input File <==

--------------------------------------------------------------------------
set {
	reference rhf
	basis cc-pvtz
}

set_num_threads( 4 )
memory 2 gb

molecule MOL {
0 1

O	 1.809176	 1.248709	 -0.338982
C	 1.704209	 0.119472	 -0.000093
C	 0.434899	 -0.536209	 0.480090
O	 2.715427	 -0.733672	 0.000025
C	 -0.767112	 0.397055	 0.502718
H	 0.254798	 -1.393649	 -0.160073
H	 0.636466	 -0.941537	 1.466255
C	 -2.033184	 -0.298789	 0.993514
H	 -0.928370	 0.796162	 -0.492261
H	 -0.546151	 1.248945	 1.135765
C	 -3.249791	 0.621770	 1.023640
H	 -2.247758	 -1.153586	 0.355916
H	 -1.863691	 -0.699502	 1.990479
C	 -4.515296	 -0.073759	 1.513688
H	 -3.420587	 1.021823	 0.028178
H	 -3.037196	 1.475072	 1.661480
H	 -4.773899	 -0.911993	 0.875157
H	 -5.358722	 0.606894	 1.522570
H	 -4.387619	 -0.454816	 2.521521
C	 4.020999	 -0.192556	 0.000019
H	 4.182809	 0.412891	 -0.879449
H	 4.692590	 -1.035653	 0.000152
H	 4.182726	 0.413087	 0.879368

	symmetry c1
}
set optking {
	frozen_dihedral = ("
		1 2 4 20
	")
}

ee,wfn = optimize('scf', return_wfn=True)
oeprop( wfn, 'DIPOLE', 'QUADRUPOLE', 'MULLIKEN_CHARGES')
f=open( 'psi4out.xyz', 'w' )
f.write( "23  " )
f.write( str(ee) + "\n" )
f.write( MOL.save_string_xyz() )
f.close()
--------------------------------------------------------------------------

    Molecular point group: c1
  Charge       = 0
  Multiplicity = 1
  Basis Set: CC-PVTZ
  Basis Set:
  @DF-RHF Final Energy:  -423.12870145847353
    Total Energy =                       -423.1287014584731878
    Molecular point group: c1
  Basis Set: CC-PVTZ
  Basis Set:
  Basis Set: CC-PVTZ
  Basis Set:
  @DF-RHF Final Energy:  -422.95738240390023
    Total Energy =                       -422.9573824038997145
  Basis Set: CC-PVTZ
  Basis Set:
  Basis Set: CC-PVTZ
  Basis Set:
  @DF-RHF Final Energy:  -423.08109401694293
    Total Energy =                       -423.0810940169430978
  Basis Set: CC-PVTZ
  Basis Set:
  Basis Set: CC-PVTZ
  Basis Set:
  @DF-RHF Final Energy:  -423.12554282136188
    Total Energy =                       -423.1255428213611367
  Basis Set: CC-PVTZ
  Basis Set:
  @DF-RHF Final Energy:  -422.03432224257301
    Total Energy =                       -422.0343222425727845
  @DF-RHF Final Energy:  -422.44231661320691
    Total Energy =                       -422.4423166132069127
  @DF-RHF Final Energy:  -422.69670852877266
    Total Energy =                       -422.6967085287726604
  @DF-RHF Final Energy:  -422.95225003519613
    Total Energy =                       -422.9522500351965846
  @DF-RHF Final Energy:  -423.10495713931579
    Total Energy =                       -423.1049571393156157
  @DF-RHF Final Energy:  -423.12538766080689
    Total Energy =                       -423.1253876608072915
  @DF-RHF Final Energy:  -423.10937216305831
    Total Energy =                       -423.1093721630580831
  @DF-RHF Final Energy:  -423.12717809740775
    Total Energy =                       -423.1271780974079775
  @DF-RHF Final Energy:  -423.08161047584957
    Total Energy =                       -423.0816104758497431
  @DF-RHF Final Energy:  -423.12767047448500
    Total Energy =                       -423.1276704744853987
  @DF-RHF Final Energy:  -423.12888518682001
    Total Energy =                       -423.1288851868204119
  @DF-RHF Final Energy:  -423.12897974392837
    Total Energy =                       -423.1289797439280846
  Basis Set: CC-PVTZ
  Basis Set:
  @DF-RHF Final Energy:  -423.12899169367273
    Total Energy =                       -423.1289916936723330
  Basis Set: CC-PVTZ
  Basis Set:
  Basis Set: CC-PVTZ
  Basis Set:
  @DF-RHF Final Energy:  -423.12899681122354
    Total Energy =                       -423.1289968112232600
  Basis Set: CC-PVTZ
  Basis Set:
  Basis Set: CC-PVTZ
  Basis Set:
  @DF-RHF Final Energy:  -423.12899831173689
    Total Energy =                       -423.1289983117368365
  Basis Set: CC-PVTZ
  Basis Set:
  Charge       = 0
  Multiplicity = 1
  Basis Set: CC-PVTZ
  Basis Set:

    Orbital Energies (a.u.)
    -----------------------

    Doubly Occupied:

       1A    -20.594406     2A    -20.535094     3A    -11.364896
       4A    -11.279440     5A    -11.233903     6A    -11.217265
       7A    -11.215918     8A    -11.214575     9A    -11.207819
      10A     -1.470777    11A     -1.366122    12A     -1.094554
      13A     -1.044578    14A     -0.987538    15A     -0.933337
      16A     -0.844667    17A     -0.795678    18A     -0.768978
      19A     -0.698808    20A     -0.685704    21A     -0.675432
      22A     -0.652667    23A     -0.610099    24A     -0.601590
      25A     -0.574222    26A     -0.563541    27A     -0.554971
      28A     -0.526919    29A     -0.520733    30A     -0.508280
      31A     -0.484896    32A     -0.470347    33A     -0.467290
      34A     -0.464294    35A     -0.458067    36A     -0.437575

  @DF-RHF Final Energy:  -423.12899836970053

   => Energetics <=

    Nuclear Repulsion Energy =            452.7668097028187049
    One-Electron Energy =               -1473.5416605977829931
    Two-Electron Energy =                 597.6458525252642175
    DFT Exchange-Correlation Energy =       0.0000000000000000
    Empirical Dispersion Energy =           0.0000000000000000
    PCM Polarization Energy =               0.0000000000000000
    EFP Energy =                            0.0000000000000000
    Total Energy =                       -423.1289983697000707
    Molecular point group: c1
  Basis Set: CC-PVTZ
  Basis Set:

  -Total Gradient:
     Atom            X                  Y                   Z
    ------   -----------------  -----------------  -----------------
       1       -0.005885118079     0.002306969337    -0.000787538633
       2        0.010626381706    -0.005107649489     0.001385454061
       3       -0.000082353065     0.000049301305     0.000055722200
       4       -0.008261333450     0.006037120462    -0.000908696152
       5       -0.000006756863    -0.000001141526     0.000000547191
       6        0.000000624507     0.000007778155     0.000020445902
       7       -0.000004689038     0.000009393781    -0.000007829826
       8       -0.000003470512    -0.000008093848     0.000001545880
       9        0.000006433616    -0.000007008534    -0.000003375468
      10        0.000001496268     0.000006308284    -0.000005417386
      11       -0.000005055222     0.000007003648     0.000002448934
      12       -0.000002155571    -0.000001494002     0.000007633360
      13       -0.000009320797     0.000006255810     0.000000361091
      14        0.000008556616    -0.000000989533    -0.000004449548
      15        0.000007502555    -0.000007901227    -0.000006809898
      16       -0.000000202176     0.000005488668    -0.000003346442
      17        0.000000367850    -0.000005647727     0.000005207254
      18        0.000005385228     0.000001485632    -0.000009581921
      19       -0.000009215223     0.000005013417     0.000000604274
      20        0.003606829753    -0.003314013883     0.000257963476
      21        0.000007459126    -0.000002064077    -0.000003689853
      22        0.000001363082     0.000004839698     0.000008657837
      23       -0.000002730310     0.000009045649    -0.000005856328

  **** Optimization is complete! (in 20 steps) ****
    Final optimized geometry and variables:
    Molecular point group: c1

    Geometry (in Angstrom), charge = 0, multiplicity = 1:

    O            0.989808535151     2.034399321295    -0.011114206711
    C            0.791620599054     1.244237448064    -0.868926384313
    C            0.133486223826    -0.098520919440    -0.684405497387
    O            1.083068593026     1.468156943477    -2.142689700578
    C           -0.386398630336    -0.340485216855     0.725279685269
    H           -0.661583963297    -0.172601429928    -1.418314606226
    H            0.865058957594    -0.850161916680    -0.965610719501
    C           -1.037785951957    -1.711884743584     0.876835866083
    H           -1.099513412873     0.435487686275     0.980778893456
    H            0.431308544030    -0.240618880007     1.429609786579
    C           -1.565428250777    -1.972474340694     2.284666565089
    H           -1.855506771766    -1.806051174582     0.165761064780
    H           -0.318863565344    -2.485462761402     0.616029643900
    C           -2.214971300478    -3.343735291157     2.436614563896
    H           -2.285127791384    -1.201666857755     2.545458937471
    H           -0.749360286408    -1.879126299679     2.995621745167
    H           -3.057669602678    -3.454963052875     1.762287123803
    H           -2.577960999714    -3.496177512093     3.446425119720
    H           -1.509569640785    -4.137976059705     2.215671790186
    C            2.023511675023     2.485179781705    -2.424122174749
    H            1.639793501504     3.454713192609    -2.144404673329
    H            2.195846030744     2.447054461022    -3.487464436461
    H            2.946481066277     2.303395452629    -1.892155608299

  Mulliken Charges: (a.u.)
   Center  Symbol    Alpha    Beta     Spin     Total
       1     O     4.19439  4.19439  0.00000 -0.38878
       2     C     2.80616  2.80616  0.00000  0.38768
       3     C     3.10161  3.10161  0.00000 -0.20322
       4     O     4.14851  4.14851  0.00000 -0.29702
       5     C     3.08399  3.08399  0.00000 -0.16798
       6     H     0.43844  0.43844  0.00000  0.12312
       7     H     0.44258  0.44258  0.00000  0.11483
       8     C     3.08910  3.08910  0.00000 -0.17819
       9     H     0.44703  0.44703  0.00000  0.10594
      10     H     0.44543  0.44543  0.00000  0.10914
      11     C     3.08400  3.08400  0.00000 -0.16801
      12     H     0.45562  0.45562  0.00000  0.08877
      13     H     0.45593  0.45593  0.00000  0.08814
      14     C     3.15040  3.15040  0.00000 -0.30080
      15     H     0.45325  0.45325  0.00000  0.09349
      16     H     0.45326  0.45326  0.00000  0.09349
      17     H     0.45528  0.45528  0.00000  0.08944
      18     H     0.44771  0.44771  0.00000  0.10457
      19     H     0.45536  0.45536  0.00000  0.08927
      20     C     3.03754  3.03754  0.00000 -0.07508
      21     H     0.45062  0.45062  0.00000  0.09876
      22     H     0.44526  0.44526  0.00000  0.10949
      23     H     0.45853  0.45853  0.00000  0.08294

   Total alpha = 36.00000, Total beta = 36.00000, Total charge =  0.00000

*** Psi4 exiting successfully. Buy a developer a beer!
