                              Psi4 1.0.54 Driver

  ==> Input File <==

--------------------------------------------------------------------------
set {
	reference rhf
	basis cc-pvtz
}

set_num_threads( 4 )
memory 2 gb

molecule MOL {
0 1

H	 -3.313795	 -0.343538	 -0.578970
O	 -2.658848	 -0.704215	 -0.000460
C	 -1.605397	 0.107680	 0.001145
C	 -0.310616	 -0.658853	 0.000791
O	 -1.718351	 1.284629	 -0.000627
C	 0.926581	 0.227233	 0.000178
H	 -0.327628	 -1.313681	 -0.864448
H	 -0.327041	 -1.313334	 0.866298
C	 2.220156	 -0.582071	 -0.000088
H	 0.899945	 0.878221	 -0.866390
H	 0.900542	 0.878581	 0.866486
C	 3.466689	 0.296012	 -0.000457
H	 2.239073	 -1.234095	 -0.869382
H	 2.239505	 -1.233985	 0.869270
H	 3.493549	 0.935857	 -0.875887
H	 4.368821	 -0.304526	 -0.001199
H	 3.494559	 0.935166	 0.875458

	symmetry c1
}
set optking {
	frozen_dihedral = ("
		1 2 3 5
	")
}

ee,wfn = optimize('scf', return_wfn=True)
oeprop( wfn, 'DIPOLE', 'QUADRUPOLE', 'MULLIKEN_CHARGES')
f=open( 'psi4out.xyz', 'w' )
f.write( "17  " )
f.write( str(ee) + "\n" )
f.write( MOL.save_string_xyz() )
f.close()
--------------------------------------------------------------------------

    Molecular point group: c1
  Charge       = 0
  Multiplicity = 1
  Basis Set: CC-PVTZ
  Basis Set:
  @DF-RHF Final Energy:  -345.04058893902800
    Total Energy =                       -345.0405889390280549
    Molecular point group: c1
  Basis Set: CC-PVTZ
  Basis Set:
  Basis Set: CC-PVTZ
  Basis Set:
  @DF-RHF Final Energy:  -345.03783902769436
    Total Energy =                       -345.0378390276940763
  Basis Set: CC-PVTZ
  Basis Set:
  Basis Set: CC-PVTZ
  Basis Set:
  @DF-RHF Final Energy:  -345.04109060956529
    Total Energy =                       -345.0410906095648329
  Basis Set: CC-PVTZ
  Basis Set:
  Basis Set: CC-PVTZ
  Basis Set:
  @DF-RHF Final Energy:  -345.04138026578880
    Total Energy =                       -345.0413802657889164
  Basis Set: CC-PVTZ
  Basis Set:
  @DF-RHF Final Energy:  -345.04139416943315
    Total Energy =                       -345.0413941694333744
  Basis Set: CC-PVTZ
  Basis Set:
  @DF-RHF Final Energy:  -345.04139895375738
    Total Energy =                       -345.0413989537576072
  Basis Set: CC-PVTZ
  Basis Set:
  Basis Set: CC-PVTZ
  Basis Set:
  @DF-RHF Final Energy:  -345.04139881231799
    Total Energy =                       -345.0413988123176523
  Basis Set: CC-PVTZ
  Basis Set:
  Basis Set: CC-PVTZ
  Basis Set:
  @DF-RHF Final Energy:  -345.04139851914226
    Total Energy =                       -345.0413985191424899
  Basis Set: CC-PVTZ
  Basis Set:
  Charge       = 0
  Multiplicity = 1
  Basis Set: CC-PVTZ
  Basis Set:

    Orbital Energies (a.u.)
    -----------------------

    Doubly Occupied:

       1A    -20.597448     2A    -20.544268     3A    -11.373927
       4A    -11.239091     5A    -11.221297     6A    -11.220673
       7A    -11.210794     8A     -1.471366     9A     -1.370277
      10A     -1.092600    11A     -1.019148    12A     -0.913430
      13A     -0.824667    14A     -0.791928    15A     -0.705890
      16A     -0.684646    17A     -0.668809    18A     -0.635807
      19A     -0.592405    20A     -0.586631    21A     -0.560884
      22A     -0.538690    23A     -0.510626    24A     -0.491163
      25A     -0.480821    26A     -0.476685    27A     -0.472854
      28A     -0.445867

  @DF-RHF Final Energy:  -345.04139893983478

   => Energetics <=

    Nuclear Repulsion Energy =            304.4939416871456501
    One-Electron Energy =               -1073.5852945093226936
    Two-Electron Energy =                 424.0499538823421517
    DFT Exchange-Correlation Energy =       0.0000000000000000
    Empirical Dispersion Energy =           0.0000000000000000
    PCM Polarization Energy =               0.0000000000000000
    EFP Energy =                            0.0000000000000000
    Total Energy =                       -345.0413989398348349
    Molecular point group: c1
  Basis Set: CC-PVTZ
  Basis Set:

  -Total Gradient:
     Atom            X                  Y                   Z
    ------   -----------------  -----------------  -----------------
       1        0.003584245236    -0.006102646505    -0.008220179076
       2       -0.004073970972     0.007783868050     0.014766764964
       3       -0.000178483428    -0.002029948962    -0.016351211669
       4       -0.000183925785     0.000130936860     0.000016757460
       5        0.000883059095     0.000215785138     0.009738860714
       6        0.000055998979    -0.000073050783     0.000006838059
       7       -0.000049561548    -0.000040989797    -0.000045317121
       8       -0.000019981316     0.000041189762     0.000072799484
       9       -0.000019428135     0.000034839311     0.000012447637
      10        0.000005052180     0.000032694611     0.000009821321
      11       -0.000014326209    -0.000007099257    -0.000000708359
      12        0.000001101262    -0.000002660327    -0.000018396702
      13       -0.000015582837    -0.000002240898    -0.000009535617
      14       -0.000003800607     0.000000311882     0.000012331118
      15        0.000000684796     0.000010925855    -0.000011379883
      16        0.000026942428    -0.000002155297    -0.000001227765
      17        0.000001976854     0.000010240360     0.000021335435

  **** Optimization is complete! (in 9 steps) ****
    Final optimized geometry and variables:
    Molecular point group: c1

    Geometry (in Angstrom), charge = 0, multiplicity = 1:

    H           -3.383839501468    -0.384806662142    -0.450970320966
    O           -2.665945747331    -0.699576154333     0.074874691483
    C           -1.606042646352     0.112211305280    -0.060576713924
    C           -0.311619295094    -0.652524256899    -0.025625228207
    O           -1.713239266502     1.285360044420    -0.111681823184
    C            0.927441848057     0.229500607129     0.015692874836
    H           -0.304828994366    -1.302237823025    -0.895962518146
    H           -0.357597273627    -1.314698373297     0.832872135365
    C            2.219058570000    -0.582325085748     0.043794199217
    H            0.926240514775     0.889240215906    -0.844559987978
    H            0.878775893116     0.872513105768     0.887562983385
    C            3.466798014209     0.293124427815     0.084825313335
    H            2.260288197318    -1.226778586712    -0.830434840148
    H            2.213540554103    -1.241768701618     0.907605484035
    H            3.518439527149     0.940606591306    -0.783898450715
    H            4.367630634539    -0.309149141737     0.103229934601
    H            3.472055257154     0.924515974812     0.966800354528

  Mulliken Charges: (a.u.)
   Center  Symbol    Alpha    Beta     Spin     Total
       1     H     0.38091  0.38091  0.00000  0.23817
       2     O     4.16902  4.16902  0.00000 -0.33805
       3     C     2.80489  2.80489  0.00000  0.39022
       4     C     3.11060  3.11060  0.00000 -0.22121
       5     O     4.17992  4.17992  0.00000 -0.35983
       6     C     3.08327  3.08327  0.00000 -0.16655
       7     H     0.44187  0.44187  0.00000  0.11625
       8     H     0.43725  0.43725  0.00000  0.12550
       9     C     3.08569  3.08569  0.00000 -0.17138
      10     H     0.44607  0.44607  0.00000  0.10786
      11     H     0.44630  0.44630  0.00000  0.10740
      12     C     3.14918  3.14918  0.00000 -0.29837
      13     H     0.45515  0.45515  0.00000  0.08969
      14     H     0.45452  0.45452  0.00000  0.09096
      15     H     0.45380  0.45380  0.00000  0.09241
      16     H     0.44801  0.44801  0.00000  0.10398
      17     H     0.45353  0.45353  0.00000  0.09293

   Total alpha = 28.00000, Total beta = 28.00000, Total charge =  0.00000

*** Psi4 exiting successfully. Buy a developer a beer!
