  ==> Input File <==

--------------------------------------------------------------------------
set {
	reference rhf
	basis 6-31G*
}

set_num_threads( 1 )
memory 2 gb

molecule MOL {
0 1

O	 2.863200	 1.355924	 -0.057898
C	 2.843464	 0.164689	 -0.000222
C	 1.546494	 -0.624492	 -0.000609
C	 4.122944	 -0.642775	 0.077801
C	 0.291004	 0.242674	 0.000989
H	 1.557904	 -1.283758	 -0.867573
H	 1.558622	 -1.285963	 0.864672
C	 -0.994322	 -0.586602	 0.000262
H	 0.309117	 0.896430	 -0.865270
H	 0.309661	 0.894078	 0.869017
C	 -2.259874	 0.272531	 0.000494
H	 -1.004862	 -1.240012	 -0.870939
H	 -1.005220	 -1.241071	 0.870675
C	 -3.549786	 -0.549746	 -0.000374
H	 -2.250389	 0.926680	 -0.869574
H	 -2.250838	 0.925513	 0.871430
C	 -4.809590	 0.315458	 -0.000369
H	 -3.560515	 -1.202009	 -0.871156
H	 -3.561123	 -1.202955	 0.869711
H	 -4.844746	 0.956611	 -0.876632
H	 -5.706986	 -0.295590	 -0.001609
H	 -4.845960	 0.954827	 0.877144
H	 4.189862	 -1.328926	 -0.761447
H	 4.975201	 0.022369	 0.069082
H	 4.138854	 -1.240394	 0.984572

	symmetry c1
}
set optking {
	frozen_dihedral = ("
		9 5 8 12,
		15 11 8 12,
		15 11 14 18,
		9 5 3 6
	")
}

ee = energy('scf')
oeprop('DIPOLE', 'QUADRUPOLE', 'MULLIKEN_CHARGES')
f=open( 'psi4out.xyz', 'w' )
f.write( "25  " )
f.write( str(ee) + "\n" )
f.write( MOL.save_string_xyz() )
f.close()
--------------------------------------------------------------------------

    Molecular point group: c1

    Geometry (in Angstrom), charge = 0, multiplicity = 1:

       Center              X                  Y                   Z               Mass
    ------------   -----------------  -----------------  -----------------  -----------------
           O          2.863235932622     1.355865934737    -0.060270610643    15.994914619560
           C          2.843499932622     0.164630934737    -0.002594610643    12.000000000000
           C          1.546529932622    -0.624550065263    -0.002981610643    12.000000000000
           C          4.122979932622    -0.642833065263     0.075428389357    12.000000000000
           C          0.291039932622     0.242615934737    -0.001383610643    12.000000000000
           H          1.557939932622    -1.283816065263    -0.869945610643     1.007825032070
           H          1.558657932622    -1.286021065263     0.862299389357     1.007825032070
           C         -0.994286067378    -0.586660065263    -0.002110610643    12.000000000000
           H          0.309152932622     0.896371934737    -0.867642610643     1.007825032070
           H          0.309696932622     0.894019934737     0.866644389357     1.007825032070
           C         -2.259838067378     0.272472934737    -0.001878610643    12.000000000000
           H         -1.004826067378    -1.240070065263    -0.873311610643     1.007825032070
           H         -1.005184067378    -1.241129065263     0.868302389357     1.007825032070
           C         -3.549750067378    -0.549804065263    -0.002746610643    12.000000000000
           H         -2.250353067378     0.926621934737    -0.871946610643     1.007825032070
           H         -2.250802067378     0.925454934737     0.869057389357     1.007825032070
           C         -4.809554067378     0.315399934737    -0.002741610643    12.000000000000
           H         -3.560479067378    -1.202067065263    -0.873528610643     1.007825032070
           H         -3.561087067378    -1.203013065263     0.867338389357     1.007825032070
           H         -4.844710067378     0.956552934737    -0.879004610643     1.007825032070
           H         -5.706950067378    -0.295648065263    -0.003981610643     1.007825032070
           H         -4.845924067378     0.954768934737     0.874771389357     1.007825032070
           H          4.189897932622    -1.328984065263    -0.763819610643     1.007825032070
           H          4.975236932622     0.022310934737     0.066709389357     1.007825032070
           H          4.138889932622    -1.240452065263     0.982199389357     1.007825032070

  Charge       = 0
  Multiplicity = 1
  Basis Set: 6-31G*
  Basis Set:

    Orbital Energies (a.u.)
    -----------------------

    Doubly Occupied:

       1A    -20.550447     2A    -11.326323     3A    -11.231877
       4A    -11.228348     5A    -11.217126     6A    -11.216533
       7A    -11.215373     8A    -11.213532     9A    -11.208320
      10A     -1.395764    11A     -1.093641    12A     -1.056338
      13A     -1.014520    14A     -0.969263    15A     -0.890725
      16A     -0.814102    17A     -0.790831    18A     -0.729930
      19A     -0.661592    20A     -0.651919    21A     -0.631928
      22A     -0.624050    23A     -0.595964    24A     -0.584300
      25A     -0.566350    26A     -0.559944    27A     -0.540228
      28A     -0.526229    29A     -0.512701    30A     -0.489806
      31A     -0.487871    32A     -0.473209    33A     -0.463775
      34A     -0.462350    35A     -0.450795    36A     -0.399398

  @DF-RHF Final Energy:  -387.13652489914517

   => Energetics <=

    Nuclear Repulsion Energy =            438.3311101726525862
    One-Electron Energy =               -1393.2444453259608963
    Two-Electron Energy =                 567.7768102541632516
    DFT Exchange-Correlation Energy =       0.0000000000000000
    Empirical Dispersion Energy =           0.0000000000000000
    PCM Polarization Energy =               0.0000000000000000
    EFP Energy =                            0.0000000000000000
    Total Energy =                       -387.1365248991450017

  Mulliken Charges: (a.u.)
   Center  Symbol    Alpha    Beta     Spin     Total
       1     O     4.26118  4.26118  0.00000 -0.52236
       2     C     2.73568  2.73568  0.00000  0.52865
       3     C     3.21086  3.21086  0.00000 -0.42172
       4     C     3.28666  3.28666  0.00000 -0.57332
       5     C     3.14807  3.14807  0.00000 -0.29615
       6     H     0.40921  0.40921  0.00000  0.18159
       7     H     0.41077  0.41077  0.00000  0.17845
       8     C     3.15390  3.15390  0.00000 -0.30781
       9     H     0.41134  0.41134  0.00000  0.17731
      10     H     0.41294  0.41294  0.00000  0.17413
      11     C     3.15073  3.15073  0.00000 -0.30146
      12     H     0.42480  0.42480  0.00000  0.15039
      13     H     0.42493  0.42493  0.00000  0.15015
      14     C     3.15150  3.15150  0.00000 -0.30300
      15     H     0.42235  0.42235  0.00000  0.15529
      16     H     0.42251  0.42251  0.00000  0.15498
      17     C     3.23934  3.23934  0.00000 -0.47867
      18     H     0.42351  0.42351  0.00000  0.15297
      19     H     0.42356  0.42356  0.00000  0.15288
      20     H     0.42135  0.42135  0.00000  0.15731
      21     H     0.41953  0.41953  0.00000  0.16094
      22     H     0.42139  0.42139  0.00000  0.15722
      23     H     0.40876  0.40876  0.00000  0.18249
      24     H     0.39647  0.39647  0.00000  0.20707
      25     H     0.40866  0.40866  0.00000  0.18267

   Total alpha = 36.00000, Total beta = 36.00000, Total charge =  0.00000
