  ==> Input File <==

--------------------------------------------------------------------------
set {
	reference rhf
	basis 6-31G*
}

set_num_threads( 4 )
memory 2 gb

molecule MOL {
0 1

O	 -1.524494	 -1.630443	 1.666826
C	 -0.655295	 -1.413092	 0.885164
C	 0.625896	 -2.203028	 0.763444
O	 -0.698257	 -0.426125	 0.001050
C	 0.718381	 -3.349176	 1.762823
H	 1.450016	 -1.506188	 0.883805
H	 0.689475	 -2.563799	 -0.258841
H	 0.671211	 -2.983095	 2.781216
H	 1.654045	 -3.882855	 1.634231
H	 -0.096058	 -4.050495	 1.628047
C	 -1.853104	 0.406779	 0.000512
C	 -3.066105	 -0.499277	 -0.000959
H	 -1.828410	 1.043074	 -0.873618
H	 -1.829857	 1.042383	 0.875188
H	 -3.071820	 -1.133106	 -0.880383
H	 -3.972708	 0.097145	 -0.001528
H	 -3.073405	 -1.133813	 0.877999

	symmetry c1
}
set optking {
	frozen_dihedral = ("
		2 4 11 13
	")
}

ee = optimize('scf')
oeprop('DIPOLE', 'QUADRUPOLE', 'MULLIKEN_CHARGES')
f=open( 'psi4out.xyz', 'w' )
f.write( "17  " )
f.write( str(ee) + "\n" )
f.write( MOL.save_string_xyz() )
f.close()
--------------------------------------------------------------------------

    Molecular point group: c1
  Charge       = 0
  Multiplicity = 1
  Basis Set: 6-31G*
  Basis Set:
  @DF-RHF Final Energy:  -344.89004049531036
    Total Energy =                       -344.8900404953104726
    Molecular point group: c1
  Basis Set: 6-31G*
  Basis Set:
  Basis Set: 6-31G*
  Basis Set:
  @DF-RHF Final Energy:  -344.90433759921297
    Total Energy =                       -344.9043375992130223
  Basis Set: 6-31G*
  Basis Set:
  Basis Set: 6-31G*
  Basis Set:
  @DF-RHF Final Energy:  -344.90663603691837
    Total Energy =                       -344.9066360369182576
  Basis Set: 6-31G*
  Basis Set:
  Basis Set: 6-31G*
  Basis Set:
  @DF-RHF Final Energy:  -344.90320011655092
    Total Energy =                       -344.9032001165510906
  Basis Set: 6-31G*
  Basis Set:
  @DF-RHF Final Energy:  -344.90707863875446
    Total Energy =                       -344.9070786387548537
  Basis Set: 6-31G*
  Basis Set:
  @DF-RHF Final Energy:  -344.90717049548994
    Total Energy =                       -344.9071704954900497
  Basis Set: 6-31G*
  Basis Set:
  Basis Set: 6-31G*
  Basis Set:
  @DF-RHF Final Energy:  -344.90718140640257
    Total Energy =                       -344.9071814064028558
  Basis Set: 6-31G*
  Basis Set:
  Basis Set: 6-31G*
  Basis Set:
  @DF-RHF Final Energy:  -344.90718304306961
    Total Energy =                       -344.9071830430698355
  Basis Set: 6-31G*
  Basis Set:
  Charge       = 0
  Multiplicity = 1
  Basis Set: 6-31G*
  Basis Set:

    Orbital Energies (a.u.)
    -----------------------

    Doubly Occupied:

       1A    -20.599635     2A    -20.543711     3A    -11.372200
       4A    -11.288348     5A    -11.236625     6A    -11.215688
       7A    -11.215200     8A     -1.464662     9A     -1.362093
      10A     -1.068207    11A     -1.027698    12A     -0.917627
      13A     -0.856223    14A     -0.749437    15A     -0.701074
      16A     -0.679308    17A     -0.662232    18A     -0.627156
      19A     -0.608913    20A     -0.566601    21A     -0.545579
      22A     -0.528515    23A     -0.520969    24A     -0.517178
      25A     -0.494661    26A     -0.491401    27A     -0.450418
      28A     -0.431380

  @DF-RHF Final Energy:  -344.90718286109654

   => Energetics <=

    Nuclear Repulsion Energy =            319.5232895640381230
    One-Electron Energy =               -1103.3754702478875060
    Two-Electron Energy =                 438.9449978227526685
    DFT Exchange-Correlation Energy =       0.0000000000000000
    Empirical Dispersion Energy =           0.0000000000000000
    PCM Polarization Energy =               0.0000000000000000
    EFP Energy =                            0.0000000000000000
    Total Energy =                       -344.9071828610967145
    Molecular point group: c1
  Basis Set: 6-31G*
  Basis Set:

  -Total Gradient:
     Atom            X                  Y                   Z
    ------   -----------------  -----------------  -----------------
       1        0.000043650730    -0.000006935956     0.000061433695
       2       -0.002300937626    -0.003553570926    -0.004020618924
       3       -0.000015151470    -0.000034588203    -0.000022039046
       4        0.002881398888     0.004783120006     0.005196734871
       5        0.000022382026     0.000003729113     0.000003691282
       6        0.000008995845     0.000005841650     0.000014262321
       7        0.000013012858     0.000012484690     0.000015146907
       8       -0.000003543124    -0.000001326027    -0.000007784941
       9        0.000001163583    -0.000010263311     0.000003556157
      10       -0.000001675738    -0.000001608902    -0.000001832903
      11        0.001886137185     0.003205525449     0.002123058343
      12       -0.000075048634    -0.000015012017     0.000098011044
      13       -0.002521916021    -0.004427827798    -0.003419437832
      14        0.000082752590     0.000010191880     0.000000307902
      15        0.000010183220     0.000004425581    -0.000017228351
      16       -0.000006050014     0.000014766016     0.000000908644
      17       -0.000025354301     0.000011048756    -0.000028169173

  **** Optimization is complete! (in 9 steps) ****
    Final optimized geometry and variables:
    Molecular point group: c1

    Geometry (in Angstrom), charge = 0, multiplicity = 1:

    O           -0.483434487088    -0.347373733330     1.081843825968
    C            0.304497422726    -0.126177403497     0.219278007406
    C            1.557721802079    -0.931187808812    -0.034090659533
    O            0.210777481411     0.882110603084    -0.635414048833
    C            1.756473955423    -2.060660074986     0.968748286318
    H            2.395865840903    -0.241207241808    -0.024934196356
    H            1.498213822938    -1.311487138346    -1.049731105938
    H            1.833517231846    -1.676233614487     1.978603399818
    H            2.665434796589    -2.607311540410     0.741018889448
    H            0.925221442452    -2.754651901439     0.944261911326
    C           -0.972587006676     1.676697316077    -0.705341139991
    C           -2.259836565203     0.887099844244    -0.898641335413
    H           -0.814299737388     2.272944083861    -1.591969991988
    H           -1.022074212080     2.314453907858     0.166683738224
    H           -2.156824199958     0.198473264019    -1.731556680074
    H           -3.055936845220     1.584995752480    -1.141392911540
    H           -2.541099650016     0.332461615844    -0.017516944194

  Mulliken Charges: (a.u.)
   Center  Symbol    Alpha    Beta     Spin     Total
       1     O     4.28719  4.28719  0.00000 -0.57437
       2     C     2.60294  2.60294  0.00000  0.79411
       3     C     3.20491  3.20491  0.00000 -0.40982
       4     O     4.31793  4.31793  0.00000 -0.63586
       5     C     3.23874  3.23874  0.00000 -0.47748
       6     H     0.40021  0.40021  0.00000  0.19959
       7     H     0.40176  0.40176  0.00000  0.19647
       8     H     0.41037  0.41037  0.00000  0.17926
       9     H     0.41840  0.41840  0.00000  0.16320
      10     H     0.41009  0.41009  0.00000  0.17982
      11     C     2.99651  2.99651  0.00000  0.00697
      12     C     3.26479  3.26479  0.00000 -0.52959
      13     H     0.40971  0.40971  0.00000  0.18059
      14     H     0.41070  0.41070  0.00000  0.17860
      15     H     0.41669  0.41669  0.00000  0.16661
      16     H     0.41821  0.41821  0.00000  0.16358
      17     H     0.39084  0.39084  0.00000  0.21832

   Total alpha = 28.00000, Total beta = 28.00000, Total charge =  0.00000
