  ==> Input File <==

--------------------------------------------------------------------------
set {
	reference rhf
	basis 6-31G*
}

set_num_threads( 4 )
memory 2 gb

molecule MOL {
0 1

H	 1.921989	 -0.566793	 0.570288
C	 1.076478	 -0.623739	 -0.101406
O	 0.000000	 0.000000	 0.521119
H	 1.336186	 -0.131078	 -1.037101
H	 0.863591	 -1.670713	 -0.311681
C	 -1.165642	 0.000000	 -0.238270
H	 -1.228672	 0.883184	 -0.872070
H	 -2.003012	 0.000000	 0.445920
H	 -1.228672	 -0.883184	 -0.872070

	symmetry c1
}
set optking {
	frozen_dihedral = ("
		2 3 6 7
	")
}

ee = optimize('scf')
oeprop('DIPOLE', 'QUADRUPOLE', 'MULLIKEN_CHARGES')
f=open( 'psi4out.xyz', 'w' )
f.write( "9  " )
f.write( str(ee) + "\n" )
f.write( MOL.save_string_xyz() )
f.close()
--------------------------------------------------------------------------

    Molecular point group: c1
  Charge       = 0
  Multiplicity = 1
  Basis Set: 6-31G*
  Basis Set:
  @DF-RHF Final Energy:  -154.06254462795590
    Total Energy =                       -154.0625446279559014
    Molecular point group: c1
  Basis Set: 6-31G*
  Basis Set:
  Basis Set: 6-31G*
  Basis Set:
  @DF-RHF Final Energy:  -154.06265523732125
    Total Energy =                       -154.0626552373213372
  Basis Set: 6-31G*
  Basis Set:
  Basis Set: 6-31G*
  Basis Set:
  @DF-RHF Final Energy:  -154.06267552902113
    Total Energy =                       -154.0626755290210212
  Basis Set: 6-31G*
  Basis Set:
  Charge       = 0
  Multiplicity = 1
  Basis Set: 6-31G*
  Basis Set:

    Orbital Energies (a.u.)
    -----------------------

    Doubly Occupied:

       1A    -20.554414     2A    -11.265447     3A    -11.264839
       4A     -1.376732     5A     -0.975049     6A     -0.872707
       7A     -0.659739     8A     -0.653028     9A     -0.643973
      10A     -0.555610    11A     -0.528566    12A     -0.473859
      13A     -0.414509

  @DF-RHF Final Energy:  -154.06267572127513

   => Energetics <=

    Nuclear Repulsion Energy =             84.6091288209420043
    One-Electron Energy =                -376.8666629434735569
    Two-Electron Energy =                 138.1948584012564822
    DFT Exchange-Correlation Energy =       0.0000000000000000
    Empirical Dispersion Energy =           0.0000000000000000
    PCM Polarization Energy =               0.0000000000000000
    EFP Energy =                            0.0000000000000000
    Total Energy =                       -154.0626757212750420
    Molecular point group: c1
  Basis Set: 6-31G*
  Basis Set:

  -Total Gradient:
     Atom            X                  Y                   Z
    ------   -----------------  -----------------  -----------------
       1        0.000028842631    -0.000013263587    -0.000010660864
       2       -0.000616379149    -0.002252509148     0.001087942064
       3        0.000500363600     0.003630847525    -0.000889244900
       4       -0.000022439463    -0.000002086712     0.000008674173
       5       -0.000025936592     0.000020422579    -0.000000003307
       6        0.001659945811    -0.002946917853    -0.002567148907
       7       -0.001507148230     0.001561498664     0.002373373147
       8       -0.000021805495     0.000003235646    -0.000004457371
       9        0.000004556888    -0.000001227114     0.000001525963

  **** Optimization is complete! (in 4 steps) ****
    Final optimized geometry and variables:
    Molecular point group: c1

    Geometry (in Angstrom), charge = 0, multiplicity = 1:

    H            1.952845291269    -0.348638915999     0.536513724482
    C            1.116109176668    -0.406079925410    -0.146162245274
    O            0.030322196153     0.210286554528     0.468887084667
    H            1.389416528329     0.089673147780    -1.076348581966
    H            0.908695166575    -1.452469662972    -0.361543737892
    C           -1.142986369167     0.213892998588    -0.284324387533
    H           -1.204546889325     1.101239225095    -0.910363619877
    H           -1.978518859337     0.233118368044     0.404098831727
    H           -1.229104368152    -0.671985570591    -0.908204325660

  Mulliken Charges: (a.u.)
   Center  Symbol    Alpha    Beta     Spin     Total
       1     H     0.41230  0.41230  0.00000  0.17539
       2     C     3.07961  3.07961  0.00000 -0.15923
       3     O     4.29759  4.29759  0.00000 -0.59519
       4     H     0.43050  0.43050  0.00000  0.13899
       5     H     0.42972  0.42972  0.00000  0.14056
       6     C     3.07885  3.07885  0.00000 -0.15770
       7     H     0.42625  0.42625  0.00000  0.14750
       8     H     0.41435  0.41435  0.00000  0.17129
       9     H     0.43081  0.43081  0.00000  0.13838

   Total alpha = 13.00000, Total beta = 13.00000, Total charge = -0.00000
