  ==> Input File <==

--------------------------------------------------------------------------
set {
	reference rhf
	basis 6-31G*
}

set_num_threads( 1 )
memory 2 gb

molecule MOL {
0 1

H	 -1.836216	 1.387520	 -0.000064
C	 -1.301823	 0.443321	 -0.000031
O	 -0.003969	 0.658512	 0.000451
O	 -1.829879	 -0.616434	 -0.000857
C	 0.822590	 -0.317601	 0.633847
C	 2.256556	 0.148345	 0.503633
H	 0.665238	 -1.272969	 0.152359
H	 0.522517	 -0.410679	 1.668538
H	 2.537070	 0.243604	 -0.539090
H	 2.920790	 -0.569122	 0.974025
H	 2.393824	 1.110074	 0.984384

	symmetry c1
}
set optking {
	frozen_dihedral = ("
		7 5 3 2
	")
}

ee = energy('scf')
oeprop('DIPOLE', 'QUADRUPOLE', 'MULLIKEN_CHARGES')
f=open( 'psi4out.xyz', 'w' )
f.write( "11  " )
f.write( str(ee) + "\n" )
f.write( MOL.save_string_xyz() )
f.close()
--------------------------------------------------------------------------

    Molecular point group: c1

    Geometry (in Angstrom), charge = 0, multiplicity = 1:

       Center              X                  Y                   Z               Mass
    ------------   -----------------  -----------------  -----------------  -----------------
           H         -1.826156435821     1.327359846947    -0.228442388252     1.007825032070
           C         -1.291763435821     0.383160846947    -0.228409388252    12.000000000000
           O          0.006090564179     0.598351846947    -0.227927388252    15.994914619560
           O         -1.819819435821    -0.676594153053    -0.229235388252    15.994914619560
           C          0.832649564179    -0.377761153053     0.405468611748    12.000000000000
           C          2.266615564179     0.088184846947     0.275254611748    12.000000000000
           H          0.675297564179    -1.333129153053    -0.076019388252     1.007825032070
           H          0.532576564179    -0.470839153053     1.440159611748     1.007825032070
           H          2.547129564179     0.183443846947    -0.767468388252     1.007825032070
           H          2.930849564179    -0.629282153053     0.745646611748     1.007825032070
           H          2.403883564179     1.049913846947     0.756005611748     1.007825032070

  Charge       = 0
  Multiplicity = 1
  Basis Set: 6-31G*
  Basis Set:

    Orbital Energies (a.u.)
    -----------------------

    Doubly Occupied:

       1A    -20.607737     2A    -20.559277     3A    -11.378606
       4A    -11.293915     5A    -11.227415     6A     -1.474894
       7A     -1.374484     8A     -1.052728     9A     -0.900922
      10A     -0.809354    11A     -0.739380    12A     -0.687465
      13A     -0.674173    14A     -0.605687    15A     -0.566077
      16A     -0.554493    17A     -0.523568    18A     -0.511912
      19A     -0.462558    20A     -0.450452

  @DF-RHF Final Energy:  -266.82350900529207

   => Energetics <=

    Nuclear Repulsion Energy =            178.9969518317148811
    One-Electron Energy =                -718.7306788704603377
    Two-Electron Energy =                 272.9102180334537024
    DFT Exchange-Correlation Energy =       0.0000000000000000
    Empirical Dispersion Energy =           0.0000000000000000
    PCM Polarization Energy =               0.0000000000000000
    EFP Energy =                            0.0000000000000000
    Total Energy =                       -266.8235090052917258

  Mulliken Charges: (a.u.)
   Center  Symbol    Alpha    Beta     Spin     Total
       1     H     0.41400  0.41400  0.00000  0.17200
       2     C     2.72679  2.72679  0.00000  0.54642
       3     O     4.29331  4.29331  0.00000 -0.58661
       4     O     4.25778  4.25778  0.00000 -0.51555
       5     C     3.00713  3.00713  0.00000 -0.01426
       6     C     3.24928  3.24928  0.00000 -0.49857
       7     H     0.40328  0.40328  0.00000  0.19343
       8     H     0.41356  0.41356  0.00000  0.17288
       9     H     0.40875  0.40875  0.00000  0.18250
      10     H     0.41522  0.41522  0.00000  0.16955
      11     H     0.41090  0.41090  0.00000  0.17820

   Total alpha = 20.00000, Total beta = 20.00000, Total charge =  0.00000
