                              Psi4 1.0.54 Driver

  ==> Input File <==

--------------------------------------------------------------------------
set {
	reference rhf
	basis cc-pvtz
}

set_num_threads( 4 )
memory 2 gb

molecule MOL {
0 1

O	 -2.817697	 1.304178	 0.001046
C	 -2.664672	 0.129869	 0.003507
C	 -3.797908	 -0.860100	 -0.001145
O	 -1.481217	 -0.452708	 0.001092
H	 -4.408836	 -0.679689	 -0.875387
H	 -3.443486	 -1.878443	 -0.002770
H	 -4.412123	 -0.683688	 0.871605
C	 -0.332055	 0.384012	 -0.000250
C	 0.892252	 -0.506059	 -0.000295
H	 -0.360822	 1.020205	 -0.874146
H	 -0.359817	 1.021310	 0.872861
C	 2.188199	 0.299473	 -0.001416
H	 0.857046	 -1.152781	 -0.871031
H	 0.857910	 -1.151798	 0.871202
C	 3.437151	 -0.577593	 -0.000991
H	 2.209565	 0.950707	 -0.871712
H	 2.210062	 0.952234	 0.867721
C	 4.398253	 -0.248294	 1.136046
H	 3.951775	 -0.468093	 -0.951374
H	 3.141917	 -1.620806	 0.067051
H	 4.738616	 0.779972	 1.075479
H	 5.272703	 -0.887862	 1.107811
H	 3.922368	 -0.381363	 2.101799

	symmetry c1
}
set optking {
	frozen_dihedral = ("
		19 15 12 16
	")
}

ee,wfn = optimize('scf', return_wfn=True)
oeprop( wfn, 'DIPOLE', 'QUADRUPOLE', 'MULLIKEN_CHARGES')
f=open( 'psi4out.xyz', 'w' )
f.write( "23  " )
f.write( str(ee) + "\n" )
f.write( MOL.save_string_xyz() )
f.close()
--------------------------------------------------------------------------

    Molecular point group: c1
  Charge       = 0
  Multiplicity = 1
  Basis Set: CC-PVTZ
  Basis Set:
  @DF-RHF Final Energy:  -423.12902464170588
    Total Energy =                       -423.1290246417055414
    Molecular point group: c1
  Basis Set: CC-PVTZ
  Basis Set:
  Basis Set: CC-PVTZ
  Basis Set:
  @DF-RHF Final Energy:  -423.12909161978695
    Total Energy =                       -423.1290916197867773
  Basis Set: CC-PVTZ
  Basis Set:
  Basis Set: CC-PVTZ
  Basis Set:
  @DF-RHF Final Energy:  -423.12917886802541
    Total Energy =                       -423.1291788680258605
  Basis Set: CC-PVTZ
  Basis Set:
  Basis Set: CC-PVTZ
  Basis Set:
  @DF-RHF Final Energy:  -423.12931272804815
    Total Energy =                       -423.1293127280480348
  Basis Set: CC-PVTZ
  Basis Set:
  Basis Set: CC-PVTZ
  Basis Set:
  @DF-RHF Final Energy:  -423.12933885874497
    Total Energy =                       -423.1293388587452000
  Basis Set: CC-PVTZ
  Basis Set:
  Charge       = 0
  Multiplicity = 1
  Basis Set: CC-PVTZ
  Basis Set:

    Orbital Energies (a.u.)
    -----------------------

    Doubly Occupied:

       1A    -20.595947     2A    -20.529522     3A    -11.366400
       4A    -11.279216     5A    -11.230689     6A    -11.222684
       7A    -11.221180     8A    -11.219287     9A    -11.211342
      10A     -1.471176    11A     -1.363997    12A     -1.093547
      13A     -1.042146    14A     -1.004049    15A     -0.931231
      16A     -0.844021    17A     -0.802474    18A     -0.775942
      19A     -0.694172    20A     -0.688433    21A     -0.672193
      22A     -0.640083    23A     -0.611749    24A     -0.593678
      25A     -0.583260    26A     -0.571802    27A     -0.552325
      28A     -0.534959    29A     -0.527168    30A     -0.504406
      31A     -0.499447    32A     -0.475735    33A     -0.465329
      34A     -0.464665    35A     -0.455380    36A     -0.438721

  @DF-RHF Final Energy:  -423.12933909497224

   => Energetics <=

    Nuclear Repulsion Energy =            451.1392669964693596
    One-Electron Energy =               -1470.1805042649652933
    Two-Electron Energy =                 595.9118981735235820
    DFT Exchange-Correlation Energy =       0.0000000000000000
    Empirical Dispersion Energy =           0.0000000000000000
    PCM Polarization Energy =               0.0000000000000000
    EFP Energy =                            0.0000000000000000
    Total Energy =                       -423.1293390949723516
    Molecular point group: c1
  Basis Set: CC-PVTZ
  Basis Set:

  -Total Gradient:
     Atom            X                  Y                   Z
    ------   -----------------  -----------------  -----------------
       1        0.000021591987     0.000011833549     0.000000452309
       2        0.000008658621    -0.000037897379    -0.000027179184
       3       -0.000002018367    -0.000003351888     0.000015351199
       4       -0.000040873647     0.000020835804    -0.000038669789
       5        0.000015954691     0.000004012737     0.000006938078
       6       -0.000001257992    -0.000005516368    -0.000001057466
       7        0.000002632884     0.000002580046    -0.000002140627
       8       -0.000000246730     0.000015699428     0.000081370563
       9        0.000002529284     0.000003173084    -0.000002768589
      10       -0.000020919673     0.000002028830    -0.000015429817
      11        0.000014599585     0.000001057906    -0.000014794948
      12        0.001196035290     0.001633503570     0.001182417605
      13        0.000014522193    -0.000012667483     0.000001373868
      14        0.000000059904     0.000014115093     0.000002758347
      15       -0.001278630041    -0.001745216451    -0.000931781880
      16       -0.000794687379    -0.001104755544    -0.000842615444
      17       -0.000004971946     0.000004007614     0.000004283303
      18        0.000006249017    -0.000003110980    -0.000006884376
      19        0.000865964913     0.001210168471     0.000604362065
      20        0.000005223821    -0.000007993223    -0.000000714270
      21       -0.000008719795     0.000005333161     0.000002190753
      22        0.000001804458    -0.000000120391    -0.000007746472
      23       -0.000003501081    -0.000007719582    -0.000009715229

  **** Optimization is complete! (in 6 steps) ****
    Final optimized geometry and variables:
    Molecular point group: c1

    Geometry (in Angstrom), charge = 0, multiplicity = 1:

    O           -2.784305640727     1.360548655493    -0.146380373007
    C           -2.631894706431     0.186125689517    -0.141256564262
    C           -3.765684532355    -0.803407847578    -0.144713732350
    O           -1.448704406133    -0.396662488728    -0.131686527086
    H           -4.373040924965    -0.627355221300    -1.022368737834
    H           -3.411777401410    -1.821960062493    -0.139456935851
    H           -4.383173404011    -0.621875806103     0.724741397301
    C           -0.299625618349     0.439799826494    -0.126707879845
    C            0.924585467352    -0.449913250434    -0.119151958726
    H           -0.322854527197     1.075661707335    -1.001168380362
    H           -0.331853861987     1.078155117111     0.745675885677
    C            2.222348003214     0.355599651349    -0.110995651050
    H            0.896421772139    -1.096488552254    -0.990462235403
    H            0.886000256764    -1.096655605786     0.751754193303
    C            3.485145822571    -0.529942119725    -0.120669102227
    H            2.227840625804     1.011333983720    -0.975821653078
    H            2.233295932694     1.000683308090     0.762084788068
    C            4.466701399656    -0.195599128751     0.999398086291
    H            3.997705543841    -0.423889026895    -1.070344725785
    H            3.201949424694    -1.574070845047    -0.041148084012
    H            4.799197194726     0.834918880509     0.932299533927
    H            5.344329720522    -0.830399837955     0.954967913088
    H            4.008091498276    -0.330508048703     1.973511571101

  Mulliken Charges: (a.u.)
   Center  Symbol    Alpha    Beta     Spin     Total
       1     O     4.20243  4.20243  0.00000 -0.40487
       2     C     2.81500  2.81500  0.00000  0.37001
       3     C     3.13998  3.13998  0.00000 -0.27995
       4     O     4.14490  4.14490  0.00000 -0.28980
       5     H     0.44211  0.44211  0.00000  0.11579
       6     H     0.44190  0.44190  0.00000  0.11621
       7     H     0.44211  0.44211  0.00000  0.11577
       8     C     2.97916  2.97916  0.00000  0.04169
       9     C     3.08340  3.08340  0.00000 -0.16680
      10     H     0.45428  0.45428  0.00000  0.09145
      11     H     0.45414  0.45414  0.00000  0.09171
      12     C     3.10271  3.10271  0.00000 -0.20543
      13     H     0.44977  0.44977  0.00000  0.10046
      14     H     0.45066  0.45066  0.00000  0.09869
      15     C     3.08807  3.08807  0.00000 -0.17614
      16     H     0.44883  0.44883  0.00000  0.10233
      17     H     0.45225  0.45225  0.00000  0.09549
      18     C     3.14737  3.14737  0.00000 -0.29473
      19     H     0.44974  0.44974  0.00000  0.10051
      20     H     0.45315  0.45315  0.00000  0.09371
      21     H     0.45376  0.45376  0.00000  0.09248
      22     H     0.44893  0.44893  0.00000  0.10213
      23     H     0.45535  0.45535  0.00000  0.08929

   Total alpha = 36.00000, Total beta = 36.00000, Total charge = -0.00000

*** Psi4 exiting successfully. Buy a developer a beer!
