  ==> Input File <==

--------------------------------------------------------------------------
set {
	reference rhf
	basis 6-31G*
}

set_num_threads( 4 )
memory 2 gb

molecule MOL {
0 1

H	 1.148083	 -1.049780	 0.784252
O	 1.319262	 -0.618148	 -0.041729
C	 0.709265	 0.639550	 -0.033818
C	 -0.377392	 0.791961	 0.997942
H	 0.292744	 0.779853	 -1.024792
H	 1.448555	 1.427341	 0.107113
C	 -0.866638	 -0.182305	 1.738353
H	 -0.763039	 1.793766	 1.108148
H	 -0.519273	 -1.195006	 1.642414
H	 -1.644169	 -0.001207	 2.458509

	symmetry c1
}
set optking {
	frozen_dihedral = ("
		5 3 2 1
	")
}

ee = optimize('scf')
oeprop('DIPOLE', 'QUADRUPOLE', 'MULLIKEN_CHARGES')
f=open( 'psi4out.xyz', 'w' )
f.write( "10  " )
f.write( str(ee) + "\n" )
f.write( MOL.save_string_xyz() )
f.close()
--------------------------------------------------------------------------

    Molecular point group: c1
  Charge       = 0
  Multiplicity = 1
  Basis Set: 6-31G*
  Basis Set:
  @DF-RHF Final Energy:  -191.91273898685506
    Total Energy =                       -191.9127389868550324
    Molecular point group: c1
  Basis Set: 6-31G*
  Basis Set:
  Basis Set: 6-31G*
  Basis Set:
  @DF-RHF Final Energy:  -191.91328789855223
    Total Energy =                       -191.9132878985523121
  Basis Set: 6-31G*
  Basis Set:
  Basis Set: 6-31G*
  Basis Set:
  @DF-RHF Final Energy:  -191.91373953005603
    Total Energy =                       -191.9137395300560627
  Basis Set: 6-31G*
  Basis Set:
  Basis Set: 6-31G*
  Basis Set:
  @DF-RHF Final Energy:  -191.91377590774627
    Total Energy =                       -191.9137759077463556
  Basis Set: 6-31G*
  Basis Set:
  Basis Set: 6-31G*
  Basis Set:
  @DF-RHF Final Energy:  -191.91378786977003
    Total Energy =                       -191.9137878697700899
  Basis Set: 6-31G*
  Basis Set:
  Charge       = 0
  Multiplicity = 1
  Basis Set: 6-31G*
  Basis Set:

    Orbital Energies (a.u.)
    -----------------------

    Doubly Occupied:

       1A    -20.556190     2A    -11.278320     3A    -11.240863
       4A    -11.229151     5A     -1.366087     6A     -1.064685
       7A     -0.933217     8A     -0.775498     9A     -0.686198
      10A     -0.658825    11A     -0.625623    12A     -0.569753
      13A     -0.554956    14A     -0.480381    15A     -0.452655
      16A     -0.371469

  @DF-RHF Final Energy:  -191.91378862125964

   => Energetics <=

    Nuclear Repulsion Energy =            119.3420582799466416
    One-Electron Energy =                -496.8239538600479364
    Two-Electron Energy =                 185.5681069588416108
    DFT Exchange-Correlation Energy =       0.0000000000000000
    Empirical Dispersion Energy =           0.0000000000000000
    PCM Polarization Energy =               0.0000000000000000
    EFP Energy =                            0.0000000000000000
    Total Energy =                       -191.9137886212596982
    Molecular point group: c1
  Basis Set: 6-31G*
  Basis Set:

  -Total Gradient:
     Atom            X                  Y                   Z
    ------   -----------------  -----------------  -----------------
       1       -0.003498722943    -0.001993075506    -0.001221178637
       2        0.003591189179     0.002163835954     0.001840781393
       3        0.002771461461     0.001453467951    -0.002064259774
       4        0.000069705434     0.000054228024     0.000051042915
       5       -0.002904980489    -0.001598434403     0.001370369539
       6        0.000008037438    -0.000021767180     0.000013681486
       7       -0.000005866066    -0.000024178917     0.000029233917
       8       -0.000000277125    -0.000017301939    -0.000013389078
       9       -0.000007389531     0.000003249366     0.000010730294
      10       -0.000023157358    -0.000020023352    -0.000017012054

  **** Optimization is complete! (in 6 steps) ****
    Final optimized geometry and variables:
    Molecular point group: c1

    Geometry (in Angstrom), charge = 0, multiplicity = 1:

    H            1.038982010609    -1.104940307480     0.203011643195
    O            1.120249756858    -0.715007589462    -0.654852590467
    C            0.436123628464     0.505242536995    -0.686734255472
    C           -0.610000900074     0.668161521050     0.387760208196
    H           -0.063406068709     0.571095650949    -1.648654085015
    H            1.142912155193     1.328497426775    -0.624030976117
    C           -1.179612221383    -0.306982469753     1.068819495862
    H           -0.911108077162     1.686141401440     0.576446887501
    H           -0.945775913415    -1.344671567777     0.903597977416
    H           -1.925013174821    -0.104766710578     1.816196509306

  Mulliken Charges: (a.u.)
   Center  Symbol    Alpha    Beta     Spin     Total
       1     H     0.27812  0.27812  0.00000  0.44375
       2     O     4.37453  4.37453  0.00000 -0.74905
       3     C     2.98729  2.98729  0.00000  0.02543
       4     C     3.09730  3.09730  0.00000 -0.19460
       5     H     0.41183  0.41183  0.00000  0.17634
       6     H     0.42254  0.42254  0.00000  0.15491
       7     C     3.20406  3.20406  0.00000 -0.40812
       8     H     0.40586  0.40586  0.00000  0.18827
       9     H     0.41158  0.41158  0.00000  0.17683
      10     H     0.40688  0.40688  0.00000  0.18624

   Total alpha = 16.00000, Total beta = 16.00000, Total charge = -0.00000
