                              Psi4 1.0.54 Driver

  ==> Input File <==

--------------------------------------------------------------------------
set {
	reference rhf
	basis cc-pvtz
}

set_num_threads( 4 )
memory 2 gb

molecule MOL {
0 1

H	 1.074451	 -0.970974	 -1.022237
O	 1.254570	 -0.051806	 -1.106726
C	 0.706474	 0.636793	 -0.025501
C	 -0.793473	 0.591216	 0.050087
H	 1.027431	 1.667168	 -0.123561
H	 1.116930	 0.272663	 0.914518
C	 -1.534243	 -0.493009	 -0.013340
H	 -1.266611	 1.552628	 0.164437
H	 -1.101195	 -1.466332	 -0.144046
H	 -2.604242	 -0.437780	 0.050785

	symmetry c1
}
set optking {
	frozen_dihedral = ("
		5 3 4 7
	")
}

ee,wfn = optimize('scf', return_wfn=True)
oeprop( wfn, 'DIPOLE', 'QUADRUPOLE', 'MULLIKEN_CHARGES')
f=open( 'psi4out.xyz', 'w' )
f.write( "10  " )
f.write( str(ee) + "\n" )
f.write( MOL.save_string_xyz() )
f.close()
--------------------------------------------------------------------------

    Molecular point group: c1
  Charge       = 0
  Multiplicity = 1
  Basis Set: CC-PVTZ
  Basis Set:
  @DF-RHF Final Energy:  -191.99227017272756
    Total Energy =                       -191.9922701727275012
    Molecular point group: c1
  Basis Set: CC-PVTZ
  Basis Set:
  Basis Set: CC-PVTZ
  Basis Set:
  @DF-RHF Final Energy:  -191.99256100663365
    Total Energy =                       -191.9925610066335935
  Basis Set: CC-PVTZ
  Basis Set:
  Basis Set: CC-PVTZ
  Basis Set:
  @DF-RHF Final Energy:  -191.99258890564505
    Total Energy =                       -191.9925889056449932
  Basis Set: CC-PVTZ
  Basis Set:
  Basis Set: CC-PVTZ
  Basis Set:
  @DF-RHF Final Energy:  -191.99259439200318
    Total Energy =                       -191.9925943920030136
  Basis Set: CC-PVTZ
  Basis Set:
  Basis Set: CC-PVTZ
  Basis Set:
  @DF-RHF Final Energy:  -191.99259758185116
    Total Energy =                       -191.9925975818512711
  Basis Set: CC-PVTZ
  Basis Set:
  Basis Set: CC-PVTZ
  Basis Set:
  @DF-RHF Final Energy:  -191.99259883401558
    Total Energy =                       -191.9925988340154959
  Basis Set: CC-PVTZ
  Basis Set:
  Charge       = 0
  Multiplicity = 1
  Basis Set: CC-PVTZ
  Basis Set:

    Orbital Energies (a.u.)
    -----------------------

    Doubly Occupied:

       1A    -20.551517     2A    -11.277035     3A    -11.233010
       4A    -11.224156     5A     -1.370570     6A     -1.065049
       7A     -0.931485     8A     -0.773337     9A     -0.701489
      10A     -0.652837    11A     -0.627192    12A     -0.578182
      13A     -0.536339    14A     -0.502652    15A     -0.443528
      16A     -0.375163

  @DF-RHF Final Energy:  -191.99259897216211

   => Energetics <=

    Nuclear Repulsion Energy =            118.7104249452452365
    One-Electron Energy =                -495.7189706237368227
    Two-Electron Energy =                 185.0159467063294585
    DFT Exchange-Correlation Energy =       0.0000000000000000
    Empirical Dispersion Energy =           0.0000000000000000
    PCM Polarization Energy =               0.0000000000000000
    EFP Energy =                            0.0000000000000000
    Total Energy =                       -191.9925989721621420
    Molecular point group: c1
  Basis Set: CC-PVTZ
  Basis Set:

  -Total Gradient:
     Atom            X                  Y                   Z
    ------   -----------------  -----------------  -----------------
       1        0.000002134590     0.000005482307     0.000002093964
       2       -0.000001889810    -0.000006476721     0.000001360888
       3       -0.000006715232    -0.000180078671    -0.000997302203
       4       -0.000041465133     0.000202413913    -0.001525904015
       5        0.000020719426     0.000102245740     0.001302300043
       6        0.000001820058    -0.000003986558    -0.000006397773
       7        0.000025140314    -0.000108063334     0.001224256878
       8        0.000002077629     0.000000174765    -0.000002542982
       9       -0.000000509720    -0.000003939372     0.000003829478
      10       -0.000001312121    -0.000007772070    -0.000001694281

  **** Optimization is complete! (in 7 steps) ****
    Final optimized geometry and variables:
    Molecular point group: c1

    Geometry (in Angstrom), charge = 0, multiplicity = 1:

    H            1.066461915622    -1.090479785046    -0.746564975326
    O            1.309797357084    -0.183543377308    -0.758759505228
    C            0.714699409197     0.494847630780     0.309755494036
    C           -0.797894161433     0.437688023962     0.332562531722
    H            1.033813048250     1.523641420228     0.229326347754
    H            1.098068476742     0.122389710444     1.257109254030
    C           -1.514568465684    -0.659957707449     0.235743425172
    H           -1.305054970891     1.376857678537     0.469464356944
    H           -1.069511676543    -1.631679155937     0.108419567174
    H           -2.586918433739    -0.633302197570     0.269382145606

  Mulliken Charges: (a.u.)
   Center  Symbol    Alpha    Beta     Spin     Total
       1     H     0.39240  0.39240  0.00000  0.21520
       2     O     4.19776  4.19776  0.00000 -0.39551
       3     C     2.95578  2.95578  0.00000  0.08844
       4     C     3.07493  3.07493  0.00000 -0.14986
       5     H     0.45308  0.45308  0.00000  0.09383
       6     H     0.46801  0.46801  0.00000  0.06398
       7     C     3.17210  3.17210  0.00000 -0.34421
       8     H     0.41914  0.41914  0.00000  0.16171
       9     H     0.44109  0.44109  0.00000  0.11782
      10     H     0.42571  0.42571  0.00000  0.14859

   Total alpha = 16.00000, Total beta = 16.00000, Total charge = -0.00000

*** Psi4 exiting successfully. Buy a developer a beer!
