                              Psi4 1.0.54 Driver

  ==> Input File <==

--------------------------------------------------------------------------
set {
	reference rhf
	basis cc-pvtz
}

set_num_threads( 4 )
memory 2 gb

molecule MOL {
0 1

H	 -3.436473	 1.252944	 -1.023892
O	 -3.458596	 0.315260	 -0.960865
C	 -3.176635	 -0.080824	 0.355601
C	 -1.763371	 0.265266	 0.799691
H	 -3.321825	 -1.153438	 0.379502
H	 -3.895468	 0.357385	 1.043382
C	 -0.673390	 -0.426948	 -0.013392
H	 -1.631049	 1.344913	 0.747560
H	 -1.664587	 -0.001624	 1.849167
C	 0.737842	 -0.043159	 0.423759
H	 -0.806103	 -0.190518	 -1.063345
H	 -0.797221	 -1.503753	 0.074146
C	 1.824000	 -0.743224	 -0.390623
H	 0.850588	 1.033777	 0.343840
H	 0.868587	 -0.286314	 1.476203
C	 3.255957	 -0.453067	 0.062319
H	 1.718250	 -0.470599	 -1.438164
H	 1.658105	 -1.815850	 -0.339904
C	 3.366188	 0.321449	 1.373470
H	 3.754279	 0.113533	 -0.718331
H	 3.800723	 -1.389489	 0.150434
H	 2.825366	 1.260815	 1.317079
H	 4.401556	 0.550760	 1.598575
H	 2.968425	 -0.239160	 2.210791

	symmetry c1
}
set optking {
	frozen_dihedral = ("
		20 16 13 17
	")
}

ee,wfn = optimize('scf', return_wfn=True)
oeprop( wfn, 'DIPOLE', 'QUADRUPOLE', 'MULLIKEN_CHARGES')
f=open( 'psi4out.xyz', 'w' )
f.write( "24  " )
f.write( str(ee) + "\n" )
f.write( MOL.save_string_xyz() )
f.close()
--------------------------------------------------------------------------

    Molecular point group: c1
  Charge       = 0
  Multiplicity = 1
  Basis Set: CC-PVTZ
  Basis Set:
  @DF-RHF Final Energy:  -349.37044265735182
    Total Energy =                       -349.3704426573518731
    Molecular point group: c1
  Basis Set: CC-PVTZ
  Basis Set:
  Basis Set: CC-PVTZ
  Basis Set:
  @DF-RHF Final Energy:  -349.35832629385033
    Total Energy =                       -349.3583262938506095
  Basis Set: CC-PVTZ
  Basis Set:
  Basis Set: CC-PVTZ
  Basis Set:
  @DF-RHF Final Energy:  -349.37202185148101
    Total Energy =                       -349.3720218514807812
  Basis Set: CC-PVTZ
  Basis Set:
  Basis Set: CC-PVTZ
  Basis Set:
  @DF-RHF Final Energy:  -349.37262332705222
    Total Energy =                       -349.3726233270518833
  Basis Set: CC-PVTZ
  Basis Set:
  @DF-RHF Final Energy:  -349.37264249530426
    Total Energy =                       -349.3726424953038645
  Basis Set: CC-PVTZ
  Basis Set:
  @DF-RHF Final Energy:  -349.37266712689961
    Total Energy =                       -349.3726671268997279
  Basis Set: CC-PVTZ
  Basis Set:
  Basis Set: CC-PVTZ
  Basis Set:
  @DF-RHF Final Energy:  -349.37266994201082
    Total Energy =                       -349.3726699420105319
  Basis Set: CC-PVTZ
  Basis Set:
  Basis Set: CC-PVTZ
  Basis Set:
  @DF-RHF Final Energy:  -349.37267231099855
    Total Energy =                       -349.3726723109986096
  Basis Set: CC-PVTZ
  Basis Set:
  Charge       = 0
  Multiplicity = 1
  Basis Set: CC-PVTZ
  Basis Set:

    Orbital Energies (a.u.)
    -----------------------

    Doubly Occupied:

       1A    -20.546182     2A    -11.265388     3A    -11.214974
       4A    -11.212184     5A    -11.210038     6A    -11.209459
       7A    -11.208578     8A    -11.205591     9A     -1.364018
      10A     -1.087899    11A     -1.046668    12A     -0.986227
      13A     -0.916182    14A     -0.854860    15A     -0.802759
      16A     -0.768821    17A     -0.681677    18A     -0.657736
      19A     -0.629115    20A     -0.618574    21A     -0.591962
      22A     -0.587629    23A     -0.554020    24A     -0.546047
      25A     -0.517386    26A     -0.508375    27A     -0.503259
      28A     -0.471909    29A     -0.469730    30A     -0.460109
      31A     -0.452335    32A     -0.444794    33A     -0.420959

  @DF-RHF Final Energy:  -349.37267246411625

   => Energetics <=

    Nuclear Repulsion Energy =            385.4286733073079176
    One-Electron Energy =               -1237.5718005214314417
    Two-Electron Energy =                 502.7704547500076728
    DFT Exchange-Correlation Energy =       0.0000000000000000
    Empirical Dispersion Energy =           0.0000000000000000
    PCM Polarization Energy =               0.0000000000000000
    EFP Energy =                            0.0000000000000000
    Total Energy =                       -349.3726724641158512
    Molecular point group: c1
  Basis Set: CC-PVTZ
  Basis Set:

  -Total Gradient:
     Atom            X                  Y                   Z
    ------   -----------------  -----------------  -----------------
       1        0.000000676554     0.000007214207    -0.000000590366
       2       -0.000000300539    -0.000018577931    -0.000001260278
       3       -0.000006032064     0.000019522182     0.000001477336
       4        0.000005734873    -0.000001976233    -0.000005277550
       5       -0.000001407265    -0.000002867242    -0.000006640503
       6       -0.000007018265    -0.000000424641     0.000004643826
       7        0.000002181756    -0.000011444106     0.000010119906
       8        0.000000732840     0.000007561010     0.000002637375
       9        0.000000696894    -0.000001703290     0.000001404356
      10        0.000005198884     0.000002575207    -0.000008112077
      11       -0.000000671075    -0.000003916424    -0.000003647771
      12       -0.000004943287    -0.000008253058     0.000000046116
      13        0.001444946972    -0.005747894411    -0.000401336477
      14        0.000002434234     0.000005604778    -0.000001366469
      15        0.000005928908    -0.000000182077     0.000010946322
      16       -0.001549617188     0.005653891344     0.001103492832
      17       -0.000984270061     0.003985287459     0.000157398899
      18       -0.000004604680    -0.000002546762     0.000002163666
      19       -0.000006963887     0.000000403613    -0.000000920875
      20        0.001094212834    -0.003883870790    -0.000873296399
      21       -0.000000902162    -0.000002516054    -0.000000143344
      22       -0.000002434822     0.000006132313     0.000000597421
      23        0.000010619875    -0.000000522839    -0.000001983761
      24       -0.000004199335    -0.000001496255     0.000009647816

  **** Optimization is complete! (in 9 steps) ****
    Final optimized geometry and variables:
    Molecular point group: c1

    Geometry (in Angstrom), charge = 0, multiplicity = 1:

    H           -3.353623035654     1.135547678040    -1.536618745667
    O           -3.414609755919     0.243123128537    -1.247574329633
    C           -3.159495892184     0.170175617619     0.130439174837
    C           -1.736716027333     0.560535224917     0.501656999085
    H           -3.348695030238    -0.857979805723     0.412006225399
    H           -3.865359401080     0.789682275144     0.677981685483
    C           -0.669492165742    -0.349115025631    -0.100157491293
    H           -1.560275382236     1.589348560865     0.191282194243
    H           -1.657111773371     0.553581266187     1.586067869834
    C            0.752758202970     0.076579726841     0.255785109133
    H           -0.785530423750    -0.371402458807    -1.178062963902
    H           -0.837603105967    -1.366736475513     0.244825500187
    C            1.805693797024    -0.853425645857    -0.351080593389
    H            0.914958828762     1.092600290207    -0.094109288355
    H            0.854677135520     0.106096697815     1.336146933901
    C            3.289998452663    -0.497642526833    -0.079909048398
    H            1.642824567187    -0.848888534428    -1.423866268790
    H            1.607114869775    -1.863443666611    -0.008930493308
    C            3.581606007759     0.511306211637     1.028340567852
    H            3.749365673834    -0.161917988053    -1.003642385442
    H            3.815427711470    -1.415937263197     0.163473449436
    H            3.141302921577     1.480249604598     0.827716006210
    H            4.652052136978     0.653004401579     1.125269571190
    H            3.210627350452     0.171139036792     1.988523283963

  Mulliken Charges: (a.u.)
   Center  Symbol    Alpha    Beta     Spin     Total
       1     H     0.39534  0.39534  0.00000  0.20933
       2     O     4.20376  4.20376  0.00000 -0.40752
       3     C     2.97770  2.97770  0.00000  0.04460
       4     C     3.10186  3.10186  0.00000 -0.20372
       5     H     0.45879  0.45879  0.00000  0.08241
       6     H     0.46032  0.46032  0.00000  0.07936
       7     C     3.08862  3.08862  0.00000 -0.17724
       8     H     0.45931  0.45931  0.00000  0.08138
       9     H     0.45348  0.45348  0.00000  0.09304
      10     C     3.08980  3.08980  0.00000 -0.17960
      11     H     0.44638  0.44638  0.00000  0.10723
      12     H     0.45566  0.45566  0.00000  0.08867
      13     C     3.09840  3.09840  0.00000 -0.19679
      14     H     0.45430  0.45430  0.00000  0.09140
      15     H     0.45352  0.45352  0.00000  0.09296
      16     C     3.08778  3.08778  0.00000 -0.17556
      17     H     0.45138  0.45138  0.00000  0.09724
      18     H     0.45137  0.45137  0.00000  0.09725
      19     C     3.15706  3.15706  0.00000 -0.31411
      20     H     0.45185  0.45185  0.00000  0.09630
      21     H     0.45225  0.45225  0.00000  0.09551
      22     H     0.45304  0.45304  0.00000  0.09391
      23     H     0.44461  0.44461  0.00000  0.11078
      24     H     0.45342  0.45342  0.00000  0.09316

   Total alpha = 33.00000, Total beta = 33.00000, Total charge = -0.00000

*** Psi4 exiting successfully. Buy a developer a beer!
