  ==> Input File <==

--------------------------------------------------------------------------
set {
	reference rhf
	basis cc-pvtz
}

set_num_threads( 4 )
memory 2 gb

molecule MOL {
0 1

H	 -3.941973	 0.934228	 -0.390224
C	 -3.240162	 0.342701	 0.161016
C	 -2.105997	 -0.000418	 -0.398703
H	 -3.485368	 0.047206	 1.162193
O	 -1.189946	 -0.765863	 0.237511
H	 -1.846458	 0.297311	 -1.398265
C	 0.026572	 -0.995256	 -0.379403
C	 1.057223	 0.049888	 -0.004615
H	 -0.054361	 -1.010670	 -1.459674
H	 0.397526	 -1.952058	 -0.044198
F	 2.266457	 -0.451184	 -0.158760
F	 0.968958	 1.120969	 -0.763891
F	 0.937298	 0.435343	 1.242582

	symmetry c1
}
set optking {
	frozen_dihedral = ("
		11 8 7 9
	")
}

ee = optimize('scf')
oeprop('DIPOLE', 'QUADRUPOLE', 'MULLIKEN_CHARGES')
f=open( 'psi4out.xyz', 'w' )
f.write( "13  " )
f.write( str(ee) + "\n" )
f.write( MOL.save_string_xyz() )
f.close()
--------------------------------------------------------------------------

    Molecular point group: c1
  Charge       = 0
  Multiplicity = 1
  Basis Set: CC-PVTZ
  Basis Set:
  @DF-RHF Final Energy:  -527.73979866244247
    Total Energy =                       -527.7397986624425812
    Molecular point group: c1
  Basis Set: CC-PVTZ
  Basis Set:
  Basis Set: CC-PVTZ
  Basis Set:
  @DF-RHF Final Energy:  -527.73996181487985
    Total Energy =                       -527.7399618148801892
  Basis Set: CC-PVTZ
  Basis Set:
  Basis Set: CC-PVTZ
  Basis Set:
  @DF-RHF Final Energy:  -527.74004010070803
    Total Energy =                       -527.7400401007078017
  Basis Set: CC-PVTZ
  Basis Set:
  Basis Set: CC-PVTZ
  Basis Set:
  @DF-RHF Final Energy:  -527.74006181359232
    Total Energy =                       -527.7400618135924333
  Basis Set: CC-PVTZ
  Basis Set:
  @DF-RHF Final Energy:  -527.74007801721746
    Total Energy =                       -527.7400780172172290
  Basis Set: CC-PVTZ
  Basis Set:
  @DF-RHF Final Energy:  -527.74008318515121
    Total Energy =                       -527.7400831851513203
  Basis Set: CC-PVTZ
  Basis Set:
  Basis Set: CC-PVTZ
  Basis Set:
  @DF-RHF Final Energy:  -527.74008778030543
    Total Energy =                       -527.7400877803053163
  Basis Set: CC-PVTZ
  Basis Set:
  Basis Set: CC-PVTZ
  Basis Set:
  @DF-RHF Final Energy:  -527.74008907412087
    Total Energy =                       -527.7400890741208741
  Basis Set: CC-PVTZ
  Basis Set:
  Charge       = 0
  Multiplicity = 1
  Basis Set: CC-PVTZ
  Basis Set:

    Orbital Energies (a.u.)
    -----------------------

    Doubly Occupied:

       1A    -26.341119     2A    -26.340844     3A    -26.336683
       4A    -20.602848     5A    -11.498050     6A    -11.320021
       7A    -11.298072     8A    -11.214702     9A     -1.750157
      10A     -1.646801    11A     -1.644365    12A     -1.443559
      13A     -1.086122    14A     -1.020353    15A     -0.931981
      16A     -0.842932    17A     -0.838659    18A     -0.827168
      19A     -0.799022    20A     -0.726566    21A     -0.719715
      22A     -0.701463    23A     -0.681916    24A     -0.667870
      25A     -0.662218    26A     -0.650281    27A     -0.640303
      28A     -0.587660    29A     -0.566691    30A     -0.527203
      31A     -0.516835    32A     -0.357664

  @DF-RHF Final Energy:  -527.74008924834720

   => Energetics <=

    Nuclear Repulsion Energy =            414.3100596074152691
    One-Electron Energy =               -1552.5206066901178019
    Two-Electron Energy =                 610.4704578343553294
    DFT Exchange-Correlation Energy =       0.0000000000000000
    Empirical Dispersion Energy =           0.0000000000000000
    PCM Polarization Energy =               0.0000000000000000
    EFP Energy =                            0.0000000000000000
    Total Energy =                       -527.7400892483472035
    Molecular point group: c1
  Basis Set: CC-PVTZ
  Basis Set:

  -Total Gradient:
     Atom            X                  Y                   Z
    ------   -----------------  -----------------  -----------------
       1       -0.000001604894     0.000001610815     0.000000438341
       2        0.000012447713    -0.000012461766     0.000003884064
       3       -0.000037720612     0.000037005667    -0.000022629648
       4        0.000000275294     0.000000542232    -0.000002161857
       5        0.000065612253    -0.000037004995     0.000007894000
       6        0.000008533868    -0.000005229970     0.000003944309
       7        0.004086972398    -0.003965421537     0.000773998596
       8       -0.000718651869     0.002262080999    -0.004546370663
       9       -0.003423245368     0.002962047864     0.000228493403
      10        0.000013143862     0.000000448148    -0.000023709420
      11       -0.000025264887    -0.001254327501     0.003545807858
      12        0.000030582969    -0.000015302047    -0.000014084802
      13       -0.000011080721     0.000026012092     0.000044495820

  **** Optimization is complete! (in 9 steps) ****
    Final optimized geometry and variables:
    Molecular point group: c1

    Geometry (in Angstrom), charge = 0, multiplicity = 1:

    H           -3.847105407264     1.006290665253    -0.369446486841
    C           -3.162444025506     0.382231605424     0.167452014750
    C           -2.069330140270    -0.034384204589    -0.423192209447
    H           -3.392921208409     0.110738084296     1.178866336173
    O           -1.186066701211    -0.857160520556     0.187324149895
    H           -1.823776680203     0.238807153725    -1.433909371296
    C            0.059061711181    -1.031457487537    -0.393082565803
    C            1.038304920973     0.065201894711     0.001749603318
    H           -0.015629619647    -1.032009267949    -1.474128773197
    H            0.455169163824    -1.972667969852    -0.048110043794
    F            2.273796861250    -0.366252107767    -0.154352330167
    F            0.893625636106     1.146477291554    -0.736047764872
    F            0.900060122287     0.419499390303     1.255281847350

  Mulliken Charges: (a.u.)
   Center  Symbol    Alpha    Beta     Spin     Total
       1     H     0.42508  0.42508  0.00000  0.14985
       2     C     3.19463  3.19463  0.00000 -0.38926
       3     C     2.96255  2.96255  0.00000  0.07490
       4     H     0.42422  0.42422  0.00000  0.15156
       5     O     4.14264  4.14264  0.00000 -0.28529
       6     H     0.43430  0.43430  0.00000  0.13140
       7     C     3.02128  3.02128  0.00000 -0.04255
       8     C     2.67658  2.67658  0.00000  0.64685
       9     H     0.45573  0.45573  0.00000  0.08855
      10     H     0.43397  0.43397  0.00000  0.13207
      11     F     4.61161  4.61161  0.00000 -0.22323
      12     F     4.61197  4.61197  0.00000 -0.22395
      13     F     4.60544  4.60544  0.00000 -0.21089

   Total alpha = 32.00000, Total beta = 32.00000, Total charge = -0.00000
