  ==> Input File <==

--------------------------------------------------------------------------
set {
	reference rhf
	basis 6-31G*
}

set_num_threads( 1 )
memory 2 gb

molecule MOL {
0 1

H	 -3.892951	 0.981613	 -0.358725
C	 -3.196921	 0.361773	 0.172313
C	 -2.076860	 -0.007332	 -0.404944
H	 -3.439953	 0.057760	 1.173024
O	 -1.374624	 -1.092924	 0.013642
H	 -1.660266	 0.511479	 -1.250213
C	 -0.118578	 -1.312403	 -0.530442
C	 0.956456	 -0.562765	 0.223639
H	 -0.064578	 -1.021499	 -1.573588
H	 0.095393	 -2.367980	 -0.450061
F	 2.138985	 -0.833041	 -0.309635
F	 0.777604	 0.746411	 0.161195
F	 0.997426	 -0.902450	 1.495381

	symmetry c1
}
set optking {
	frozen_dihedral = ("
		11 8 7 9,
		3 5 7 9,
		6 3 5 7
	")
}

ee = energy('scf')
oeprop('DIPOLE', 'QUADRUPOLE', 'MULLIKEN_CHARGES')
f=open( 'psi4out.xyz', 'w' )
f.write( "13  " )
f.write( str(ee) + "\n" )
f.write( MOL.save_string_xyz() )
f.close()
--------------------------------------------------------------------------

    Molecular point group: c1

    Geometry (in Angstrom), charge = 0, multiplicity = 1:

       Center              X                  Y                   Z               Mass
    ------------   -----------------  -----------------  -----------------  -----------------
           H         -3.814474931329     1.428921107339    -0.492471045272     1.007825032070
           C         -3.118444931329     0.809081107339     0.038566954728    12.000000000000
           C         -1.998383931329     0.439976107339    -0.538690045272    12.000000000000
           H         -3.361476931329     0.505068107339     1.039277954728     1.007825032070
           O         -1.296147931329    -0.645615892661    -0.120104045272    15.994914619560
           H         -1.581789931329     0.958787107339    -1.383959045272     1.007825032070
           C         -0.040101931329    -0.865094892661    -0.664188045272    12.000000000000
           C          1.034932068671    -0.115456892661     0.089892954728    12.000000000000
           H          0.013898068671    -0.574190892661    -1.707334045272     1.007825032070
           H          0.173869068671    -1.920671892661    -0.583807045272     1.007825032070
           F          2.217461068671    -0.385732892661    -0.443381045272    18.998403224000
           F          0.856080068671     1.193719107339     0.027448954728    18.998403224000
           F          1.075902068671    -0.455141892661     1.361634954728    18.998403224000

  Charge       = 0
  Multiplicity = 1
  Basis Set: 6-31G*
  Basis Set:

    Orbital Energies (a.u.)
    -----------------------

    Doubly Occupied:

       1A    -26.344950     2A    -26.344822     3A    -26.341289
       4A    -20.610363     5A    -11.503707     6A    -11.318919
       7A    -11.300941     8A    -11.214661     9A     -1.742458
      10A     -1.640531    11A     -1.639043    12A     -1.439465
      13A     -1.084646    14A     -1.016758    15A     -0.925929
      16A     -0.837222    17A     -0.831701    18A     -0.821702
      19A     -0.792351    20A     -0.722090    21A     -0.711986
      22A     -0.696317    23A     -0.676318    24A     -0.661184
      25A     -0.655347    26A     -0.643850    27A     -0.636052
      28A     -0.584313    29A     -0.567429    30A     -0.523008
      31A     -0.512804    32A     -0.346156

  @DF-RHF Final Energy:  -527.52741249187272

   => Energetics <=

    Nuclear Repulsion Energy =            413.5343419663749955
    One-Electron Energy =               -1550.7467468237946377
    Two-Electron Energy =                 609.6849923655471457
    DFT Exchange-Correlation Energy =       0.0000000000000000
    Empirical Dispersion Energy =           0.0000000000000000
    PCM Polarization Energy =               0.0000000000000000
    EFP Energy =                            0.0000000000000000
    Total Energy =                       -527.5274124918724965

  Mulliken Charges: (a.u.)
   Center  Symbol    Alpha    Beta     Spin     Total
       1     H     0.40684  0.40684  0.00000  0.18631
       2     C     3.23735  3.23735  0.00000 -0.47470
       3     C     2.89660  2.89660  0.00000  0.20681
       4     H     0.40196  0.40196  0.00000  0.19608
       5     O     4.29790  4.29790  0.00000 -0.59579
       6     H     0.40707  0.40707  0.00000  0.18585
       7     C     3.06444  3.06444  0.00000 -0.12887
       8     C     2.45611  2.45611  0.00000  1.08777
       9     H     0.40533  0.40533  0.00000  0.18933
      10     H     0.38946  0.38946  0.00000  0.22109
      11     F     4.68277  4.68277  0.00000 -0.36553
      12     F     4.67970  4.67970  0.00000 -0.35941
      13     F     4.67447  4.67447  0.00000 -0.34894

   Total alpha = 32.00000, Total beta = 32.00000, Total charge =  0.00000
