                              Psi4 1.0.54 Driver

  ==> Input File <==

--------------------------------------------------------------------------
set {
	reference rhf
	basis cc-pvtz
}

set_num_threads( 4 )
memory 2 gb

molecule MOL {
0 1

H	 -4.131095	 -0.605431	 1.042573
O	 -3.455187	 -0.708212	 0.398539
C	 -2.238240	 -0.215103	 0.892808
C	 -1.175688	 -0.398187	 -0.171891
H	 -2.329825	 0.838696	 1.147553
H	 -1.951363	 -0.746923	 1.797628
C	 0.196029	 0.106276	 0.266738
H	 -1.494742	 0.122943	 -1.069024
H	 -1.121955	 -1.451897	 -0.426303
C	 1.330220	 -0.826136	 -0.155230
H	 0.359542	 1.097229	 -0.145561
H	 0.212134	 0.218135	 1.348778
C	 2.719700	 -0.407669	 0.328325
H	 1.339388	 -0.911200	 -1.239363
H	 1.119001	 -1.821953	 0.224128
C	 3.241564	 0.893452	 -0.276737
H	 3.418299	 -1.204729	 0.093035
H	 2.711776	 -0.323368	 1.411960
H	 3.254204	 0.841071	 -1.360784
H	 2.634460	 1.745075	 0.005842
H	 4.254264	 1.092401	 0.054971

	symmetry c1
}
set optking {
	frozen_dihedral = ("
		8 4 7 10
	")
}

ee,wfn = optimize('scf', return_wfn=True)
oeprop( wfn, 'DIPOLE', 'QUADRUPOLE', 'MULLIKEN_CHARGES')
f=open( 'psi4out.xyz', 'w' )
f.write( "21  " )
f.write( str(ee) + "\n" )
f.write( MOL.save_string_xyz() )
f.close()
--------------------------------------------------------------------------

    Molecular point group: c1
  Charge       = 0
  Multiplicity = 1
  Basis Set: CC-PVTZ
  Basis Set:
  @DF-RHF Final Energy:  -310.32909489406285
    Total Energy =                       -310.3290948940626777
    Molecular point group: c1
  Basis Set: CC-PVTZ
  Basis Set:
  Basis Set: CC-PVTZ
  Basis Set:
  @DF-RHF Final Energy:  -310.32933486321707
    Total Energy =                       -310.3293348632168431
  Basis Set: CC-PVTZ
  Basis Set:
  Basis Set: CC-PVTZ
  Basis Set:
  @DF-RHF Final Energy:  -310.32941315099941
    Total Energy =                       -310.3294131509996987
  Basis Set: CC-PVTZ
  Basis Set:
  Basis Set: CC-PVTZ
  Basis Set:
  @DF-RHF Final Energy:  -310.32940573518027
    Total Energy =                       -310.3294057351806714
  Basis Set: CC-PVTZ
  Basis Set:
  Basis Set: CC-PVTZ
  Basis Set:
  @DF-RHF Final Energy:  -310.32942425731784
    Total Energy =                       -310.3294242573182373
  Basis Set: CC-PVTZ
  Basis Set:
  Charge       = 0
  Multiplicity = 1
  Basis Set: CC-PVTZ
  Basis Set:

    Orbital Energies (a.u.)
    -----------------------

    Doubly Occupied:

       1A    -20.545476     2A    -11.265279     3A    -11.213245
       4A    -11.213090     5A    -11.211706     6A    -11.208780
       7A    -11.206012     8A     -1.363581     9A     -1.086430
      10A     -1.033724    11A     -0.955374    12A     -0.876341
      13A     -0.808170    14A     -0.779870    15A     -0.697263
      16A     -0.659004    17A     -0.622736    18A     -0.610439
      19A     -0.591970    20A     -0.558901    21A     -0.550488
      22A     -0.518210    23A     -0.505397    24A     -0.496617
      25A     -0.476074    26A     -0.458290    27A     -0.455319
      28A     -0.445844    29A     -0.435938

  @DF-RHF Final Energy:  -310.32942436711681

   => Energetics <=

    Nuclear Repulsion Energy =            312.8711463155775050
    One-Electron Energy =               -1040.7020073239204976
    Two-Electron Energy =                 417.5014366412261779
    DFT Exchange-Correlation Energy =       0.0000000000000000
    Empirical Dispersion Energy =           0.0000000000000000
    PCM Polarization Energy =               0.0000000000000000
    EFP Energy =                            0.0000000000000000
    Total Energy =                       -310.3294243671167578
    Molecular point group: c1
  Basis Set: CC-PVTZ
  Basis Set:

  -Total Gradient:
     Atom            X                  Y                   Z
    ------   -----------------  -----------------  -----------------
       1        0.000011847724     0.000008180438     0.000002396963
       2       -0.000003300845    -0.000011936318    -0.000022340766
       3        0.000027583801     0.000012572419     0.000044404172
       4        0.001779877744    -0.003355273113    -0.001686243343
       5       -0.000007831540    -0.000001930856    -0.000005424118
       6       -0.000006033291    -0.000004983319     0.000003636129
       7       -0.000072908387     0.002356574103    -0.002357554016
       8       -0.001494131261     0.002290578918     0.001975542994
       9        0.000004634858     0.000001044963    -0.000003437979
      10       -0.000225007200    -0.001303298644     0.002051701591
      11        0.000001872838     0.000007158970    -0.000011408847
      12       -0.000007112848    -0.000003067641     0.000009554459
      13       -0.000004709857     0.000012118647     0.000000480111
      14       -0.000000872731    -0.000004428250    -0.000000802696
      15        0.000007195378     0.000004980941     0.000004014110
      16       -0.000000304015    -0.000005105386    -0.000002131901
      17       -0.000003976083     0.000003562627     0.000000101477
      18       -0.000003169477    -0.000002378503    -0.000002242130
      19       -0.000002941463     0.000003118007    -0.000001296992
      20        0.000000249438    -0.000004520422     0.000001562598
      21       -0.000000962790    -0.000002967577    -0.000000511814

  **** Optimization is complete! (in 6 steps) ****
    Final optimized geometry and variables:
    Molecular point group: c1

    Geometry (in Angstrom), charge = 0, multiplicity = 1:

    H           -4.169906190413    -0.346245673571     0.827210285086
    O           -3.493394099271    -0.446731170364     0.183468806883
    C           -2.261757661839    -0.027999943667     0.706896408593
    C           -1.195428813950    -0.209323497402    -0.356479197842
    H           -2.309579544152     1.017196205216     1.006764603843
    H           -2.004323849226    -0.609776277487     1.589670772443
    C            0.180987587216     0.292228822638     0.107808496810
    H           -1.522432119749     0.336517292371    -1.234071723169
    H           -1.155335422435    -1.258585822898    -0.625168835722
    C            1.332145520150    -0.608421678039    -0.338454215165
    H            0.333372184032     1.305875595094    -0.242814132557
    H            0.200092286123     0.345137417655     1.194531181463
    C            2.718181491166    -0.156775830257     0.123573078651
    H            1.326356709180    -0.692896426820    -1.423108885702
    H            1.148348066074    -1.608826562316     0.042607849110
    C            3.208890427193     1.144496427284    -0.506710150314
    H            3.429506440335    -0.943679298300    -0.107725990626
    H            2.720358394953    -0.056505575144     1.206005977783
    H            3.213419783187     1.074397295388    -1.589726708853
    H            2.587510214508     1.988559414296    -0.232946941373
    H            4.220192978591     1.368784054564    -0.187161723490

  Mulliken Charges: (a.u.)
   Center  Symbol    Alpha    Beta     Spin     Total
       1     H     0.39733  0.39733  0.00000  0.20533
       2     O     4.19492  4.19492  0.00000 -0.38984
       3     C     2.96220  2.96220  0.00000  0.07559
       4     C     3.08543  3.08543  0.00000 -0.17086
       5     H     0.47409  0.47409  0.00000  0.05183
       6     H     0.47540  0.47540  0.00000  0.04921
       7     C     3.10756  3.10756  0.00000 -0.21513
       8     H     0.44905  0.44905  0.00000  0.10189
       9     H     0.45115  0.45115  0.00000  0.09771
      10     C     3.09439  3.09439  0.00000 -0.18878
      11     H     0.44811  0.44811  0.00000  0.10377
      12     H     0.45800  0.45800  0.00000  0.08399
      13     C     3.08999  3.08999  0.00000 -0.17998
      14     H     0.45218  0.45218  0.00000  0.09565
      15     H     0.44900  0.44900  0.00000  0.10200
      16     C     3.15179  3.15179  0.00000 -0.30358
      17     H     0.44847  0.44847  0.00000  0.10305
      18     H     0.45538  0.45538  0.00000  0.08924
      19     H     0.45455  0.45455  0.00000  0.09091
      20     H     0.45423  0.45423  0.00000  0.09155
      21     H     0.44677  0.44677  0.00000  0.10645

   Total alpha = 29.00000, Total beta = 29.00000, Total charge = -0.00000

*** Psi4 exiting successfully. Buy a developer a beer!
