  ==> Input File <==

--------------------------------------------------------------------------
set {
	reference rhf
	basis 6-31G*
}

set_num_threads( 1 )
memory 2 gb

molecule MOL {
0 1

O	 0.749854	 1.307668	 -0.000040
C	 0.576249	 0.131685	 -0.000108
C	 -0.766779	 -0.556801	 -0.000461
O	 1.568443	 -0.749345	 -0.000005
C	 -1.945214	 0.412366	 0.000161
H	 -0.796911	 -1.211249	 -0.867467
H	 -0.796854	 -1.212390	 0.865687
C	 -3.287791	 -0.317055	 0.000105
H	 -1.876087	 1.060580	 -0.866812
H	 -1.875822	 1.059691	 0.867761
H	 -3.394745	 -0.949193	 -0.877058
H	 -4.111778	 0.388953	 0.000015
H	 -3.394954	 -0.949187	 0.877259
C	 2.194319	 -1.012270	 1.242717
H	 2.632513	 -0.110552	 1.645746
H	 2.962100	 -1.741918	 1.037796
H	 1.481010	 -1.408033	 1.951286

	symmetry c1
}
set optking {
	frozen_dihedral = ("
		1 2 3 6,
		9 5 3 6
	")
}

ee = energy('scf')
oeprop('DIPOLE', 'QUADRUPOLE', 'MULLIKEN_CHARGES')
f=open( 'psi4out.xyz', 'w' )
f.write( "17  " )
f.write( str(ee) + "\n" )
f.write( MOL.save_string_xyz() )
f.close()
--------------------------------------------------------------------------

    Molecular point group: c1

    Geometry (in Angstrom), charge = 0, multiplicity = 1:

       Center              X                  Y                   Z               Mass
    ------------   -----------------  -----------------  -----------------  -----------------
           O          0.856772097901     1.428054001749    -0.191860245650    15.994914619560
           C          0.683167097901     0.252071001749    -0.191928245650    12.000000000000
           C         -0.659860902099    -0.436414998251    -0.192281245650    12.000000000000
           O          1.675361097901    -0.628958998251    -0.191825245650    15.994914619560
           C         -1.838295902099     0.532752001749    -0.191659245650    12.000000000000
           H         -0.689992902099    -1.090862998251    -1.059287245650     1.007825032070
           H         -0.689935902099    -1.092003998251     0.673866754350     1.007825032070
           C         -3.180872902099    -0.196668998251    -0.191715245650    12.000000000000
           H         -1.769168902099     1.180966001749    -1.058632245650     1.007825032070
           H         -1.768903902099     1.180077001749     0.675940754350     1.007825032070
           H         -3.287826902099    -0.828806998251    -1.068878245650     1.007825032070
           H         -4.004859902099     0.509339001749    -0.191805245650     1.007825032070
           H         -3.288035902099    -0.828800998251     0.685438754350     1.007825032070
           C          2.301237097901    -0.891883998251     1.050896754350    12.000000000000
           H          2.739431097901     0.009834001749     1.453925754350     1.007825032070
           H          3.069018097901    -1.621531998251     0.845975754350     1.007825032070
           H          1.587928097901    -1.287646998251     1.759465754350     1.007825032070

  Charge       = 0
  Multiplicity = 1
  Basis Set: 6-31G*
  Basis Set:

    Orbital Energies (a.u.)
    -----------------------

    Doubly Occupied:

       1A    -20.587609     2A    -20.554846     3A    -11.373956
       4A    -11.294242     5A    -11.237344     6A    -11.222499
       7A    -11.215527     8A     -1.464637     9A     -1.366945
      10A     -1.080050    11A     -0.996769    12A     -0.952088
      13A     -0.832518    14A     -0.768553    15A     -0.699089
      16A     -0.681615    17A     -0.675271    18A     -0.633800
      19A     -0.616582    20A     -0.577702    21A     -0.565907
      22A     -0.541401    23A     -0.517985    24A     -0.491774
      25A     -0.490700    26A     -0.480391    27A     -0.454637
      28A     -0.434412

  @DF-RHF Final Energy:  -344.88684775137477

   => Energetics <=

    Nuclear Repulsion Energy =            313.3728979687652441
    One-Electron Energy =               -1090.9017200260500431
    Two-Electron Energy =                 432.6419743059102530
    DFT Exchange-Correlation Energy =       0.0000000000000000
    Empirical Dispersion Energy =           0.0000000000000000
    PCM Polarization Energy =               0.0000000000000000
    EFP Energy =                            0.0000000000000000
    Total Energy =                       -344.8868477513744892

  Mulliken Charges: (a.u.)
   Center  Symbol    Alpha    Beta     Spin     Total
       1     O     4.26082  4.26082  0.00000 -0.52164
       2     C     2.61437  2.61437  0.00000  0.77127
       3     C     3.20909  3.20909  0.00000 -0.41817
       4     O     4.31084  4.31084  0.00000 -0.62169
       5     C     3.15288  3.15288  0.00000 -0.30575
       6     H     0.39895  0.39895  0.00000  0.20210
       7     H     0.40818  0.40818  0.00000  0.18364
       8     C     3.24247  3.24247  0.00000 -0.48494
       9     H     0.40964  0.40964  0.00000  0.18073
      10     H     0.41228  0.41228  0.00000  0.17544
      11     H     0.42104  0.42104  0.00000  0.15793
      12     H     0.41507  0.41507  0.00000  0.16986
      13     H     0.42253  0.42253  0.00000  0.15495
      14     C     3.09333  3.09333  0.00000 -0.18666
      15     H     0.40580  0.40580  0.00000  0.18839
      16     H     0.40187  0.40187  0.00000  0.19627
      17     H     0.42086  0.42086  0.00000  0.15827

   Total alpha = 28.00000, Total beta = 28.00000, Total charge = -0.00000
