  ==> Input File <==

--------------------------------------------------------------------------
set {
	reference rhf
	basis cc-pvtz
}

set_num_threads( 4 )
memory 2 gb

molecule MOL {
0 1

H	 -2.961265	 1.254044	 1.909970
O	 -2.270315	 0.681922	 1.631654
C	 -2.302264	 0.528872	 0.237390
C	 -1.175688	 -0.398187	 -0.171891
H	 -3.257081	 0.113545	 -0.078207
H	 -2.185926	 1.492566	 -0.254127
C	 0.196029	 0.106276	 0.266738
H	 -1.201873	 -0.515469	 -1.250677
H	 -1.365975	 -1.378728	 0.252664
C	 1.330220	 -0.826136	 -0.155230
H	 0.359542	 1.097229	 -0.145561
H	 0.212134	 0.218135	 1.348778
C	 2.719700	 -0.407669	 0.328325
H	 1.339388	 -0.911200	 -1.239363
H	 1.119001	 -1.821953	 0.224128
C	 3.241564	 0.893452	 -0.276737
H	 3.418299	 -1.204729	 0.093035
H	 2.711776	 -0.323368	 1.411960
H	 3.254204	 0.841071	 -1.360784
H	 2.634460	 1.745075	 0.005842
H	 4.254264	 1.092401	 0.054971

	symmetry c1
}
set optking {
	frozen_dihedral = ("
		2 3 4 8
	")
}

ee = optimize('scf')
oeprop('DIPOLE', 'QUADRUPOLE', 'MULLIKEN_CHARGES')
f=open( 'psi4out.xyz', 'w' )
f.write( "21  " )
f.write( str(ee) + "\n" )
f.write( MOL.save_string_xyz() )
f.close()
--------------------------------------------------------------------------

    Molecular point group: c1
  Charge       = 0
  Multiplicity = 1
  Basis Set: CC-PVTZ
  Basis Set:
  @DF-RHF Final Energy:  -310.33266910767912
    Total Energy =                       -310.3326691076794077
    Molecular point group: c1
  Basis Set: CC-PVTZ
  Basis Set:
  Basis Set: CC-PVTZ
  Basis Set:
  @DF-RHF Final Energy:  -310.33281603252436
    Total Energy =                       -310.3328160325245904
  Basis Set: CC-PVTZ
  Basis Set:
  Basis Set: CC-PVTZ
  Basis Set:
  @DF-RHF Final Energy:  -310.33284134085955
    Total Energy =                       -310.3328413408593747
  Basis Set: CC-PVTZ
  Basis Set:
  Charge       = 0
  Multiplicity = 1
  Basis Set: CC-PVTZ
  Basis Set:

    Orbital Energies (a.u.)
    -----------------------

    Doubly Occupied:

       1A    -20.546245     2A    -11.265900     3A    -11.210491
       4A    -11.208912     5A    -11.206719     6A    -11.203678
       7A    -11.202525     8A     -1.364264     9A     -1.082171
      10A     -1.031228    11A     -0.954430    12A     -0.875924
      13A     -0.801876    14A     -0.773461    15A     -0.707136
      16A     -0.647608    17A     -0.622130    18A     -0.604520
      19A     -0.586053    20A     -0.569333    21A     -0.533198
      22A     -0.527076    23A     -0.503269    24A     -0.490179
      25A     -0.479239    26A     -0.456771    27A     -0.453641
      28A     -0.441860    29A     -0.429926

  @DF-RHF Final Energy:  -310.33284103465076

   => Energetics <=

    Nuclear Repulsion Energy =            317.4887857481011224
    One-Electron Energy =               -1050.0837174567477632
    Two-Electron Energy =                 422.2620906739958286
    DFT Exchange-Correlation Energy =       0.0000000000000000
    Empirical Dispersion Energy =           0.0000000000000000
    PCM Polarization Energy =               0.0000000000000000
    EFP Energy =                            0.0000000000000000
    Total Energy =                       -310.3328410346508122
    Molecular point group: c1
  Basis Set: CC-PVTZ
  Basis Set:

  -Total Gradient:
     Atom            X                  Y                   Z
    ------   -----------------  -----------------  -----------------
       1        0.000002531747    -0.000008262644    -0.000027427505
       2        0.000767090882     0.000941410649    -0.000098925950
       3       -0.000800902474    -0.000999383806     0.000098561052
       4       -0.000962096799    -0.001205263479     0.000167116262
       5        0.000052255741    -0.000037683297    -0.000003539070
       6        0.000039453408     0.000008500164    -0.000018628249
       7        0.000034819509    -0.000027551858     0.000134679901
       8        0.000885742663     0.001260755358    -0.000197716421
       9        0.000000351536     0.000025486999     0.000020369814
      10       -0.000031249485     0.000045049423    -0.000059456519
      11       -0.000063930657    -0.000062789285    -0.000021034280
      12        0.000033397261     0.000011837821    -0.000013157302
      13       -0.000051717382     0.000071239498     0.000082730233
      14       -0.000019946699     0.000026811464    -0.000022506385
      15        0.000019066379    -0.000014705441    -0.000023274420
      16        0.000042515600    -0.000002534416    -0.000013957508
      17       -0.000003230970    -0.000015336307     0.000023095806
      18       -0.000012561493     0.000029253843     0.000002575082
      19       -0.000011097736     0.000015105517    -0.000023704592
      20        0.000070984465    -0.000040405953     0.000013921635
      21        0.000008524505    -0.000021534250    -0.000019721581

  **** Optimization is complete! (in 4 steps) ****
    Final optimized geometry and variables:
    Molecular point group: c1

    Geometry (in Angstrom), charge = 0, multiplicity = 1:

    H           -3.216999335019     1.138134588336     1.598326303615
    O           -2.511909059598     0.573305983638     1.342118532414
    C           -2.504640325698     0.413383185303    -0.052633835826
    C           -1.364335747141    -0.505667910214    -0.446491926286
    H           -3.446550566729    -0.010272639310    -0.391544031930
    H           -2.382583043653     1.378356635413    -0.541125605981
    C            0.011188051891    -0.000454942029    -0.016454313332
    H           -1.383648285213    -0.610581394206    -1.528451164110
    H           -1.544206206943    -1.489437082078    -0.024260594532
    C            1.138969532494    -0.933143524994    -0.453667998191
    H            0.165223981811     0.990761054010    -0.432944689043
    H            0.029941575368     0.111242442215     1.061270591401
    C            2.532273531016    -0.523406442068     0.026743670463
    H            1.144682163007    -1.012027468991    -1.538958117885
    H            0.927492710187    -1.931260205167    -0.079593509298
    C            3.060251532236     0.774870970137    -0.578972237643
    H            3.226354730306    -1.324165073077    -0.210146105823
    H            2.526002490641    -0.438804018931     1.110092060014
    H            3.065899646551     0.724728361874    -1.663345265547
    H            2.460921746884     1.629814387433    -0.290504343295
    H            4.076556142782     0.965598774323    -0.253248879999

  Mulliken Charges: (a.u.)
   Center  Symbol    Alpha    Beta     Spin     Total
       1     H     0.39587  0.39587  0.00000  0.20826
       2     O     4.19827  4.19827  0.00000 -0.39654
       3     C     2.97414  2.97414  0.00000  0.05172
       4     C     3.09137  3.09137  0.00000 -0.18275
       5     H     0.46527  0.46527  0.00000  0.06946
       6     H     0.47356  0.47356  0.00000  0.05287
       7     C     3.09124  3.09124  0.00000 -0.18249
       8     H     0.45492  0.45492  0.00000  0.09016
       9     H     0.45203  0.45203  0.00000  0.09595
      10     C     3.09451  3.09451  0.00000 -0.18903
      11     H     0.45744  0.45744  0.00000  0.08512
      12     H     0.44296  0.44296  0.00000  0.11407
      13     C     3.08952  3.08952  0.00000 -0.17904
      14     H     0.45619  0.45619  0.00000  0.08762
      15     H     0.45005  0.45005  0.00000  0.09991
      16     C     3.15250  3.15250  0.00000 -0.30500
      17     H     0.44962  0.44962  0.00000  0.10076
      18     H     0.45427  0.45427  0.00000  0.09147
      19     H     0.45597  0.45597  0.00000  0.08806
      20     H     0.45332  0.45332  0.00000  0.09337
      21     H     0.44698  0.44698  0.00000  0.10604

   Total alpha = 29.00000, Total beta = 29.00000, Total charge =  0.00000
