                              Psi4 1.0.54 Driver

  ==> Input File <==

--------------------------------------------------------------------------
set {
	reference rhf
	basis cc-pvtz
}

set_num_threads( 4 )
memory 2 gb

molecule MOL {
0 1

O	 -0.908029	 -0.802122	 2.164734
C	 -0.326325	 -0.967005	 1.146755
C	 0.912852	 -1.810028	 0.980582
O	 -0.695554	 -0.422406	 0.000602
C	 1.379344	 -2.460543	 2.272939
H	 1.681618	 -1.171133	 0.560151
H	 0.696357	 -2.552515	 0.220465
H	 1.609912	 -1.715702	 3.022785
H	 2.269366	 -3.050842	 2.091946
H	 0.615693	 -3.109649	 2.680033
C	 -1.852370	 0.402254	 0.000718
C	 -3.063338	 -0.501097	 -0.000437
H	 -1.831732	 1.039442	 -0.872158
H	 -1.832493	 1.038301	 0.874430
H	 -3.071944	 -1.133732	 -0.879113
H	 -3.966302	 0.097976	 -0.000483
H	 -3.072764	 -1.134834	 0.877435

	symmetry c1
}
set optking {
	frozen_dihedral = ("
		2 4 11 13
	")
}

ee,wfn = optimize('scf', return_wfn=True)
oeprop( wfn, 'DIPOLE', 'QUADRUPOLE', 'MULLIKEN_CHARGES')
f=open( 'psi4out.xyz', 'w' )
f.write( "17  " )
f.write( str(ee) + "\n" )
f.write( MOL.save_string_xyz() )
f.close()
--------------------------------------------------------------------------

    Molecular point group: c1
  Charge       = 0
  Multiplicity = 1
  Basis Set: CC-PVTZ
  Basis Set:
  @DF-RHF Final Energy:  -345.03749651388233
    Total Energy =                       -345.0374965138826155
    Molecular point group: c1
  Basis Set: CC-PVTZ
  Basis Set:
  Basis Set: CC-PVTZ
  Basis Set:
  @DF-RHF Final Energy:  -345.03836224370826
    Total Energy =                       -345.0383622437087752
  Basis Set: CC-PVTZ
  Basis Set:
  Basis Set: CC-PVTZ
  Basis Set:
  @DF-RHF Final Energy:  -345.03918466995799
    Total Energy =                       -345.0391846699579332
  Basis Set: CC-PVTZ
  Basis Set:
  Basis Set: CC-PVTZ
  Basis Set:
  @DF-RHF Final Energy:  -345.03729692713131
    Total Energy =                       -345.0372969271309103
  Basis Set: CC-PVTZ
  Basis Set:
  @DF-RHF Final Energy:  -345.03916272800819
    Total Energy =                       -345.0391627280084776
  Basis Set: CC-PVTZ
  Basis Set:
  @DF-RHF Final Energy:  -345.03952025915828
    Total Energy =                       -345.0395202591583939
  Basis Set: CC-PVTZ
  Basis Set:
  Basis Set: CC-PVTZ
  Basis Set:
  @DF-RHF Final Energy:  -345.03952109988285
    Total Energy =                       -345.0395210998829043
  Basis Set: CC-PVTZ
  Basis Set:
  Basis Set: CC-PVTZ
  Basis Set:
  @DF-RHF Final Energy:  -345.03952791037472
    Total Energy =                       -345.0395279103749999
  Basis Set: CC-PVTZ
  Basis Set:
  Charge       = 0
  Multiplicity = 1
  Basis Set: CC-PVTZ
  Basis Set:

    Orbital Energies (a.u.)
    -----------------------

    Doubly Occupied:

       1A    -20.592903     2A    -20.532874     3A    -11.364412
       4A    -11.282852     5A    -11.235690     6A    -11.215815
       7A    -11.213806     8A     -1.469527     9A     -1.364932
      10A     -1.069695    11A     -1.028819    12A     -0.916820
      13A     -0.854448    14A     -0.760176    15A     -0.704702
      16A     -0.683208    17A     -0.662961    18A     -0.621647
      19A     -0.611642    20A     -0.570048    21A     -0.548120
      22A     -0.533497    23A     -0.521687    24A     -0.516579
      25A     -0.497616    26A     -0.491743    27A     -0.453561
      28A     -0.438730

  @DF-RHF Final Energy:  -345.03952803518905

   => Energetics <=

    Nuclear Repulsion Energy =            319.1804134854958193
    One-Electron Energy =               -1102.9228649598303491
    Two-Electron Energy =                 438.7029234391457067
    DFT Exchange-Correlation Energy =       0.0000000000000000
    Empirical Dispersion Energy =           0.0000000000000000
    PCM Polarization Energy =               0.0000000000000000
    EFP Energy =                            0.0000000000000000
    Total Energy =                       -345.0395280351888232
    Molecular point group: c1
  Basis Set: CC-PVTZ
  Basis Set:

  -Total Gradient:
     Atom            X                  Y                   Z
    ------   -----------------  -----------------  -----------------
       1       -0.000020270382     0.000010558905     0.000010192929
       2       -0.000251898420    -0.000757717753    -0.000284818667
       3       -0.000009387796    -0.000039919568     0.000000779691
       4        0.000361652291     0.000960094254     0.000284169688
       5        0.000008460183     0.000010282017    -0.000002390055
       6        0.000007321316     0.000017278035     0.000005477000
       7        0.000010709630     0.000005504161    -0.000004114395
       8       -0.000002283185     0.000003956866     0.000001767036
       9        0.000005011381    -0.000004556726    -0.000001094420
      10       -0.000004976323    -0.000008936577     0.000001271821
      11        0.000111992273     0.000536018090     0.000546378681
      12        0.000003145211     0.000001270489     0.000007654627
      13       -0.000222405133    -0.000727067775    -0.000567536587
      14        0.000007367974    -0.000000790759     0.000006588884
      15        0.000001699229    -0.000003721551    -0.000005081454
      16       -0.000005893314     0.000000532934    -0.000001380391
      17       -0.000000244932    -0.000002785040     0.000002135608

  **** Optimization is complete! (in 9 steps) ****
    Final optimized geometry and variables:
    Molecular point group: c1

    Geometry (in Angstrom), charge = 0, multiplicity = 1:

    O           -0.356850737639    -0.015635975962     1.222074005391
    C            0.326393952441     0.034349889229     0.256006387426
    C            1.752382776598    -0.450334454881     0.177766461990
    O           -0.072226646376     0.535273902535    -0.900334714527
    C            2.268959491586    -1.025610355131     1.486650999656
    H            2.357975638437     0.386283753260    -0.152536216197
    H            1.798310058411    -1.182613234845    -0.620772960333
    H            2.236378256787    -0.287156727705     2.276496154327
    H            3.293967070281    -1.355518771530     1.368806433344
    H            1.672334710122    -1.870588640909     1.803371529093
    C           -1.403611219689     1.023079658915    -1.013660835087
    C           -2.402323794949    -0.095022361568    -1.234170891421
    H           -1.378506901744     1.679545519664    -1.870375447261
    H           -1.648799441820     1.597414432148    -0.133482574085
    H           -2.138691624022    -0.673905168106    -2.111276868807
    H           -3.388631099855     0.327438411246    -1.389986981431
    H           -2.445701348785    -0.753326055008    -0.378089588774

  Mulliken Charges: (a.u.)
   Center  Symbol    Alpha    Beta     Spin     Total
       1     O     4.19928  4.19928  0.00000 -0.39855
       2     C     2.80201  2.80201  0.00000  0.39597
       3     C     3.09387  3.09387  0.00000 -0.18774
       4     O     4.15658  4.15658  0.00000 -0.31317
       5     C     3.13982  3.13982  0.00000 -0.27965
       6     H     0.44136  0.44136  0.00000  0.11729
       7     H     0.44221  0.44221  0.00000  0.11559
       8     H     0.44850  0.44850  0.00000  0.10300
       9     H     0.45054  0.45054  0.00000  0.09893
      10     H     0.44868  0.44868  0.00000  0.10264
      11     C     2.98751  2.98751  0.00000  0.02499
      12     C     3.15056  3.15056  0.00000 -0.30111
      13     H     0.44461  0.44461  0.00000  0.11078
      14     H     0.44995  0.44995  0.00000  0.10011
      15     H     0.45248  0.45248  0.00000  0.09504
      16     H     0.45109  0.45109  0.00000  0.09783
      17     H     0.44098  0.44098  0.00000  0.11804

   Total alpha = 28.00000, Total beta = 28.00000, Total charge = -0.00000

*** Psi4 exiting successfully. Buy a developer a beer!
