                              Psi4 1.0.54 Driver

  ==> Input File <==

--------------------------------------------------------------------------
set {
	reference rhf
	basis cc-pvtz
}

set_num_threads( 4 )
memory 2 gb

molecule MOL {
0 1

O	 0.749630	 1.305591	 -0.000460
C	 0.576499	 0.134701	 -0.003900
C	 -0.765656	 -0.550508	 -0.002152
O	 1.564816	 -0.744612	 -0.000631
C	 -1.945526	 0.411052	 0.000603
H	 -0.794329	 -1.203792	 -0.868145
H	 -0.791555	 -1.205429	 0.862701
C	 -3.282915	 -0.321280	 0.002596
H	 -1.880300	 1.059126	 -0.864925
H	 -1.877207	 1.057892	 0.866807
H	 -3.388495	 -0.952755	 -0.873419
H	 -4.107811	 0.380864	 0.004116
H	 -3.385717	 -0.953283	 0.878571
C	 2.684821	 -0.459041	 0.813033
H	 3.151297	 0.465912	 0.508211
H	 3.367288	 -1.282341	 0.678482
H	 2.392985	 -0.381959	 1.849823

	symmetry c1
}
set optking {
	frozen_dihedral = ("
		14 4 2 1
	")
}

ee,wfn = optimize('scf', return_wfn=True)
oeprop( wfn, 'DIPOLE', 'QUADRUPOLE', 'MULLIKEN_CHARGES')
f=open( 'psi4out.xyz', 'w' )
f.write( "17  " )
f.write( str(ee) + "\n" )
f.write( MOL.save_string_xyz() )
f.close()
--------------------------------------------------------------------------

    Molecular point group: c1
  Charge       = 0
  Multiplicity = 1
  Basis Set: CC-PVTZ
  Basis Set:
  @DF-RHF Final Energy:  -345.02713993784067
    Total Energy =                       -345.0271399378407295
    Molecular point group: c1
  Basis Set: CC-PVTZ
  Basis Set:
  Basis Set: CC-PVTZ
  Basis Set:
  @DF-RHF Final Energy:  -344.95457729422765
    Total Energy =                       -344.9545772942276471
  Basis Set: CC-PVTZ
  Basis Set:
  Basis Set: CC-PVTZ
  Basis Set:
  @DF-RHF Final Energy:  -345.02177425984860
    Total Energy =                       -345.0217742598482573
  Basis Set: CC-PVTZ
  Basis Set:
  Basis Set: CC-PVTZ
  Basis Set:
  @DF-RHF Final Energy:  -345.02733234229129
    Total Energy =                       -345.0273323422912881
  Basis Set: CC-PVTZ
  Basis Set:
  @DF-RHF Final Energy:  -345.02733764760802
    Total Energy =                       -345.0273376476081353
  @DF-RHF Final Energy:  -345.02791138350574
    Total Energy =                       -345.0279113835059093
  @DF-RHF Final Energy:  -345.02792749469540
    Total Energy =                       -345.0279274946954047
  @DF-RHF Final Energy:  -345.02793166586758
    Total Energy =                       -345.0279316658675270
  @DF-RHF Final Energy:  -345.02793229967864
    Total Energy =                       -345.0279322996786391
  @DF-RHF Final Energy:  -345.02792889448904
    Total Energy =                       -345.0279288944889231
  @DF-RHF Final Energy:  -345.02793063232753
    Total Energy =                       -345.0279306323277524
  @DF-RHF Final Energy:  -345.02793037610155
    Total Energy =                       -345.0279303761018355
  @DF-RHF Final Energy:  -345.02793029705180
    Total Energy =                       -345.0279302970520803
  Basis Set: CC-PVTZ
  Basis Set:
  @DF-RHF Final Energy:  -345.02793191028837
    Total Energy =                       -345.0279319102881459
  Basis Set: CC-PVTZ
  Basis Set:
  Basis Set: CC-PVTZ
  Basis Set:
  @DF-RHF Final Energy:  -345.02793030182659
    Total Energy =                       -345.0279303018269275
  Basis Set: CC-PVTZ
  Basis Set:
  Basis Set: CC-PVTZ
  Basis Set:
  @DF-RHF Final Energy:  -345.02793225316827
    Total Energy =                       -345.0279322531687285
  Basis Set: CC-PVTZ
  Basis Set:
  Charge       = 0
  Multiplicity = 1
  Basis Set: CC-PVTZ
  Basis Set:

    Orbital Energies (a.u.)
    -----------------------

    Doubly Occupied:

       1A    -20.589195     2A    -20.538562     3A    -11.366372
       4A    -11.281856     5A    -11.235152     6A    -11.220624
       7A    -11.213272     8A     -1.467502     9A     -1.367454
      10A     -1.081722    11A     -0.999727    12A     -0.942907
      13A     -0.829892    14A     -0.767839    15A     -0.701958
      16A     -0.682455    17A     -0.676459    18A     -0.636821
      19A     -0.604064    20A     -0.577588    21A     -0.567590
      22A     -0.531487    23A     -0.523989    24A     -0.499960
      25A     -0.488954    26A     -0.479810    27A     -0.458295
      28A     -0.439107

  @DF-RHF Final Energy:  -345.02793259742572

   => Energetics <=

    Nuclear Repulsion Energy =            312.5595290020716561
    One-Electron Energy =               -1089.6336964321567393
    Two-Electron Energy =                 432.0462348326593087
    DFT Exchange-Correlation Energy =       0.0000000000000000
    Empirical Dispersion Energy =           0.0000000000000000
    PCM Polarization Energy =               0.0000000000000000
    EFP Energy =                            0.0000000000000000
    Total Energy =                       -345.0279325974257176
    Molecular point group: c1
  Basis Set: CC-PVTZ
  Basis Set:

  -Total Gradient:
     Atom            X                  Y                   Z
    ------   -----------------  -----------------  -----------------
       1        0.000711770111     0.003992697813    -0.008698433023
       2       -0.002758737426    -0.008602997219     0.014765105074
       3       -0.000003793765     0.000051833112    -0.000078319501
       4        0.005638746154     0.010112877461    -0.009457695062
       5       -0.000007559175     0.000018726406    -0.000002470690
       6       -0.000008932387     0.000006721105     0.000033566600
       7        0.000002711342     0.000012236982    -0.000020528895
       8       -0.000002914326    -0.000013947682    -0.000002502876
       9       -0.000008545698    -0.000019456094     0.000012243807
      10        0.000000748090    -0.000010230122    -0.000023867959
      11       -0.000001413671     0.000010343386     0.000024217154
      12       -0.000004463006    -0.000004479448    -0.000004200908
      13        0.000004953238     0.000020316730    -0.000012320322
      14       -0.003540820645    -0.005578670492     0.003520437401
      15       -0.000031309659    -0.000037962958    -0.000008565534
      16       -0.000007476219     0.000015392808     0.000010549611
      17        0.000017037043     0.000026598214    -0.000057214879

  **** Optimization is complete! (in 17 steps) ****
    Final optimized geometry and variables:
    Molecular point group: c1

    Geometry (in Angstrom), charge = 0, multiplicity = 1:

    O            0.724100386479     1.226284018437     0.597540945628
    C            0.589771911308     0.155409228919     0.117607627943
    C           -0.712891187982    -0.422079791776    -0.369285004939
    O            1.613898667070    -0.657753108740    -0.142920621399
    C           -1.886277377891     0.544047250616    -0.294856925710
    H           -0.549859868580    -0.771936113748    -1.383080923195
    H           -0.902829964690    -1.314370732561     0.220972697659
    C           -3.182884417618    -0.086148932023    -0.791421885775
    H           -1.658040822555     1.427502522705    -0.879301765251
    H           -2.006805601497     0.882069220884     0.727052727188
    H           -3.096790964408    -0.404244132334    -1.825166753871
    H           -4.003215740125     0.618754966659    -0.730656248269
    H           -3.450666751494    -0.955848620177    -0.200340087484
    C            2.655575166189    -0.717315840420     0.810645006387
    H            3.132593806217     0.243829964447     0.927164518910
    H            3.364873332541    -1.439275884659     0.440015483137
    H            2.269123594255    -1.045438603983     1.766789804016

  Mulliken Charges: (a.u.)
   Center  Symbol    Alpha    Beta     Spin     Total
       1     O     4.18704  4.18704  0.00000 -0.37407
       2     C     2.80211  2.80211  0.00000  0.39578
       3     C     3.09802  3.09802  0.00000 -0.19603
       4     O     4.15579  4.15579  0.00000 -0.31158
       5     C     3.07990  3.07990  0.00000 -0.15979
       6     H     0.43842  0.43842  0.00000  0.12317
       7     H     0.44506  0.44506  0.00000  0.10988
       8     C     3.15078  3.15078  0.00000 -0.30156
       9     H     0.44694  0.44694  0.00000  0.10612
      10     H     0.44611  0.44611  0.00000  0.10778
      11     H     0.45550  0.45550  0.00000  0.08900
      12     H     0.44553  0.44553  0.00000  0.10895
      13     H     0.45612  0.45612  0.00000  0.08777
      14     C     3.03709  3.03709  0.00000 -0.07419
      15     H     0.44692  0.44692  0.00000  0.10617
      16     H     0.44538  0.44538  0.00000  0.10923
      17     H     0.46331  0.46331  0.00000  0.07338

   Total alpha = 28.00000, Total beta = 28.00000, Total charge = -0.00000

*** Psi4 exiting successfully. Buy a developer a beer!
