                              Psi4 1.0.54 Driver

  ==> Input File <==

--------------------------------------------------------------------------
set {
	reference rhf
	basis cc-pvtz
}

set_num_threads( 4 )
memory 2 gb

molecule MOL {
0 1

O	 0.813808	 -1.447904	 -2.066420
C	 0.141544	 -1.327562	 -1.100263
C	 -1.265242	 -1.834763	 -0.961141
O	 0.550743	 -0.719877	 0.000412
H	 -1.321150	 -2.526656	 -0.130742
H	 -1.564837	 -2.323849	 -1.873594
H	 -1.929349	 -1.007837	 -0.745289
C	 1.863204	 -0.194033	 0.000410
H	 2.031502	 0.409177	 -0.879273
H	 2.524488	 -1.045142	 0.000793
H	 2.031291	 0.409823	 0.879686

	symmetry c1
}
set optking {
	frozen_dihedral = ("
		2 4 8 9
	")
}

ee,wfn = optimize('scf', return_wfn=True)
oeprop( wfn, 'DIPOLE', 'QUADRUPOLE', 'MULLIKEN_CHARGES')
f=open( 'psi4out.xyz', 'w' )
f.write( "11  " )
f.write( str(ee) + "\n" )
f.write( MOL.save_string_xyz() )
f.close()
--------------------------------------------------------------------------

    Molecular point group: c1
  Charge       = 0
  Multiplicity = 1
  Basis Set: CC-PVTZ
  Basis Set:
  @DF-RHF Final Energy:  -266.93760375674003
    Total Energy =                       -266.9376037567398612
    Molecular point group: c1
  Basis Set: CC-PVTZ
  Basis Set:
  Basis Set: CC-PVTZ
  Basis Set:
  @DF-RHF Final Energy:  -266.93873931809446
    Total Energy =                       -266.9387393180944059
  Basis Set: CC-PVTZ
  Basis Set:
  Basis Set: CC-PVTZ
  Basis Set:
  @DF-RHF Final Energy:  -266.93871225531575
    Total Energy =                       -266.9387122553158633
  Basis Set: CC-PVTZ
  Basis Set:
  Basis Set: CC-PVTZ
  Basis Set:
  @DF-RHF Final Energy:  -266.93902756105558
    Total Energy =                       -266.9390275610555818
  Basis Set: CC-PVTZ
  Basis Set:
  Basis Set: CC-PVTZ
  Basis Set:
  @DF-RHF Final Energy:  -266.93906874422453
    Total Energy =                       -266.9390687442244143
  Basis Set: CC-PVTZ
  Basis Set:
  Charge       = 0
  Multiplicity = 1
  Basis Set: CC-PVTZ
  Basis Set:

    Orbital Energies (a.u.)
    -----------------------

    Doubly Occupied:

       1A    -20.598752     2A    -20.535246     3A    -11.368938
       4A    -11.279929     5A    -11.233186     6A     -1.474147
       7A     -1.367710     8A     -1.037034     9A     -0.953754
      10A     -0.780231    11A     -0.698343    12A     -0.684310
      13A     -0.681185    14A     -0.595840    15A     -0.593603
      16A     -0.561956    17A     -0.527162    18A     -0.525158
      19A     -0.462080    20A     -0.445943

  @DF-RHF Final Energy:  -266.93907307546817

   => Energetics <=

    Nuclear Repulsion Energy =            183.6779752037051594
    One-Electron Energy =                -728.4250841675407173
    Two-Electron Energy =                 277.8080358883673853
    DFT Exchange-Correlation Energy =       0.0000000000000000
    Empirical Dispersion Energy =           0.0000000000000000
    PCM Polarization Energy =               0.0000000000000000
    EFP Energy =                            0.0000000000000000
    Total Energy =                       -266.9390730754681726
    Molecular point group: c1
  Basis Set: CC-PVTZ
  Basis Set:

  -Total Gradient:
     Atom            X                  Y                   Z
    ------   -----------------  -----------------  -----------------
       1       -0.000008980226    -0.000040497371    -0.000055741428
       2       -0.000312792900     0.000732510367    -0.000190289526
       3        0.000008684498    -0.000001449152    -0.000014049698
       4        0.000429096358    -0.001227344427     0.000284592014
       5        0.000008676904     0.000010029417    -0.000015497595
       6        0.000004104874     0.000004451583     0.000008047014
       7        0.000015163890    -0.000009737762    -0.000002839753
       8       -0.000500972310     0.001280057253     0.000376856824
       9        0.000327098043    -0.000724511467    -0.000435280740
      10        0.000056066801    -0.000056039210     0.000001905010
      11       -0.000026145932     0.000032530769     0.000042297875

  **** Optimization is complete! (in 6 steps) ****
    Final optimized geometry and variables:
    Molecular point group: c1

    Geometry (in Angstrom), charge = 0, multiplicity = 1:

    O            0.368366096473    -0.361260954185    -1.250833217801
    C           -0.298749641610    -0.232898177771    -0.282109468812
    C           -1.710448920172    -0.724689817165    -0.138169553405
    O            0.120432396299     0.369009566941     0.818018405548
    H           -1.770643395444    -1.415911382633     0.692465063990
    H           -2.018316586899    -1.210759657231    -1.049467923361
    H           -2.364843109177     0.109294176742     0.079974315909
    C            1.431566465225     0.898507819398     0.812933527060
    H            1.595060845969     1.508431043139    -0.061840281135
    H            2.159774465703     0.099802448198     0.822758368334
    H            1.519147403137     1.489624793040     1.709925691643

  Mulliken Charges: (a.u.)
   Center  Symbol    Alpha    Beta     Spin     Total
       1     O     4.19683  4.19683  0.00000 -0.39365
       2     C     2.80149  2.80149  0.00000  0.39703
       3     C     3.13811  3.13811  0.00000 -0.27621
       4     O     4.14787  4.14787  0.00000 -0.29573
       5     H     0.44527  0.44527  0.00000  0.10946
       6     H     0.43787  0.43787  0.00000  0.12427
       7     H     0.44561  0.44561  0.00000  0.10878
       8     C     3.03357  3.03357  0.00000 -0.06714
       9     H     0.45200  0.45200  0.00000  0.09601
      10     H     0.45570  0.45570  0.00000  0.08859
      11     H     0.44570  0.44570  0.00000  0.10859

   Total alpha = 20.00000, Total beta = 20.00000, Total charge =  0.00000

*** Psi4 exiting successfully. Buy a developer a beer!
