  ==> Input File <==

--------------------------------------------------------------------------
set {
	reference rhf
	basis 6-31G*
}

set_num_threads( 1 )
memory 2 gb

molecule MOL {
0 1

H	 1.500235	 -1.325766	 0.692987
O	 1.586534	 -0.678666	 -0.000226
C	 0.489431	 0.077273	 0.000046
C	 -0.764129	 -0.759190	 0.000191
O	 0.537743	 1.263962	 0.000257
C	 -2.038368	 0.075731	 -0.000248
H	 -0.717284	 -1.412404	 -0.866059
H	 -0.717458	 -1.411724	 0.866967
H	 -2.086483	 0.712501	 -0.875098
H	 -2.908485	 -0.571682	 -0.000042
H	 -2.086576	 0.713280	 0.874068

	symmetry c1
}
set optking {
	frozen_dihedral = ("
		2 3 4 7
	")
}

ee = energy('scf')
oeprop('DIPOLE', 'QUADRUPOLE', 'MULLIKEN_CHARGES')
f=open( 'psi4out.xyz', 'w' )
f.write( "11  " )
f.write( str(ee) + "\n" )
f.write( MOL.save_string_xyz() )
f.close()
--------------------------------------------------------------------------

    Molecular point group: c1

    Geometry (in Angstrom), charge = 0, multiplicity = 1:

       Center              X                  Y                   Z               Mass
    ------------   -----------------  -----------------  -----------------  -----------------
           H          1.511717327936    -1.309097836367     0.683551038443     1.007825032070
           O          1.598016327936    -0.661997836367    -0.009661961557    15.994914619560
           C          0.500913327936     0.093941163633    -0.009389961557    12.000000000000
           C         -0.752646672064    -0.742521836367    -0.009244961557    12.000000000000
           O          0.549225327936     1.280630163633    -0.009178961557    15.994914619560
           C         -2.026885672064     0.092399163633    -0.009683961557    12.000000000000
           H         -0.705801672064    -1.395735836367    -0.875494961557     1.007825032070
           H         -0.705975672064    -1.395055836367     0.857531038443     1.007825032070
           H         -2.075000672064     0.729169163633    -0.884533961557     1.007825032070
           H         -2.897002672064    -0.555013836367    -0.009477961557     1.007825032070
           H         -2.075093672064     0.729948163633     0.864632038443     1.007825032070

  Charge       = 0
  Multiplicity = 1
  Basis Set: 6-31G*
  Basis Set:

    Orbital Energies (a.u.)
    -----------------------

    Doubly Occupied:

       1A    -20.607337     2A    -20.557164     3A    -11.381462
       4A    -11.251749     5A    -11.224831     6A     -1.470642
       7A     -1.372121     8A     -1.068942     9A     -0.909793
      10A     -0.821892    11A     -0.717823    12A     -0.674496
      13A     -0.660615    14A     -0.619582    15A     -0.580426
      16A     -0.533632    17A     -0.523044    18A     -0.508604
      19A     -0.483382    20A     -0.445033

  @DF-RHF Final Energy:  -266.82658821639279

   => Energetics <=

    Nuclear Repulsion Energy =            179.9622005078511506
    One-Electron Energy =                -720.7524408384286971
    Two-Electron Energy =                 273.9636521141846970
    DFT Exchange-Correlation Energy =       0.0000000000000000
    Empirical Dispersion Energy =           0.0000000000000000
    PCM Polarization Energy =               0.0000000000000000
    EFP Energy =                            0.0000000000000000
    Total Energy =                       -266.8265882163927927

  Mulliken Charges: (a.u.)
   Center  Symbol    Alpha    Beta     Spin     Total
       1     H     0.26865  0.26865  0.00000  0.46270
       2     O     4.35056  4.35056  0.00000 -0.70112
       3     C     2.62328  2.62328  0.00000  0.75345
       4     C     3.22043  3.22043  0.00000 -0.44085
       5     O     4.25744  4.25744  0.00000 -0.51488
       6     C     3.23900  3.23900  0.00000 -0.47800
       7     H     0.39548  0.39548  0.00000  0.20904
       8     H     0.41343  0.41343  0.00000  0.17314
       9     H     0.40597  0.40597  0.00000  0.18805
      10     H     0.41720  0.41720  0.00000  0.16560
      11     H     0.40856  0.40856  0.00000  0.18288

   Total alpha = 20.00000, Total beta = 20.00000, Total charge = -0.00000
