  ==> Input File <==

--------------------------------------------------------------------------
set {
	reference rhf
	basis cc-pvtz
}

set_num_threads( 4 )
memory 2 gb

molecule MOL {
0 1

H	 -2.698799	 -0.000846	 0.036018
C	 -1.694291	 -0.000483	 0.434279
O	 -0.828718	 -0.000608	 -0.655022
H	 -1.576855	 0.881100	 1.056504
H	 -1.576401	 -0.881658	 1.057001
C	 0.557892	 0.000078	 -0.420099
C	 1.346564	 0.614601	 -1.571025
C	 0.923538	 0.615547	 0.925914
H	 0.802304	 -1.054025	 -0.378293
H	 1.035624	 0.182395	 -2.514197
H	 2.404036	 0.417292	 -1.438484
H	 1.219761	 1.689483	 -1.626999
H	 0.319299	 0.183949	 1.714369
H	 1.965672	 0.418378	 1.149197
H	 0.785406	 1.690421	 0.936219

	symmetry c1
}
set optking {
	frozen_dihedral = ("
		9 6 3 2
	")
}

ee = optimize('scf')
oeprop('DIPOLE', 'QUADRUPOLE', 'MULLIKEN_CHARGES')
f=open( 'psi4out.xyz', 'w' )
f.write( "15  " )
f.write( str(ee) + "\n" )
f.write( MOL.save_string_xyz() )
f.close()
--------------------------------------------------------------------------

    Molecular point group: c1
  Charge       = 0
  Multiplicity = 1
  Basis Set: CC-PVTZ
  Basis Set:
  @DF-RHF Final Energy:  -232.22020003540837
    Total Energy =                       -232.2202000354084817
    Molecular point group: c1
  Basis Set: CC-PVTZ
  Basis Set:
  Basis Set: CC-PVTZ
  Basis Set:
  @DF-RHF Final Energy:  -232.22324823665136
    Total Energy =                       -232.2232482366513295
  Basis Set: CC-PVTZ
  Basis Set:
  Basis Set: CC-PVTZ
  Basis Set:
  @DF-RHF Final Energy:  -232.22534882502214
    Total Energy =                       -232.2253488250222517
  Basis Set: CC-PVTZ
  Basis Set:
  Basis Set: CC-PVTZ
  Basis Set:
  @DF-RHF Final Energy:  -232.22543418131525
    Total Energy =                       -232.2254341813151086
  Basis Set: CC-PVTZ
  Basis Set:
  Basis Set: CC-PVTZ
  Basis Set:
  @DF-RHF Final Energy:  -232.22548667660149
    Total Energy =                       -232.2254866766014629
  Basis Set: CC-PVTZ
  Basis Set:
  Basis Set: CC-PVTZ
  Basis Set:
  @DF-RHF Final Energy:  -232.22549204482726
    Total Energy =                       -232.2254920448273197
  Basis Set: CC-PVTZ
  Basis Set:
  Charge       = 0
  Multiplicity = 1
  Basis Set: CC-PVTZ
  Basis Set:

    Orbital Energies (a.u.)
    -----------------------

    Doubly Occupied:

       1A    -20.541880     2A    -11.273161     3A    -11.259858
       4A    -11.212434     5A    -11.203247     6A     -1.373898
       7A     -1.054345     8A     -0.949952     9A     -0.913504
      10A     -0.786097    11A     -0.678107    12A     -0.642804
      13A     -0.632783    14A     -0.592936    15A     -0.550959
      16A     -0.543091    17A     -0.526312    18A     -0.502690
      19A     -0.495560    20A     -0.450932    21A     -0.406471

  @DF-RHF Final Energy:  -232.22549239069349

   => Energetics <=

    Nuclear Repulsion Energy =            198.1625094608185123
    One-Electron Energy =                -707.5939596228708979
    Two-Electron Energy =                 277.2059577713587259
    DFT Exchange-Correlation Energy =       0.0000000000000000
    Empirical Dispersion Energy =           0.0000000000000000
    PCM Polarization Energy =               0.0000000000000000
    EFP Energy =                            0.0000000000000000
    Total Energy =                       -232.2254923906936597
    Molecular point group: c1
  Basis Set: CC-PVTZ
  Basis Set:

  -Total Gradient:
     Atom            X                  Y                   Z
    ------   -----------------  -----------------  -----------------
       1        0.000000030570     0.000002837976    -0.000011894063
       2        0.000231368503     0.004368220772     0.000248664578
       3       -0.000056791627    -0.006446362023    -0.001540171346
       4        0.000008728868     0.000002709846    -0.000013701161
       5        0.000001847605    -0.000004283051     0.000002107957
       6       -0.001238572235     0.001834693996     0.006303266300
       7       -0.000032952747    -0.000004927728    -0.000019180405
       8       -0.000013465299     0.000004657560     0.000030796449
       9        0.001108908691     0.000240083407    -0.004990165135
      10        0.000003830191     0.000012605422    -0.000029433462
      11       -0.000011810829    -0.000011398694     0.000006003849
      12        0.000003487261    -0.000009986177     0.000011059405
      13        0.000010627676     0.000008402874     0.000008981757
      14       -0.000013952633    -0.000007916298    -0.000014117501
      15       -0.000001283997     0.000010662117     0.000007782779

  **** Optimization is complete! (in 7 steps) ****
    Final optimized geometry and variables:
    Molecular point group: c1

    Geometry (in Angstrom), charge = 0, multiplicity = 1:

    H           -2.753537384712    -0.220570001578     0.146852356963
    C           -1.775713914330    -0.214068848947     0.607134260380
    O           -0.844982708304    -0.202118687916    -0.424363242137
    H           -1.703035979580     0.662073169330     1.241951908663
    H           -1.687595087412    -1.101824894779     1.230186575679
    C            0.527252803987    -0.292991518169    -0.124349000884
    C            1.253893318543     0.340913218288    -1.300529453009
    C            0.941462910869     0.349526216180     1.192032984474
    H            0.798709777669    -1.348406915803    -0.114574452508
    H            0.924819981804    -0.111353222915    -2.227034495799
    H            2.325399713337     0.202584125790    -1.210903716214
    H            1.043918824893     1.403275426119    -1.349019225494
    H            0.486587130300    -0.129006454085     2.049293160580
    H            2.015657060137     0.264489147450     1.302419500748
    H            0.685046769016     1.403046732477     1.209188480705

  Mulliken Charges: (a.u.)
   Center  Symbol    Alpha    Beta     Spin     Total
       1     H     0.44303  0.44303  0.00000  0.11393
       2     C     3.03897  3.03897  0.00000 -0.07793
       3     O     4.18339  4.18339  0.00000 -0.36677
       4     H     0.46864  0.46864  0.00000  0.06272
       5     H     0.47131  0.47131  0.00000  0.05737
       6     C     2.92140  2.92140  0.00000  0.15721
       7     C     3.13983  3.13983  0.00000 -0.27966
       8     C     3.16858  3.16858  0.00000 -0.33715
       9     H     0.46189  0.46189  0.00000  0.07621
      10     H     0.44596  0.44596  0.00000  0.10809
      11     H     0.46001  0.46001  0.00000  0.07997
      12     H     0.45627  0.45627  0.00000  0.08746
      13     H     0.44581  0.44581  0.00000  0.10838
      14     H     0.44482  0.44482  0.00000  0.11036
      15     H     0.45009  0.45009  0.00000  0.09981

   Total alpha = 21.00000, Total beta = 21.00000, Total charge =  0.00000
