  ==> Input File <==

--------------------------------------------------------------------------
set {
	reference rhf
	basis 6-31G*
}

set_num_threads( 4 )
memory 2 gb

molecule MOL {
0 1

H	 -0.185418	 2.450629	 -0.592514
C	 0.660021	 1.774923	 -0.730146
N	 0.538815	 0.649616	 0.000000
O	 1.571051	 2.041767	 -1.456801
C	 1.521968	 -0.411503	 0.000000
H	 -0.272167	 0.550539	 0.566371
H	 2.150599	 -0.357004	 -0.881901
H	 0.999455	 -1.354525	 0.000000
H	 2.150599	 -0.357004	 0.881901

	symmetry c1
}
set optking {
	frozen_dihedral = ("
		6 3 5 7
	")
}

ee = optimize('scf')
oeprop('DIPOLE', 'QUADRUPOLE', 'MULLIKEN_CHARGES')
f=open( 'psi4out.xyz', 'w' )
f.write( "9  " )
f.write( str(ee) + "\n" )
f.write( MOL.save_string_xyz() )
f.close()
--------------------------------------------------------------------------

    Molecular point group: c1
  Charge       = 0
  Multiplicity = 1
  Basis Set: 6-31G*
  Basis Set:
  @DF-RHF Final Energy:  -207.96060758955176
    Total Energy =                       -207.9606075895517847
    Molecular point group: c1
  Basis Set: 6-31G*
  Basis Set:
  Basis Set: 6-31G*
  Basis Set:
  @DF-RHF Final Energy:  -207.96091751292516
    Total Energy =                       -207.9609175129251355
  Basis Set: 6-31G*
  Basis Set:
  Basis Set: 6-31G*
  Basis Set:
  @DF-RHF Final Energy:  -207.96093231717134
    Total Energy =                       -207.9609323171713413
  Basis Set: 6-31G*
  Basis Set:
  Basis Set: 6-31G*
  Basis Set:
  @DF-RHF Final Energy:  -207.96099233450650
    Total Energy =                       -207.9609923345064146
  Basis Set: 6-31G*
  Basis Set:
  @DF-RHF Final Energy:  -207.96100420471507
    Total Energy =                       -207.9610042047150955
  Basis Set: 6-31G*
  Basis Set:
  @DF-RHF Final Energy:  -207.96101349727303
    Total Energy =                       -207.9610134972731430
  Basis Set: 6-31G*
  Basis Set:
  Basis Set: 6-31G*
  Basis Set:
  @DF-RHF Final Energy:  -207.96103301520165
    Total Energy =                       -207.9610330152016502
  Basis Set: 6-31G*
  Basis Set:
  Basis Set: 6-31G*
  Basis Set:
  @DF-RHF Final Energy:  -207.96104036811235
    Total Energy =                       -207.9610403681122364
  Basis Set: 6-31G*
  Basis Set:
  Charge       = 0
  Multiplicity = 1
  Basis Set: 6-31G*
  Basis Set:

    Orbital Energies (a.u.)
    -----------------------

    Doubly Occupied:

       1A    -20.526051     2A    -15.590808     3A    -11.343835
       4A    -11.260565     5A     -1.389385     6A     -1.236426
       7A     -0.968230     8A     -0.807393     9A     -0.746411
      10A     -0.641601    11A     -0.626518    12A     -0.592996
      13A     -0.555601    14A     -0.535597    15A     -0.424123
      16A     -0.391005

  @DF-RHF Final Energy:  -207.96104042556158

   => Energetics <=

    Nuclear Repulsion Energy =            122.5512728257923385
    One-Electron Energy =                -525.7515391367697930
    Two-Electron Energy =                 195.2392258854158911
    DFT Exchange-Correlation Energy =       0.0000000000000000
    Empirical Dispersion Energy =           0.0000000000000000
    PCM Polarization Energy =               0.0000000000000000
    EFP Energy =                            0.0000000000000000
    Total Energy =                       -207.9610404255615492
    Molecular point group: c1
  Basis Set: 6-31G*
  Basis Set:

  -Total Gradient:
     Atom            X                  Y                   Z
    ------   -----------------  -----------------  -----------------
       1        0.000002252385     0.000004754984    -0.000003894734
       2       -0.000024929336    -0.000040245124     0.000033902823
       3       -0.000071787030    -0.000054483522    -0.000138510043
       4        0.000024102287     0.000016852750    -0.000021386491
       5       -0.000078603968    -0.000073474322    -0.000036923402
       6        0.000070804423     0.000067844547     0.000107424573
       7        0.000078397914     0.000080254353     0.000056345473
       8       -0.000001202103    -0.000002959814     0.000001802647
       9        0.000000965430     0.000001456149     0.000001239152

  **** Optimization is complete! (in 9 steps) ****
    Final optimized geometry and variables:
    Molecular point group: c1

    Geometry (in Angstrom), charge = 0, multiplicity = 1:

    H           -1.255175793053     1.462076955253    -0.060283519916
    C           -0.412099977217     0.780055396374    -0.180942399758
    N           -0.585140224612    -0.377909160848     0.485119763801
    O            0.537913058042     1.058517711659    -0.850985177579
    C            0.426459797224    -1.411502482318     0.529301612669
    H           -1.375495460647    -0.455870816990     1.082935442607
    H            1.001093217419    -1.374363860774    -0.383000919822
    H           -0.049933268909    -2.380381439944     0.608679626211
    H            1.101604040277    -1.281570543378     1.369144294968

  Mulliken Charges: (a.u.)
   Center  Symbol    Alpha    Beta     Spin     Total
       1     H     0.42720  0.42720  0.00000  0.14559
       2     C     2.74606  2.74606  0.00000  0.50788
       3     N     3.87419  3.87419  0.00000 -0.74838
       4     O     4.28353  4.28353  0.00000 -0.56707
       5     C     3.14162  3.14162  0.00000 -0.28324
       6     H     0.30941  0.30941  0.00000  0.38119
       7     H     0.39068  0.39068  0.00000  0.21864
       8     H     0.41440  0.41440  0.00000  0.17119
       9     H     0.41290  0.41290  0.00000  0.17419

   Total alpha = 16.00000, Total beta = 16.00000, Total charge = -0.00000
