  ==> Input File <==

--------------------------------------------------------------------------
set {
	reference rhf
	basis 6-31G*
}

set_num_threads( 4 )
memory 2 gb

molecule MOL {
0 1

H	 1.161285	 -0.862427	 1.086619
O	 1.333058	 -0.590205	 0.195416
C	 0.709265	 0.639550	 -0.033818
C	 -0.793441	 0.596080	 0.058728
H	 1.003949	 0.946916	 -1.030758
H	 1.087364	 1.398714	 0.650095
C	 -1.530462	 -0.493172	 -0.025500
H	 -1.268471	 1.554324	 0.202247
H	 -1.092586	 -1.461565	 -0.186463
H	 -2.602122	 -0.450675	 0.050101

	symmetry c1
}
set optking {
	frozen_dihedral = ("
		5 3 4 7
	")
}

ee = optimize('scf')
oeprop('DIPOLE', 'QUADRUPOLE', 'MULLIKEN_CHARGES')
f=open( 'psi4out.xyz', 'w' )
f.write( "10  " )
f.write( str(ee) + "\n" )
f.write( MOL.save_string_xyz() )
f.close()
--------------------------------------------------------------------------

    Molecular point group: c1
  Charge       = 0
  Multiplicity = 1
  Basis Set: 6-31G*
  Basis Set:
  @DF-RHF Final Energy:  -191.91678564086908
    Total Energy =                       -191.9167856408690511
    Molecular point group: c1
  Basis Set: 6-31G*
  Basis Set:
  Basis Set: 6-31G*
  Basis Set:
  @DF-RHF Final Energy:  -191.91689676801616
    Total Energy =                       -191.9168967680161870
  Basis Set: 6-31G*
  Basis Set:
  Basis Set: 6-31G*
  Basis Set:
  @DF-RHF Final Energy:  -191.91693266372721
    Total Energy =                       -191.9169326637271524
  Basis Set: 6-31G*
  Basis Set:
  Charge       = 0
  Multiplicity = 1
  Basis Set: 6-31G*
  Basis Set:

    Orbital Energies (a.u.)
    -----------------------

    Doubly Occupied:

       1A    -20.559571     2A    -11.277727     3A    -11.231021
       4A    -11.220147     5A     -1.367953     6A     -1.057855
       7A     -0.927375     8A     -0.770016     9A     -0.684967
      10A     -0.661612    11A     -0.613394    12A     -0.571876
      13A     -0.541534    14A     -0.487600    15A     -0.448305
      16A     -0.365295

  @DF-RHF Final Energy:  -191.91693294109712

   => Energetics <=

    Nuclear Repulsion Energy =            119.3620178556542584
    One-Electron Energy =                -496.9854063904141412
    Two-Electron Energy =                 185.7064555936628381
    DFT Exchange-Correlation Energy =       0.0000000000000000
    Empirical Dispersion Energy =           0.0000000000000000
    PCM Polarization Energy =               0.0000000000000000
    EFP Energy =                            0.0000000000000000
    Total Energy =                       -191.9169329410970590
    Molecular point group: c1
  Basis Set: 6-31G*
  Basis Set:

  -Total Gradient:
     Atom            X                  Y                   Z
    ------   -----------------  -----------------  -----------------
       1       -0.000015130493     0.000045532880    -0.000022968412
       2        0.000004278279     0.000010152309    -0.000053465808
       3       -0.000054099232     0.002083709721    -0.000093247092
       4        0.000163544191    -0.000663792484     0.002249960632
       5        0.000018735646    -0.001672685038    -0.000484414535
       6       -0.000015450301     0.000009829276    -0.000013283132
       7       -0.000104033895     0.000180816064    -0.001564563197
       8       -0.000001931184     0.000002378340     0.000005641796
       9        0.000001395201    -0.000000064407    -0.000009576300
      10        0.000002691785     0.000004123338    -0.000014083953

  **** Optimization is complete! (in 4 steps) ****
    Final optimized geometry and variables:
    Molecular point group: c1

    Geometry (in Angstrom), charge = 0, multiplicity = 1:

    H            1.107281660368    -0.908744225282     0.984521163744
    O            1.324398767990    -0.601036644806     0.114880960829
    C            0.705741133300     0.636076117141    -0.096714487546
    C           -0.798411010104     0.588532112991    -0.002801888189
    H            0.998339093578     0.940304015503    -1.095085355635
    H            1.090888617036     1.385326294967     0.592948864461
    C           -1.524838054345    -0.508450643939    -0.083247526740
    H           -1.284516602133     1.545272109492     0.108400084836
    H           -1.073880704404    -1.475635436047    -0.212982067552
    H           -2.597891774242    -0.474800733350    -0.024908428944

  Mulliken Charges: (a.u.)
   Center  Symbol    Alpha    Beta     Spin     Total
       1     H     0.28157  0.28157  0.00000  0.43685
       2     O     4.36746  4.36746  0.00000 -0.73492
       3     C     2.99837  2.99837  0.00000  0.00326
       4     C     3.09948  3.09948  0.00000 -0.19895
       5     H     0.40753  0.40753  0.00000  0.18494
       6     H     0.42592  0.42592  0.00000  0.14817
       7     C     3.19480  3.19480  0.00000 -0.38960
       8     H     0.40982  0.40982  0.00000  0.18036
       9     H     0.40409  0.40409  0.00000  0.19181
      10     H     0.41096  0.41096  0.00000  0.17808

   Total alpha = 16.00000, Total beta = 16.00000, Total charge = -0.00000
