  ==> Input File <==

--------------------------------------------------------------------------
set {
	reference rhf
	basis 6-31G*
}

set_num_threads( 4 )
memory 2 gb

molecule MOL {
0 1

O	 3.225979	 0.970355	 -0.599647
C	 2.701189	 0.057885	 -0.047330
C	 1.245376	 -0.013843	 0.345420
O	 3.347903	 -1.046386	 0.304773
C	 0.952833	 -1.111270	 1.366297
H	 0.966008	 0.968196	 0.712493
H	 0.672000	 -0.164305	 -0.565788
C	 -0.535624	 -1.266165	 1.696448
H	 1.512656	 -0.913730	 2.275524
H	 1.330855	 -2.051889	 0.980607
C	 -1.163098	 -0.073022	 2.422943
H	 -0.652558	 -2.151443	 2.317200
H	 -1.091302	 -1.464469	 0.781075
C	 -2.617871	 -0.320576	 2.827113
H	 -0.576492	 0.153166	 3.312072
H	 -1.119388	 0.813558	 1.794422
C	 -3.256816	 0.867031	 3.549241
H	 -2.668698	 -1.199291	 3.467826
H	 -3.202839	 -0.557362	 1.939733
C	 -4.708333	 0.610263	 3.952815
H	 -2.672943	 1.105624	 4.435699
H	 -3.210875	 1.745281	 2.908658
H	 -5.133340	 1.469651	 4.462155
H	 -4.784167	 -0.241807	 4.622456
H	 -5.326021	 0.402186	 3.083655
C	 4.728119	 -1.109107	 -0.004993
H	 4.882018	 -1.033965	 -1.071845
H	 5.068212	 -2.067527	 0.355250
H	 5.265056	 -0.311663	 0.488280

	symmetry c1
}
set optking {
	frozen_dihedral = ("
		6 3 2 1
	")
}

ee = optimize('scf')
oeprop('DIPOLE', 'QUADRUPOLE', 'MULLIKEN_CHARGES')
f=open( 'psi4out.xyz', 'w' )
f.write( "29  " )
f.write( str(ee) + "\n" )
f.write( MOL.save_string_xyz() )
f.close()
--------------------------------------------------------------------------

    Molecular point group: c1
  Charge       = 0
  Multiplicity = 1
  Basis Set: 6-31G*
  Basis Set:
  @DF-RHF Final Energy:  -501.04006717375137
    Total Energy =                       -501.0400671737518223
    Molecular point group: c1
  Basis Set: 6-31G*
  Basis Set:
  Basis Set: 6-31G*
  Basis Set:
  @DF-RHF Final Energy:  -501.04052156252999
    Total Energy =                       -501.0405215625305573
  Basis Set: 6-31G*
  Basis Set:
  Basis Set: 6-31G*
  Basis Set:
  @DF-RHF Final Energy:  -501.04144988391658
    Total Energy =                       -501.0414498839161297
  Basis Set: 6-31G*
  Basis Set:
  Basis Set: 6-31G*
  Basis Set:
  @DF-RHF Final Energy:  -501.04148641453412
    Total Energy =                       -501.0414864145345746
  Basis Set: 6-31G*
  Basis Set:
  Basis Set: 6-31G*
  Basis Set:
  @DF-RHF Final Energy:  -501.04154013929019
    Total Energy =                       -501.0415401392904187
  Basis Set: 6-31G*
  Basis Set:
  Basis Set: 6-31G*
  Basis Set:
  @DF-RHF Final Energy:  -501.04155475478808
    Total Energy =                       -501.0415547547889901
  Basis Set: 6-31G*
  Basis Set:
  Charge       = 0
  Multiplicity = 1
  Basis Set: 6-31G*
  Basis Set:

    Orbital Energies (a.u.)
    -----------------------

    Doubly Occupied:

       1A    -20.606116     2A    -20.540227     3A    -11.372017
       4A    -11.281396     5A    -11.234784     6A    -11.223161
       7A    -11.219850     8A    -11.216952     9A    -11.216149
      10A    -11.215159    11A    -11.209262    12A     -1.469917
      13A     -1.360462    14A     -1.099784    15A     -1.067766
      16A     -1.018503    17A     -0.973698    18A     -0.932350
      19A     -0.864953    20A     -0.799462    21A     -0.790873
      22A     -0.773337    23A     -0.697421    24A     -0.682074
      25A     -0.670202    26A     -0.651299    27A     -0.628953
      28A     -0.605392    29A     -0.591566    30A     -0.578149
      31A     -0.563873    32A     -0.550556    33A     -0.536036
      34A     -0.531468    35A     -0.520387    36A     -0.512381
      37A     -0.498523    38A     -0.482562    39A     -0.472673
      40A     -0.464678    41A     -0.462859    42A     -0.452501
      43A     -0.443081    44A     -0.425744

  @DF-RHF Final Energy:  -501.04155470794649

   => Energetics <=

    Nuclear Repulsion Energy =            612.2638386111791533
    One-Electron Energy =               -1895.5936822844664675
    Two-Electron Energy =                 782.2882889653411667
    DFT Exchange-Correlation Energy =       0.0000000000000000
    Empirical Dispersion Energy =           0.0000000000000000
    PCM Polarization Energy =               0.0000000000000000
    EFP Energy =                            0.0000000000000000
    Total Energy =                       -501.0415547079461476
    Molecular point group: c1
  Basis Set: 6-31G*
  Basis Set:

  -Total Gradient:
     Atom            X                  Y                   Z
    ------   -----------------  -----------------  -----------------
       1       -0.000084897846    -0.000287822168    -0.000539461609
       2        0.000170580570     0.000374352049     0.000839403474
       3       -0.000268957682     0.000058537929    -0.000844377673
       4        0.000003187688     0.000035414820     0.000064825753
       5        0.000019439793    -0.000038971676    -0.000073820264
       6        0.000125784390    -0.000111216101     0.000579391563
       7       -0.000006721213     0.000002138557     0.000005138930
       8        0.000002050021    -0.000036877863     0.000036662181
       9       -0.000006754886    -0.000008935178    -0.000015511912
      10        0.000011362600    -0.000010443323     0.000002273679
      11        0.000036099133     0.000001860062     0.000006687496
      12       -0.000006132742     0.000006649898     0.000005164861
      13       -0.000001386896    -0.000010244345     0.000009741645
      14       -0.000009584176     0.000006787049    -0.000011281929
      15       -0.000014985806    -0.000005128051    -0.000003694313
      16        0.000044491819     0.000031988299    -0.000033088363
      17       -0.000002110785     0.000001243695    -0.000003506957
      18        0.000005127559     0.000003845638    -0.000000884344
      19       -0.000003609266    -0.000002718922    -0.000001692927
      20        0.000000126673    -0.000000164186     0.000000799923
      21        0.000001360705     0.000000213681     0.000000496791
      22       -0.000001105164    -0.000000674759     0.000000414458
      23       -0.000000168721    -0.000000010179     0.000000457054
      24       -0.000000239166     0.000000054062     0.000000068448
      25        0.000000326558     0.000000023888    -0.000000096146
      26       -0.000023393181    -0.000016708946    -0.000037472248
      27        0.000015265571    -0.000001387077     0.000001626243
      28        0.000000921564     0.000002635323     0.000004445813
      29       -0.000006077120     0.000005557822     0.000007290371

  **** Optimization is complete! (in 7 steps) ****
    Final optimized geometry and variables:
    Molecular point group: c1

    Geometry (in Angstrom), charge = 0, multiplicity = 1:

    O            2.746944096910     1.196505905611    -2.008279175137
    C            2.309299181836     0.244586467540    -1.444384555979
    C            0.853619753537     0.107728812666    -1.053879162496
    O            3.047259005822    -0.808415678560    -1.128252448993
    C            0.521843473565    -0.983560020210    -0.034291057935
    H            0.550521088693     1.087173451495    -0.705750120558
    H            0.310134447933    -0.065748375489    -1.980108411236
    C           -0.974973341183    -1.087898198626     0.281191299182
    H            1.074137913121    -0.803111232880     0.884224413584
    H            0.868454585884    -1.937813303554    -0.413942382612
    C           -1.567499566513     0.118913842866     1.014529366916
    H           -1.129447094083    -1.974803721583     0.891437469743
    H           -1.527493926342    -1.257264779497    -0.641800017656
    C           -3.035756492132    -0.080319217232     1.396215588785
    H           -0.985287450375     0.311772256465     1.914341306310
    H           -1.482809352998     1.011180824717     0.398943282420
    C           -3.640265023576     1.120727951273     2.125716099685
    H           -3.127707440742    -0.964824668681     2.024347824841
    H           -3.616808898736    -0.283689000889     0.498079500225
    C           -5.105764479118     0.912742631200     2.506147206609
    H           -3.060386822864     1.325869805310     3.023105075755
    H           -3.552872636910     2.004826448316     1.497780737510
    H           -5.505704962747     1.780688420000     3.021185733641
    H           -5.222486028617     0.055466425438     3.163193218467
    H           -5.718487633782     0.739139607101     1.625993010631
    C            4.415998447013    -0.763787670192    -1.490478048931
    H            4.521568123682    -0.673698451103    -2.561851578534
    H            4.841609480561    -1.694226189508    -1.148366463786
    H            4.906983672182     0.071892889289    -1.013443647313

  Mulliken Charges: (a.u.)
   Center  Symbol    Alpha    Beta     Spin     Total
       1     O     4.28934  4.28934  0.00000 -0.57868
       2     C     2.60438  2.60438  0.00000  0.79124
       3     C     3.21301  3.21301  0.00000 -0.42601
       4     O     4.30392  4.30392  0.00000 -0.60785
       5     C     3.15377  3.15377  0.00000 -0.30753
       6     H     0.39565  0.39565  0.00000  0.20870
       7     H     0.39995  0.39995  0.00000  0.20009
       8     C     3.15700  3.15700  0.00000 -0.31400
       9     H     0.41744  0.41744  0.00000  0.16512
      10     H     0.40913  0.40913  0.00000  0.18174
      11     C     3.15530  3.15530  0.00000 -0.31060
      12     H     0.41864  0.41864  0.00000  0.16272
      13     H     0.42311  0.42311  0.00000  0.15378
      14     C     3.15039  3.15039  0.00000 -0.30079
      15     H     0.42298  0.42298  0.00000  0.15405
      16     H     0.42182  0.42182  0.00000  0.15636
      17     C     3.15158  3.15158  0.00000 -0.30317
      18     H     0.42374  0.42374  0.00000  0.15251
      19     H     0.42369  0.42369  0.00000  0.15262
      20     C     3.23940  3.23940  0.00000 -0.47879
      21     H     0.42288  0.42288  0.00000  0.15424
      22     H     0.42266  0.42266  0.00000  0.15469
      23     H     0.41899  0.41899  0.00000  0.16201
      24     H     0.42180  0.42180  0.00000  0.15639
      25     H     0.42168  0.42168  0.00000  0.15663
      26     C     3.09255  3.09255  0.00000 -0.18509
      27     H     0.40840  0.40840  0.00000  0.18320
      28     H     0.40868  0.40868  0.00000  0.18263
      29     H     0.40810  0.40810  0.00000  0.18379

   Total alpha = 44.00000, Total beta = 44.00000, Total charge = -0.00000
