  ==> Input File <==

--------------------------------------------------------------------------
set {
	reference rhf
	basis 6-31G*
}

set_num_threads( 4 )
memory 2 gb

molecule MOL {
0 1

H	 3.089270	 -1.380733	 0.000000
O	 2.178328	 -1.639175	 0.000000
C	 1.368216	 -0.558384	 0.000000
C	 1.640778	 0.575940	 0.753873
C	 0.231782	 -0.608609	 -0.788305
H	 2.525722	 0.612978	 1.366686
C	 0.777627	 1.658264	 0.719033
H	 0.020071	 -1.484172	 -1.371096
C	 -0.627137	 0.479262	 -0.817512
H	 0.999096	 2.530577	 1.306741
C	 -0.360423	 1.616731	 -0.065982
C	 -1.849841	 0.431948	 -1.662276
H	 -1.032247	 2.456280	 -0.094542
O	 -2.165867	 -0.492956	 -2.339938
H	 -2.470369	 1.332424	 -1.625731

	symmetry c1
}
set optking {
	frozen_dihedral = ("
		4 3 2 1
	")
}

ee = optimize('scf')
oeprop('DIPOLE', 'QUADRUPOLE', 'MULLIKEN_CHARGES')
f=open( 'psi4out.xyz', 'w' )
f.write( "15  " )
f.write( str(ee) + "\n" )
f.write( MOL.save_string_xyz() )
f.close()
--------------------------------------------------------------------------

    Molecular point group: c1
  Charge       = 0
  Multiplicity = 1
  Basis Set: 6-31G*
  Basis Set:
  @DF-RHF Final Energy:  -418.28433383956389
    Total Energy =                       -418.2843338395634873
    Molecular point group: c1
  Basis Set: 6-31G*
  Basis Set:
  Basis Set: 6-31G*
  Basis Set:
  @DF-RHF Final Energy:  -418.28449248380724
    Total Energy =                       -418.2844924838078668
  Basis Set: 6-31G*
  Basis Set:
  Basis Set: 6-31G*
  Basis Set:
  @DF-RHF Final Energy:  -418.28452710980110
    Total Energy =                       -418.2845271098008197
  Basis Set: 6-31G*
  Basis Set:
  Basis Set: 6-31G*
  Basis Set:
  @DF-RHF Final Energy:  -418.28448700051393
    Total Energy =                       -418.2844870005146731
  Basis Set: 6-31G*
  Basis Set:
  Basis Set: 6-31G*
  Basis Set:
  @DF-RHF Final Energy:  -418.28460219685599
    Total Energy =                       -418.2846021968549621
  Basis Set: 6-31G*
  Basis Set:
  Charge       = 0
  Multiplicity = 1
  Basis Set: 6-31G*
  Basis Set:

    Orbital Energies (a.u.)
    -----------------------

    Doubly Occupied:

       1A    -20.595760     2A    -20.564406     3A    -11.332712
       4A    -11.308930     5A    -11.252732     6A    -11.251647
       7A    -11.250115     8A    -11.248951     9A    -11.240861
      10A     -1.413973    11A     -1.404992    12A     -1.169885
      13A     -1.048759    14A     -1.026885    15A     -0.898767
      16A     -0.845154    17A     -0.809744    18A     -0.736739
      19A     -0.700572    20A     -0.684977    21A     -0.641147
      22A     -0.636337    23A     -0.615310    24A     -0.606157
      25A     -0.559100    26A     -0.548777    27A     -0.540231
      28A     -0.508781    29A     -0.486282    30A     -0.423575
      31A     -0.352934    32A     -0.331694

  @DF-RHF Final Energy:  -418.28460268300887

   => Energetics <=

    Nuclear Repulsion Energy =            402.9153089400969066
    One-Electron Energy =               -1368.3260502822431590
    Two-Electron Energy =                 547.1261386591374958
    DFT Exchange-Correlation Energy =       0.0000000000000000
    Empirical Dispersion Energy =           0.0000000000000000
    PCM Polarization Energy =               0.0000000000000000
    EFP Energy =                            0.0000000000000000
    Total Energy =                       -418.2846026830087567
    Molecular point group: c1
  Basis Set: 6-31G*
  Basis Set:

  -Total Gradient:
     Atom            X                  Y                   Z
    ------   -----------------  -----------------  -----------------
       1        0.000091103935    -0.000004383142    -0.002145959206
       2       -0.000552401043    -0.000374551470     0.003314494783
       3        0.001405140011     0.001072873522    -0.002282480750
       4       -0.000842520597    -0.000766135758     0.001164426257
       5       -0.000102781140     0.000065958782    -0.000034521390
       6       -0.000003673255     0.000004591120     0.000006318647
       7       -0.000118131950     0.000088877571    -0.000093125306
       8        0.000006798242    -0.000009482179     0.000004044529
       9        0.000029674815    -0.000124857519    -0.000077790088
      10        0.000008287928    -0.000008238124     0.000002809849
      11        0.000082702892     0.000050518643     0.000136163739
      12       -0.000003357957     0.000007682152     0.000026316202
      13       -0.000009006074    -0.000003973525    -0.000007450160
      14        0.000005357856    -0.000002296687    -0.000007221358
      15        0.000002806334     0.000003416617    -0.000006025748

  **** Optimization is complete! (in 6 steps) ****
    Final optimized geometry and variables:
    Molecular point group: c1

    Geometry (in Angstrom), charge = 0, multiplicity = 1:

    H            2.949501793605    -1.498787302160     0.543085491448
    O            2.037577906071    -1.752382505546     0.508431338341
    C            1.232608974844    -0.659046805362     0.472750811216
    C            1.500128883578     0.468429875149     1.240041250655
    C            0.092937743711    -0.712536571444    -0.305755855203
    H            2.378523644150     0.491981671007     1.861629541157
    C            0.638845533368     1.550917135414     1.208393245942
    H           -0.117920973359    -1.586386976562    -0.891382834529
    C           -0.775459590089     0.371352974347    -0.323056086240
    H            0.856842707898     2.421050730844     1.800441547461
    C           -0.504568096240     1.506026206348     0.428490749447
    C           -2.002479724064     0.323112258447    -1.159881412405
    H           -1.179204582648     2.343767014748     0.406870486936
    O           -2.316449803414    -0.598121962153    -1.843886260042
    H           -2.629049449400     1.218901283093    -1.112359137061

  Mulliken Charges: (a.u.)
   Center  Symbol    Alpha    Beta     Spin     Total
       1     H     0.27118  0.27118  0.00000  0.45765
       2     O     4.37958  4.37958  0.00000 -0.75916
       3     C     2.80492  2.80492  0.00000  0.39017
       4     C     3.12468  3.12468  0.00000 -0.24936
       5     C     3.11052  3.11052  0.00000 -0.22104
       6     H     0.39560  0.39560  0.00000  0.20880
       7     C     3.09758  3.09758  0.00000 -0.19516
       8     H     0.37044  0.37044  0.00000  0.25912
       9     C     3.04802  3.04802  0.00000 -0.09605
      10     H     0.39288  0.39288  0.00000  0.21425
      11     C     3.11217  3.11217  0.00000 -0.22434
      12     C     2.83242  2.83242  0.00000  0.33516
      13     H     0.39273  0.39273  0.00000  0.21453
      14     O     4.24535  4.24535  0.00000 -0.49071
      15     H     0.42193  0.42193  0.00000  0.15615

   Total alpha = 32.00000, Total beta = 32.00000, Total charge = -0.00000
