  ==> Input File <==

--------------------------------------------------------------------------
set {
	reference rhf
	basis cc-pvtz
}

set_num_threads( 4 )
memory 2 gb

molecule MOL {
0 1

H	 -1.925349	 -0.408060	 -2.128521
C	 -1.370784	 -0.263705	 -1.225441
C	 -1.942595	 0.386184	 -0.085340
C	 -0.109010	 -0.689272	 -1.126183
H	 -2.955300	 0.740200	 -0.132860
C	 -1.227305	 0.553802	 1.031281
H	 0.387832	 -1.184478	 -1.936775
N	 0.640204	 -0.530428	 -0.000115
H	 -1.622025	 1.034828	 1.902356
C	 0.148076	 0.088400	 1.135971
C	 2.006991	 -1.033007	 -0.000020
O	 0.822348	 0.220252	 2.120966
H	 2.182444	 -1.636914	 -0.880881
H	 2.678769	 -0.195442	 -0.002236
H	 2.183828	 -1.633244	 0.883082

	symmetry c1
}
set optking {
	frozen_dihedral = ("
		10 8 11 13
	")
}

ee = optimize('scf')
oeprop('DIPOLE', 'QUADRUPOLE', 'MULLIKEN_CHARGES')
f=open( 'psi4out.xyz', 'w' )
f.write( "15  " )
f.write( str(ee) + "\n" )
f.write( MOL.save_string_xyz() )
f.close()
--------------------------------------------------------------------------

    Molecular point group: c1
  Charge       = 0
  Multiplicity = 1
  Basis Set: CC-PVTZ
  Basis Set:
  @DF-RHF Final Energy:  -360.72268679016099
    Total Energy =                       -360.7226867901609921
    Molecular point group: c1
  Basis Set: CC-PVTZ
  Basis Set:
  Basis Set: CC-PVTZ
  Basis Set:
  @DF-RHF Final Energy:  -360.72346533211311
    Total Energy =                       -360.7234653321129940
  Basis Set: CC-PVTZ
  Basis Set:
  Basis Set: CC-PVTZ
  Basis Set:
  @DF-RHF Final Energy:  -360.72354853715927
    Total Energy =                       -360.7235485371597861
  Basis Set: CC-PVTZ
  Basis Set:
  Basis Set: CC-PVTZ
  Basis Set:
  @DF-RHF Final Energy:  -360.72351193004482
    Total Energy =                       -360.7235119300445376
  Basis Set: CC-PVTZ
  Basis Set:
  Charge       = 0
  Multiplicity = 1
  Basis Set: CC-PVTZ
  Basis Set:

    Orbital Energies (a.u.)
    -----------------------

    Doubly Occupied:

       1A    -20.502005     2A    -15.617810     3A    -11.337587
       4A    -11.294618     5A    -11.266000     6A    -11.258147
       7A    -11.229482     8A    -11.227778     9A     -1.391368
      10A     -1.285883    11A     -1.118821    12A     -1.029363
      13A     -0.972623    14A     -0.876590    15A     -0.838969
      16A     -0.719669    17A     -0.701973    18A     -0.664047
      19A     -0.653454    20A     -0.626313    21A     -0.611949
      22A     -0.575139    23A     -0.552337    24A     -0.550957
      25A     -0.531394    26A     -0.484864    27A     -0.420460
      28A     -0.410733    29A     -0.310065

  @DF-RHF Final Energy:  -360.72355893044590

   => Energetics <=

    Nuclear Repulsion Energy =            358.8850490726375142
    One-Electron Energy =               -1201.0964165647490063
    Two-Electron Energy =                 481.4878085616655312
    DFT Exchange-Correlation Energy =       0.0000000000000000
    Empirical Dispersion Energy =           0.0000000000000000
    PCM Polarization Energy =               0.0000000000000000
    EFP Energy =                            0.0000000000000000
    Total Energy =                       -360.7235589304460177
    Molecular point group: c1
  Basis Set: CC-PVTZ
  Basis Set:

  -Total Gradient:
     Atom            X                  Y                   Z
    ------   -----------------  -----------------  -----------------
       1       -0.000003205499    -0.000000490697    -0.000004136230
       2        0.000268987175    -0.000080834008    -0.000035641168
       3       -0.000049266918     0.000094274517     0.000238569985
       4       -0.000309033968    -0.000037399378    -0.000260562818
       5        0.000009389242    -0.000002882338    -0.000009468514
       6       -0.000220882494     0.000061217013    -0.000106074237
       7        0.000023135804     0.000013371525     0.000023117460
       8        0.000256573328     0.000654441104     0.000146499354
       9        0.000018742011     0.000006968364     0.000022779133
      10        0.000087646081    -0.000712772857    -0.000080267395
      11        0.000116583571     0.000330315232    -0.000272621209
      12       -0.000042381084     0.000090732484     0.000073417449
      13       -0.000161115928    -0.000479741720     0.000276147245
      14        0.000005247275     0.000029895809     0.000014383947
      15       -0.000000418598     0.000032904952    -0.000026142999

  **** Optimization is complete! (in 5 steps) ****
    Final optimized geometry and variables:
    Molecular point group: c1

    Geometry (in Angstrom), charge = 0, multiplicity = 1:

    H           -1.883429678809    -0.224796577770    -2.378811849384
    C           -1.321277324574    -0.085716576861    -1.479623386675
    C           -1.883661802543     0.557801071968    -0.332382334644
    C           -0.058874592546    -0.517218658159    -1.394628903694
    H           -2.896700729868     0.911953029567    -0.371468854157
    C           -1.161038858654     0.720060921854     0.781491665662
    H            0.427087880100    -1.009497851882    -2.212357553121
    N            0.694350693421    -0.365178051029    -0.272527938954
    H           -1.548768955355     1.197468371677     1.657818990577
    C            0.214135367157     0.256477399725     0.865088759646
    C            2.065960688843    -0.847758146905    -0.229466353115
    O            0.917496866543     0.385385529214     1.830230133423
    H            2.251719371674    -1.458197518103    -1.099838643807
    H            2.760684313558    -0.019896634062    -0.209785601928
    H            2.217763451614    -1.435427814618     0.661476419231

  Mulliken Charges: (a.u.)
   Center  Symbol    Alpha    Beta     Spin     Total
       1     H     0.41401  0.41401  0.00000  0.17197
       2     C     3.10684  3.10684  0.00000 -0.21367
       3     C     3.05937  3.05937  0.00000 -0.11874
       4     C     3.03879  3.03879  0.00000 -0.07758
       5     H     0.41843  0.41843  0.00000  0.16315
       6     C     3.11835  3.11835  0.00000 -0.23671
       7     H     0.41901  0.41901  0.00000  0.16198
       8     N     3.50858  3.50858  0.00000 -0.01717
       9     H     0.40935  0.40935  0.00000  0.18129
      10     C     2.84566  2.84566  0.00000  0.30868
      11     C     3.09210  3.09210  0.00000 -0.18420
      12     O     4.23561  4.23561  0.00000 -0.47122
      13     H     0.45540  0.45540  0.00000  0.08919
      14     H     0.44267  0.44267  0.00000  0.11465
      15     H     0.43581  0.43581  0.00000  0.12837

   Total alpha = 29.00000, Total beta = 29.00000, Total charge = -0.00000
