  ==> Input File <==

--------------------------------------------------------------------------
set {
	reference rhf
	basis 6-31G*
}

set_num_threads( 4 )
memory 2 gb

molecule MOL {
0 1

H	 2.332609	 0.878551	 -1.051851
C	 2.357710	 0.000000	 -0.417167
C	 1.175432	 0.000000	 0.532082
H	 3.291263	 0.000000	 0.136880
H	 2.332609	 -0.878551	 -1.051851
O	 0.000000	 0.000000	 -0.221444
H	 1.206604	 0.877321	 1.177902
H	 1.206604	 -0.877321	 1.177902
C	 -1.175432	 0.000000	 0.532082
C	 -0.917122	 0.739927	 1.830018
H	 -1.490950	 -1.023369	 0.734348
H	 -1.978481	 0.480863	 -0.026157
H	 -0.125915	 0.254870	 2.390390
H	 -1.813192	 0.759179	 2.442535
H	 -0.614130	 1.761210	 1.628819

	symmetry c1
}
set optking {
	frozen_dihedral = ("
		11 9 6 3
	")
}

ee = optimize('scf')
oeprop('DIPOLE', 'QUADRUPOLE', 'MULLIKEN_CHARGES')
f=open( 'psi4out.xyz', 'w' )
f.write( "15  " )
f.write( str(ee) + "\n" )
f.write( MOL.save_string_xyz() )
f.close()
--------------------------------------------------------------------------

    Molecular point group: c1
  Charge       = 0
  Multiplicity = 1
  Basis Set: 6-31G*
  Basis Set:
  @DF-RHF Final Energy:  -232.12554623828939
    Total Energy =                       -232.1255462382895871
    Molecular point group: c1
  Basis Set: 6-31G*
  Basis Set:
  Basis Set: 6-31G*
  Basis Set:
  @DF-RHF Final Energy:  -232.12625825120554
    Total Energy =                       -232.1262582512055133
  Basis Set: 6-31G*
  Basis Set:
  Basis Set: 6-31G*
  Basis Set:
  @DF-RHF Final Energy:  -232.13372267689567
    Total Energy =                       -232.1337226768955588
  Basis Set: 6-31G*
  Basis Set:
  Basis Set: 6-31G*
  Basis Set:
  @DF-RHF Final Energy:  -232.13693827714636
    Total Energy =                       -232.1369382771462142
  Basis Set: 6-31G*
  Basis Set:
  @DF-RHF Final Energy:  -232.13750313564910
    Total Energy =                       -232.1375031356490126
  Basis Set: 6-31G*
  Basis Set:
  @DF-RHF Final Energy:  -232.13779425003349
    Total Energy =                       -232.1377942500334370
  Basis Set: 6-31G*
  Basis Set:
  Basis Set: 6-31G*
  Basis Set:
  @DF-RHF Final Energy:  -232.13783609338256
    Total Energy =                       -232.1378360933824752
  Basis Set: 6-31G*
  Basis Set:
  Basis Set: 6-31G*
  Basis Set:
  @DF-RHF Final Energy:  -232.13783920980450
    Total Energy =                       -232.1378392098043832
  Basis Set: 6-31G*
  Basis Set:
  Charge       = 0
  Multiplicity = 1
  Basis Set: 6-31G*
  Basis Set:

    Orbital Energies (a.u.)
    -----------------------

    Doubly Occupied:

       1A    -20.547420     2A    -11.268304     3A    -11.266854
       4A    -11.216476     5A    -11.207154     6A     -1.370400
       7A     -1.040044     8A     -0.990470     9A     -0.870759
      10A     -0.799590    11A     -0.673693    12A     -0.658672
      13A     -0.622985    14A     -0.594199    15A     -0.548184
      16A     -0.536368    17A     -0.524079    18A     -0.503737
      19A     -0.494204    20A     -0.450539    21A     -0.403886

  @DF-RHF Final Energy:  -232.13783961490077

   => Energetics <=

    Nuclear Repulsion Energy =            193.1730056961021660
    One-Electron Energy =                -697.4456610504088303
    Two-Electron Energy =                 272.1348157394057807
    DFT Exchange-Correlation Energy =       0.0000000000000000
    Empirical Dispersion Energy =           0.0000000000000000
    PCM Polarization Energy =               0.0000000000000000
    EFP Energy =                            0.0000000000000000
    Total Energy =                       -232.1378396149008836
    Molecular point group: c1
  Basis Set: 6-31G*
  Basis Set:

  -Total Gradient:
     Atom            X                  Y                   Z
    ------   -----------------  -----------------  -----------------
       1        0.000001506990     0.000000053085    -0.000001494825
       2        0.000004587901     0.000002958329     0.000002170487
       3        0.000035494384     0.004368386193     0.000297044105
       4        0.000002771308     0.000001774902    -0.000002533666
       5       -0.000001034827     0.000000014571     0.000001924272
       6       -0.000787401708    -0.006415704160    -0.001571996996
       7       -0.000008426953     0.000001383041    -0.000003008784
       8        0.000008304653     0.000003853931     0.000001388482
       9        0.003526573101     0.001704160982     0.005710296423
      10       -0.000003385354     0.000021410978     0.000007372293
      11       -0.002794311995     0.000308944615    -0.004446315075
      12        0.000011865575    -0.000002960419     0.000000081812
      13       -0.000000506446    -0.000001037586    -0.000006823066
      14        0.000004854109     0.000001247406     0.000001223903
      15       -0.000000890737     0.000005514132     0.000010670635

  **** Optimization is complete! (in 9 steps) ****
    Final optimized geometry and variables:
    Molecular point group: c1

    Geometry (in Angstrom), charge = 0, multiplicity = 1:

    H            2.044975055951     0.648442123459    -1.646555631689
    C            2.083484653571    -0.220373644759    -0.999083131777
    C            0.983334359128    -0.148717252830     0.042666778794
    H            3.058586113061    -0.253842456345    -0.522485914378
    H            1.967035538691    -1.106303007163    -1.612858603806
    O           -0.239866564776    -0.094368041717    -0.631831752706
    H            1.120787559468     0.728696232303     0.668147695437
    H            1.026484737570    -1.022800542106     0.692445614288
    C           -1.425429502169    -0.136206609289     0.117566570653
    C           -1.408970023922     0.590994094404     1.455502188183
    H           -1.737332607477    -1.172453004867     0.240918449861
    H           -2.173240554906     0.324221026059    -0.517784134069
    H           -0.741279592464     0.130522803446     2.174833677181
    H           -2.409142066809     0.572148191731     1.877306265789
    H           -1.117396743016     1.628683350285     1.331286451966

  Mulliken Charges: (a.u.)
   Center  Symbol    Alpha    Beta     Spin     Total
       1     H     0.41366  0.41366  0.00000  0.17269
       2     C     3.24262  3.24262  0.00000 -0.48524
       3     C     2.98856  2.98856  0.00000  0.02288
       4     H     0.42353  0.42353  0.00000  0.15294
       5     H     0.41396  0.41396  0.00000  0.17207
       6     O     4.31491  4.31491  0.00000 -0.62983
       7     H     0.42943  0.42943  0.00000  0.14115
       8     H     0.43376  0.43376  0.00000  0.13248
       9     C     2.98090  2.98090  0.00000  0.03821
      10     C     3.26541  3.26541  0.00000 -0.53082
      11     H     0.42980  0.42980  0.00000  0.14041
      12     H     0.41793  0.41793  0.00000  0.16415
      13     H     0.41651  0.41651  0.00000  0.16698
      14     H     0.41554  0.41554  0.00000  0.16893
      15     H     0.41350  0.41350  0.00000  0.17301

   Total alpha = 21.00000, Total beta = 21.00000, Total charge =  0.00000
