  ==> Input File <==

--------------------------------------------------------------------------
set {
	reference rhf
	basis 6-31G*
}

set_num_threads( 4 )
memory 2 gb

molecule MOL {
0 1

H	 3.089270	 -1.380733	 0.000000
O	 2.178328	 -1.639175	 0.000000
C	 1.368216	 -0.558384	 0.000000
C	 -0.002319	 -0.655652	 -0.203658
C	 1.949925	 0.679233	 0.212960
H	 -0.453023	 -1.619754	 -0.369208
C	 -0.789535	 0.483590	 -0.194246
H	 3.008429	 0.755766	 0.370400
C	 1.154664	 1.814819	 0.220850
H	 -1.848997	 0.395776	 -0.353014
C	 -0.216613	 1.724525	 0.017825
C	 1.773155	 3.147582	 0.449062
H	 -0.826189	 2.610732	 0.025540
O	 2.934121	 3.329764	 0.632131
H	 1.072977	 3.988356	 0.439189

	symmetry c1
}
set optking {
	frozen_dihedral = ("
		4 3 2 1
	")
}

ee = optimize('scf')
oeprop('DIPOLE', 'QUADRUPOLE', 'MULLIKEN_CHARGES')
f=open( 'psi4out.xyz', 'w' )
f.write( "15  " )
f.write( str(ee) + "\n" )
f.write( MOL.save_string_xyz() )
f.close()
--------------------------------------------------------------------------

    Molecular point group: c1
  Charge       = 0
  Multiplicity = 1
  Basis Set: 6-31G*
  Basis Set:
  @DF-RHF Final Energy:  -418.28523557438535
    Total Energy =                       -418.2852355743863200
    Molecular point group: c1
  Basis Set: 6-31G*
  Basis Set:
  Basis Set: 6-31G*
  Basis Set:
  @DF-RHF Final Energy:  -418.28730652915209
    Total Energy =                       -418.2873065291518060
  Basis Set: 6-31G*
  Basis Set:
  Basis Set: 6-31G*
  Basis Set:
  @DF-RHF Final Energy:  -418.28742491019716
    Total Energy =                       -418.2874249101971600
  Basis Set: 6-31G*
  Basis Set:
  Basis Set: 6-31G*
  Basis Set:
  @DF-RHF Final Energy:  -418.28498033900678
    Total Energy =                       -418.2849803390068928
  Basis Set: 6-31G*
  Basis Set:
  Basis Set: 6-31G*
  Basis Set:
  @DF-RHF Final Energy:  -418.28751734889016
    Total Energy =                       -418.2875173488899918
  Basis Set: 6-31G*
  Basis Set:
  Basis Set: 6-31G*
  Basis Set:
  @DF-RHF Final Energy:  -418.28752584007520
    Total Energy =                       -418.2875258400748635
  Basis Set: 6-31G*
  Basis Set:
  Charge       = 0
  Multiplicity = 1
  Basis Set: 6-31G*
  Basis Set:

    Orbital Energies (a.u.)
    -----------------------

    Doubly Occupied:

       1A    -20.601028     2A    -20.566964     3A    -11.335246
       4A    -11.312319     5A    -11.253457     6A    -11.251255
       7A    -11.247705     8A    -11.244728     9A    -11.244018
      10A     -1.420603    11A     -1.407473    12A     -1.169877
      13A     -1.049658    14A     -1.026081    15A     -0.901274
      16A     -0.853303    17A     -0.796829    18A     -0.754023
      19A     -0.700573    20A     -0.666906    21A     -0.661609
      22A     -0.628505    23A     -0.613797    24A     -0.602813
      25A     -0.573242    26A     -0.553140    27A     -0.535913
      28A     -0.518069    29A     -0.486100    30A     -0.426238
      31A     -0.353382    32A     -0.326959

  @DF-RHF Final Energy:  -418.28752653845351

   => Energetics <=

    Nuclear Repulsion Energy =            403.3148535436036468
    One-Electron Energy =               -1369.0385773006992167
    Two-Electron Energy =                 547.4361972186422918
    DFT Exchange-Correlation Energy =       0.0000000000000000
    Empirical Dispersion Energy =           0.0000000000000000
    PCM Polarization Energy =               0.0000000000000000
    EFP Energy =                            0.0000000000000000
    Total Energy =                       -418.2875265384532213
    Molecular point group: c1
  Basis Set: 6-31G*
  Basis Set:

  -Total Gradient:
     Atom            X                  Y                   Z
    ------   -----------------  -----------------  -----------------
       1        0.000010673027    -0.000001121588    -0.001120414260
       2        0.000079654063     0.000031058189     0.000994899602
       3       -0.000244241636    -0.000128731762     0.000952433952
       4        0.000137665152     0.000082640520    -0.000794040830
       5        0.000001146030     0.000022974760    -0.000010985322
       6        0.000010534305    -0.000001780608     0.000002293061
       7       -0.000000160921     0.000075516701    -0.000019061090
       8       -0.000002082380     0.000004281158    -0.000001695189
       9        0.000066830458    -0.000019232891    -0.000014246138
      10       -0.000001755010    -0.000012360042    -0.000001486234
      11       -0.000079330328    -0.000071926512     0.000011185979
      12       -0.000018701930     0.000010007657    -0.000005592730
      13        0.000016176997     0.000008697993    -0.000000034517
      14        0.000016527495     0.000007825405     0.000005646610
      15        0.000007064673    -0.000007848972     0.000001097106

  **** Optimization is complete! (in 7 steps) ****
    Final optimized geometry and variables:
    Molecular point group: c1

    Geometry (in Angstrom), charge = 0, multiplicity = 1:

    H            1.826644715466    -2.411688480223    -0.148060762177
    O            0.898256795991    -2.600103503652    -0.145145032714
    C            0.176840127574    -1.457784620255    -0.127280493130
    C           -1.196282969052    -1.569444905991    -0.336257463220
    C            0.744550142365    -0.219012400488     0.084586455544
    H           -1.614719421405    -2.544456181153    -0.503462244209
    C           -1.989691121055    -0.441815298734    -0.324296717992
    H            1.801712306196    -0.109917341664     0.248494493445
    C           -0.062755501681     0.915590874490     0.090249965680
    H           -3.048203623425    -0.536603866361    -0.484954766394
    C           -1.427080723908     0.810874227521    -0.111253083031
    C            0.548537475933     2.249868974438     0.316540199891
    H           -2.046210102224     1.690505822817    -0.104623484917
    O            1.710754066648     2.435757648833     0.493974834375
    H           -0.154225038261     3.087984947296     0.310971324203

  Mulliken Charges: (a.u.)
   Center  Symbol    Alpha    Beta     Spin     Total
       1     H     0.26905  0.26905  0.00000  0.46190
       2     O     4.37809  4.37809  0.00000 -0.75618
       3     C     2.79373  2.79373  0.00000  0.41255
       4     C     3.11289  3.11289  0.00000 -0.22577
       5     C     3.13544  3.13544  0.00000 -0.27089
       6     H     0.38566  0.38566  0.00000  0.22869
       7     C     3.09647  3.09647  0.00000 -0.19294
       8     H     0.38132  0.38132  0.00000  0.23736
       9     C     3.04600  3.04600  0.00000 -0.09199
      10     H     0.39260  0.39260  0.00000  0.21481
      11     C     3.11491  3.11491  0.00000 -0.22981
      12     C     2.83230  2.83230  0.00000  0.33540
      13     H     0.39295  0.39295  0.00000  0.21410
      14     O     4.24816  4.24816  0.00000 -0.49632
      15     H     0.42045  0.42045  0.00000  0.15910

   Total alpha = 32.00000, Total beta = 32.00000, Total charge =  0.00000
