  ==> Input File <==

--------------------------------------------------------------------------
set {
	reference rhf
	basis 6-31G*
}

set_num_threads( 4 )
memory 2 gb

molecule MOL {
0 1

O	 3.225979	 0.970355	 -0.599647
C	 2.701189	 0.057885	 -0.047330
C	 1.245376	 -0.013843	 0.345420
O	 3.347903	 -1.046386	 0.304773
C	 0.346330	 -0.530383	 -0.775749
H	 1.185504	 -0.634368	 1.233426
H	 0.945928	 0.982965	 0.659110
C	 -1.146226	 -0.510178	 -0.428816
H	 0.648481	 -1.538844	 -1.041891
H	 0.513706	 0.075227	 -1.659855
C	 -1.561912	 -1.470247	 0.689478
H	 -1.704367	 -0.761524	 -1.327719
H	 -1.443060	 0.503454	 -0.163391
C	 -3.073917	 -1.493101	 0.922540
H	 -1.220855	 -2.474773	 0.443657
H	 -1.067454	 -1.198775	 1.619417
C	 -3.500416	 -2.445165	 2.041381
H	 -3.575979	 -1.777189	 -0.000749
H	 -3.417242	 -0.486897	 1.157870
C	 -5.012115	 -2.464941	 2.265155
H	 -3.157260	 -3.450931	 1.808309
H	 -3.002961	 -2.160146	 2.966088
H	 -5.283037	 -3.148525	 3.063854
H	 -5.537134	 -2.780181	 1.367840
H	 -5.381626	 -1.479295	 2.533926
C	 4.728119	 -1.109107	 -0.004993
H	 4.882018	 -1.033965	 -1.071845
H	 5.068212	 -2.067527	 0.355250
H	 5.265056	 -0.311663	 0.488280

	symmetry c1
}
set optking {
	frozen_dihedral = ("
		6 3 2 1
	")
}

ee = optimize('scf')
oeprop('DIPOLE', 'QUADRUPOLE', 'MULLIKEN_CHARGES')
f=open( 'psi4out.xyz', 'w' )
f.write( "29  " )
f.write( str(ee) + "\n" )
f.write( MOL.save_string_xyz() )
f.close()
--------------------------------------------------------------------------

    Molecular point group: c1
  Charge       = 0
  Multiplicity = 1
  Basis Set: 6-31G*
  Basis Set:
  @DF-RHF Final Energy:  -501.04192018168794
    Total Energy =                       -501.0419201816877148
    Molecular point group: c1
  Basis Set: 6-31G*
  Basis Set:
  Basis Set: 6-31G*
  Basis Set:
  @DF-RHF Final Energy:  -501.04216165257799
    Total Energy =                       -501.0421616525777608
  Basis Set: 6-31G*
  Basis Set:
  Basis Set: 6-31G*
  Basis Set:
  @DF-RHF Final Energy:  -501.04265078309174
    Total Energy =                       -501.0426507830918581
  Basis Set: 6-31G*
  Basis Set:
  Basis Set: 6-31G*
  Basis Set:
  @DF-RHF Final Energy:  -501.04273379655092
    Total Energy =                       -501.0427337965512606
  Basis Set: 6-31G*
  Basis Set:
  Charge       = 0
  Multiplicity = 1
  Basis Set: 6-31G*
  Basis Set:

    Orbital Energies (a.u.)
    -----------------------

    Doubly Occupied:

       1A    -20.604254     2A    -20.542072     3A    -11.370162
       4A    -11.280236     5A    -11.232575     6A    -11.229569
       7A    -11.221674     8A    -11.218136     9A    -11.217089
      10A    -11.216087    11A    -11.209985    12A     -1.468186
      13A     -1.360488    14A     -1.101235    15A     -1.068784
      16A     -1.019802    17A     -0.975782    18A     -0.930712
      19A     -0.864119    20A     -0.799955    21A     -0.791428
      22A     -0.772219    23A     -0.697616    24A     -0.678167
      25A     -0.672794    26A     -0.652622    27A     -0.627299
      28A     -0.607179    29A     -0.592170    30A     -0.579237
      31A     -0.566609    32A     -0.556650    33A     -0.536989
      34A     -0.528941    35A     -0.520462    36A     -0.515964
      37A     -0.498742    38A     -0.481043    39A     -0.472253
      40A     -0.464647    41A     -0.460855    42A     -0.453563
      43A     -0.446066    44A     -0.428115

  @DF-RHF Final Energy:  -501.04273291484753

   => Energetics <=

    Nuclear Repulsion Energy =            612.7633915725715497
    One-Electron Energy =               -1896.5471836608944614
    Two-Electron Energy =                 782.7410591734753780
    DFT Exchange-Correlation Energy =       0.0000000000000000
    Empirical Dispersion Energy =           0.0000000000000000
    PCM Polarization Energy =               0.0000000000000000
    EFP Energy =                            0.0000000000000000
    Total Energy =                       -501.0427329148476474
    Molecular point group: c1
  Basis Set: 6-31G*
  Basis Set:

  -Total Gradient:
     Atom            X                  Y                   Z
    ------   -----------------  -----------------  -----------------
       1       -0.000065094712    -0.000237517462    -0.000321169595
       2        0.000048863723     0.000234895539     0.000421024154
       3       -0.000004596869     0.000316860711    -0.000000867037
       4        0.000016985353     0.000055677069    -0.000020455385
       5       -0.000026196790    -0.000003405561     0.000034035106
       6       -0.000015417657    -0.000304947363    -0.000247204822
       7       -0.000024038253    -0.000001528719     0.000055055394
       8        0.000023342271     0.000071393331     0.000063770763
       9       -0.000011114949    -0.000002339243     0.000053908031
      10       -0.000000587238    -0.000037580688    -0.000007969154
      11       -0.000014525473    -0.000065506799    -0.000026468109
      12        0.000068530184     0.000020245801    -0.000031742703
      13       -0.000003230202     0.000018187097     0.000024127573
      14       -0.000004584655    -0.000000109410    -0.000002030935
      15       -0.000008754526    -0.000037571124    -0.000000415067
      16       -0.000027228344    -0.000010265677    -0.000013030708
      17        0.000008068159     0.000012117554     0.000011916949
      18        0.000000948191    -0.000014969047     0.000007156298
      19       -0.000006081037     0.000007328368    -0.000010528021
      20        0.000002501071     0.000012995251    -0.000001051169
      21       -0.000000765413     0.000004109238    -0.000006845960
      22        0.000003507883    -0.000003369004     0.000004714989
      23        0.000004918524     0.000001142093    -0.000000339543
      24        0.000000700040    -0.000000814584    -0.000000812630
      25       -0.000003343031     0.000000684709     0.000000280181
      26       -0.000000169957    -0.000031859472     0.000029070447
      27        0.000001118818     0.000001091351    -0.000000276510
      28        0.000033730995    -0.000004193457    -0.000010823508
      29        0.000002513884    -0.000000750500    -0.000003029026

  **** Optimization is complete! (in 5 steps) ****
    Final optimized geometry and variables:
    Molecular point group: c1

    Geometry (in Angstrom), charge = 0, multiplicity = 1:

    O            3.038520778766     1.915582506238    -0.986969816015
    C            2.538557632250     0.991480457598    -0.429435649421
    C            1.092544787003     0.923417719417    -0.007674688933
    O            3.194363894102    -0.126531769361    -0.146107147595
    C            0.227596171760     0.360801027509    -1.148539733705
    H            1.010505121110     0.304755073379     0.876164622103
    H            0.775639205617     1.930693072377     0.234390951694
    C           -1.274997421436     0.372641194105    -0.849154012662
    H            0.547123170691    -0.653868275628    -1.372116427165
    H            0.412223029002     0.952730046960    -2.040066389004
    C           -1.714526175308    -0.566296932821     0.277479187246
    H           -1.800691823019     0.095400964339    -1.760006899612
    H           -1.586399390443     1.389485857742    -0.617280331601
    C           -3.232353550038    -0.593157503349     0.468997973147
    H           -1.360800536533    -1.573634416191     0.063343225506
    H           -1.247242999811    -0.271053564432     1.213850004428
    C           -3.683395998666    -1.519177802832     1.599973355452
    H           -3.707185740596    -0.904194255032    -0.460012694619
    H           -3.587997838335     0.416351503976     0.668916809001
    C           -5.200417899946    -1.542272726945     1.783684410280
    H           -3.328669331102    -2.528410867134     1.401848855271
    H           -3.212413409580    -1.207720827196     2.529939571669
    H           -5.488850891113    -2.206820521813     2.592216385249
    H           -5.699529043517    -1.883570616862     0.881130485457
    H           -5.582245168695    -0.552354654537     2.017090781288
    C            4.550862734769    -0.193774259138    -0.546762998500
    H            4.635563300768    -0.092662536700    -1.619217993224
    H            4.903990086592    -1.163807142428    -0.233143084505
    H            5.126248822788     0.586641486799    -0.070094742803

  Mulliken Charges: (a.u.)
   Center  Symbol    Alpha    Beta     Spin     Total
       1     O     4.28596  4.28596  0.00000 -0.57193
       2     C     2.61630  2.61630  0.00000  0.76739
       3     C     3.19568  3.19568  0.00000 -0.39135
       4     O     4.30283  4.30283  0.00000 -0.60566
       5     C     3.16783  3.16783  0.00000 -0.33566
       6     H     0.40180  0.40180  0.00000  0.19641
       7     H     0.40103  0.40103  0.00000  0.19794
       8     C     3.15469  3.15469  0.00000 -0.30937
       9     H     0.41291  0.41291  0.00000  0.17417
      10     H     0.40682  0.40682  0.00000  0.18637
      11     C     3.15505  3.15505  0.00000 -0.31010
      12     H     0.41814  0.41814  0.00000  0.16372
      13     H     0.42061  0.42061  0.00000  0.15877
      14     C     3.15070  3.15070  0.00000 -0.30140
      15     H     0.42238  0.42238  0.00000  0.15525
      16     H     0.42224  0.42224  0.00000  0.15553
      17     C     3.15156  3.15156  0.00000 -0.30312
      18     H     0.42342  0.42342  0.00000  0.15316
      19     H     0.42338  0.42338  0.00000  0.15324
      20     C     3.23944  3.23944  0.00000 -0.47887
      21     H     0.42281  0.42281  0.00000  0.15438
      22     H     0.42304  0.42304  0.00000  0.15393
      23     H     0.41902  0.41902  0.00000  0.16196
      24     H     0.42159  0.42159  0.00000  0.15682
      25     H     0.42156  0.42156  0.00000  0.15689
      26     C     3.09275  3.09275  0.00000 -0.18550
      27     H     0.40915  0.40915  0.00000  0.18170
      28     H     0.40882  0.40882  0.00000  0.18236
      29     H     0.40851  0.40851  0.00000  0.18298

   Total alpha = 44.00000, Total beta = 44.00000, Total charge =  0.00000
