                              Psi4 1.0.54 Driver

  ==> Input File <==

--------------------------------------------------------------------------
set {
	reference rhf
	basis cc-pvtz
}

set_num_threads( 4 )
memory 2 gb

molecule MOL {
0 1

H	 0.963437	 1.624481	 -1.660202
O	 1.218688	 1.706191	 -0.758746
C	 0.706474	 0.636793	 -0.025501
C	 -0.793473	 0.591216	 0.050087
H	 1.111309	 0.729354	 0.975421
H	 1.067475	 -0.311592	 -0.419131
C	 -1.534243	 -0.493009	 -0.013340
H	 -1.266611	 1.552628	 0.164437
H	 -1.101195	 -1.466332	 -0.144046
H	 -2.604242	 -0.437780	 0.050785

	symmetry c1
}
set optking {
	frozen_dihedral = ("
		5 3 4 7
	")
}

ee,wfn = optimize('scf', return_wfn=True)
oeprop( wfn, 'DIPOLE', 'QUADRUPOLE', 'MULLIKEN_CHARGES')
f=open( 'psi4out.xyz', 'w' )
f.write( "10  " )
f.write( str(ee) + "\n" )
f.write( MOL.save_string_xyz() )
f.close()
--------------------------------------------------------------------------

    Molecular point group: c1
  Charge       = 0
  Multiplicity = 1
  Basis Set: CC-PVTZ
  Basis Set:
  @DF-RHF Final Energy:  -191.99800645557900
    Total Energy =                       -191.9980064555789170
    Molecular point group: c1
  Basis Set: CC-PVTZ
  Basis Set:
  Basis Set: CC-PVTZ
  Basis Set:
  @DF-RHF Final Energy:  -191.99834834406894
    Total Energy =                       -191.9983483440689724
  Basis Set: CC-PVTZ
  Basis Set:
  Basis Set: CC-PVTZ
  Basis Set:
  @DF-RHF Final Energy:  -191.99843667852889
    Total Energy =                       -191.9984366785288330
  Basis Set: CC-PVTZ
  Basis Set:
  Basis Set: CC-PVTZ
  Basis Set:
  @DF-RHF Final Energy:  -191.99844035977310
    Total Energy =                       -191.9984403597730420
  Basis Set: CC-PVTZ
  Basis Set:
  Charge       = 0
  Multiplicity = 1
  Basis Set: CC-PVTZ
  Basis Set:

    Orbital Energies (a.u.)
    -----------------------

    Doubly Occupied:

       1A    -20.553008     2A    -11.276210     3A    -11.230712
       4A    -11.223190     5A     -1.371878     6A     -1.067571
       7A     -0.924350     8A     -0.778523     9A     -0.708180
      10A     -0.626591    11A     -0.618815    12A     -0.610519
      13A     -0.529746    14A     -0.496200    15A     -0.450723
      16A     -0.374765

  @DF-RHF Final Energy:  -191.99844070609657

   => Energetics <=

    Nuclear Repulsion Energy =            117.4562415614913675
    One-Electron Energy =                -493.2274025563559690
    Two-Electron Energy =                 183.7727202887680278
    DFT Exchange-Correlation Energy =       0.0000000000000000
    Empirical Dispersion Energy =           0.0000000000000000
    PCM Polarization Energy =               0.0000000000000000
    EFP Energy =                            0.0000000000000000
    Total Energy =                       -191.9984407060965736
    Molecular point group: c1
  Basis Set: CC-PVTZ
  Basis Set:

  -Total Gradient:
     Atom            X                  Y                   Z
    ------   -----------------  -----------------  -----------------
       1       -0.000003417316    -0.000009520037     0.000007012264
       2        0.000001033859    -0.000003295198     0.000024342808
       3       -0.000031681747     0.002713380235     0.000664630012
       4       -0.000225811621    -0.000411631849    -0.003074919433
       5        0.000089349272    -0.002207679622     0.000277155373
       6       -0.000002778851    -0.000004007544     0.000002404797
       7        0.000175829421    -0.000071771196     0.002101408862
       8        0.000005953630    -0.000004522633    -0.000001373128
       9       -0.000005884813     0.000004128373     0.000000784607
      10       -0.000002591834    -0.000005080528    -0.000001446162

  **** Optimization is complete! (in 5 steps) ****
    Final optimized geometry and variables:
    Molecular point group: c1

    Geometry (in Angstrom), charge = 0, multiplicity = 1:

    H            0.896879457872     0.956184591460    -1.483034112631
    O            1.204324931387     1.056165203217    -0.599971951587
    C            0.747141406448    -0.009946383141     0.183728900394
    C           -0.750913404817    -0.054173519873     0.288047687942
    H            1.176266956468     0.130562649203     1.167746913589
    H            1.120023353044    -0.959370037731    -0.190106446488
    C           -1.468086948711    -1.156440104444     0.287204362911
    H           -1.230752653475     0.901527036479     0.415792268211
    H           -1.016648012385    -2.124762779741     0.162938614508
    H           -2.534107390262    -1.133250767940     0.411596862729

  Mulliken Charges: (a.u.)
   Center  Symbol    Alpha    Beta     Spin     Total
       1     H     0.39328  0.39328  0.00000  0.21344
       2     O     4.20083  4.20083  0.00000 -0.40166
       3     C     2.94846  2.94846  0.00000  0.10308
       4     C     3.08522  3.08522  0.00000 -0.17043
       5     H     0.45638  0.45638  0.00000  0.08723
       6     H     0.46875  0.46875  0.00000  0.06250
       7     C     3.17262  3.17262  0.00000 -0.34525
       8     H     0.41723  0.41723  0.00000  0.16554
       9     H     0.43064  0.43064  0.00000  0.13872
      10     H     0.42659  0.42659  0.00000  0.14682

   Total alpha = 16.00000, Total beta = 16.00000, Total charge = -0.00000

*** Psi4 exiting successfully. Buy a developer a beer!
