  ==> Input File <==

--------------------------------------------------------------------------
set {
	reference rhf
	basis cc-pvtz
}

set_num_threads( 4 )
memory 2 gb

molecule MOL {
0 1

O	 0.749630	 1.305591	 -0.000460
C	 0.576499	 0.134701	 -0.003900
C	 -0.765656	 -0.550508	 -0.002152
O	 1.564816	 -0.744612	 -0.000631
C	 -1.945526	 0.411052	 0.000603
H	 -0.794329	 -1.203792	 -0.868145
H	 -0.791555	 -1.205429	 0.862701
C	 -3.189162	 -0.204424	 -0.631444
H	 -1.670777	 1.315255	 -0.528852
H	 -2.158984	 0.711704	 1.019142
H	 -3.009387	 -0.485311	 -1.663962
H	 -4.015474	 0.495951	 -0.619483
H	 -3.503679	 -1.095229	 -0.097708
C	 2.884339	 -0.237801	 0.002883
H	 3.064150	 0.362814	 -0.876312
H	 3.533055	 -1.098529	 0.004958
H	 3.059365	 0.363432	 0.882614

	symmetry c1
}
set optking {
	frozen_dihedral = ("
		9 5 3 6
	")
}

ee = optimize('scf')
oeprop('DIPOLE', 'QUADRUPOLE', 'MULLIKEN_CHARGES')
f=open( 'psi4out.xyz', 'w' )
f.write( "17  " )
f.write( str(ee) + "\n" )
f.write( MOL.save_string_xyz() )
f.close()
--------------------------------------------------------------------------

    Molecular point group: c1
  Charge       = 0
  Multiplicity = 1
  Basis Set: CC-PVTZ
  Basis Set:
  @DF-RHF Final Energy:  -345.03323639438867
    Total Energy =                       -345.0332363943887231
    Molecular point group: c1
  Basis Set: CC-PVTZ
  Basis Set:
  Basis Set: CC-PVTZ
  Basis Set:
  @DF-RHF Final Energy:  -345.03321360190523
    Total Energy =                       -345.0332136019047766
  Basis Set: CC-PVTZ
  Basis Set:
  Basis Set: CC-PVTZ
  Basis Set:
  @DF-RHF Final Energy:  -345.03223692323337
    Total Energy =                       -345.0322369232331425
  Basis Set: CC-PVTZ
  Basis Set:
  Basis Set: CC-PVTZ
  Basis Set:
  @DF-RHF Final Energy:  -345.03348785167100
    Total Energy =                       -345.0334878516708841
  Basis Set: CC-PVTZ
  Basis Set:
  Basis Set: CC-PVTZ
  Basis Set:
  @DF-RHF Final Energy:  -345.03350594827072
    Total Energy =                       -345.0335059482707720
  Basis Set: CC-PVTZ
  Basis Set:
  Basis Set: CC-PVTZ
  Basis Set:
  @DF-RHF Final Energy:  -345.03351016528364
    Total Energy =                       -345.0335101652837011
  Basis Set: CC-PVTZ
  Basis Set:
  Charge       = 0
  Multiplicity = 1
  Basis Set: CC-PVTZ
  Basis Set:

    Orbital Energies (a.u.)
    -----------------------

    Doubly Occupied:

       1A    -20.596864     2A    -20.534976     3A    -11.365650
       4A    -11.278902     5A    -11.234175     6A    -11.219381
       7A    -11.212890     8A     -1.472992     9A     -1.366568
      10A     -1.080566    11A     -1.002854    12A     -0.940380
      13A     -0.828637    14A     -0.769576    15A     -0.704198
      16A     -0.685970    17A     -0.676707    18A     -0.634296
      19A     -0.598628    20A     -0.574970    21A     -0.569877
      22A     -0.530191    23A     -0.524127    24A     -0.498916
      25A     -0.487817    26A     -0.475677    27A     -0.460588
      28A     -0.442837

  @DF-RHF Final Energy:  -345.03351044543160

   => Energetics <=

    Nuclear Repulsion Energy =            312.9425766893200489
    One-Electron Energy =               -1090.4137515390621047
    Two-Electron Energy =                 432.4376644043101123
    DFT Exchange-Correlation Energy =       0.0000000000000000
    Empirical Dispersion Energy =           0.0000000000000000
    PCM Polarization Energy =               0.0000000000000000
    EFP Energy =                            0.0000000000000000
    Total Energy =                       -345.0335104454319435
    Molecular point group: c1
  Basis Set: CC-PVTZ
  Basis Set:

  -Total Gradient:
     Atom            X                  Y                   Z
    ------   -----------------  -----------------  -----------------
       1        0.000012701014     0.000002346510    -0.000008915233
       2       -0.000005856570     0.000006906432    -0.000017897586
       3        0.002748877358     0.003469266067    -0.001670246643
       4        0.000004610867     0.000001361194     0.000015291216
       5       -0.002014759368    -0.002495344607    -0.003354148285
       6       -0.001961734060    -0.002467277860     0.001927207753
       7       -0.000006318033    -0.000001440669    -0.000018813544
       8       -0.000000135840    -0.000002352126    -0.000003096855
       9        0.001220870944     0.001488680641     0.003124063047
      10       -0.000001539909    -0.000001257500     0.000009337233
      11       -0.000000685180    -0.000001718148    -0.000001028448
      12        0.000002942163     0.000000653801    -0.000000334705
      13       -0.000001663528     0.000000681327     0.000000498298
      14        0.000003890536     0.000000500396    -0.000000606461
      15       -0.000000752010    -0.000000069142    -0.000000460318
      16       -0.000000271399    -0.000000172302    -0.000000198182
      17       -0.000000176986    -0.000000764013    -0.000000651288

  **** Optimization is complete! (in 7 steps) ****
    Final optimized geometry and variables:
    Molecular point group: c1

    Geometry (in Angstrom), charge = 0, multiplicity = 1:

    O            0.752871216198     1.292937463152     0.107655013654
    C            0.570093834301     0.123725395334     0.085659194235
    C           -0.774915967558    -0.554415440157     0.054197816440
    O            1.552024688681    -0.762616226214     0.089883972524
    C           -1.967296822147     0.399074036355     0.060669292555
    H           -0.799145537431    -1.214655489462    -0.806495043629
    H           -0.809090539863    -1.221827832637     0.909422101987
    C           -3.228865444408    -0.235515422435    -0.511403870881
    H           -1.708403609079     1.303058201781    -0.473944475193
    H           -2.154415932226     0.717979196254     1.080707987615
    H           -3.092733124348    -0.509368397255    -1.552299665322
    H           -4.065858367903     0.450047540659    -0.456252173504
    H           -3.501945108917    -1.133768269210     0.033007482362
    C            2.874731669366    -0.265745610996     0.121357465719
    H            3.072494365964     0.347509345868    -0.745251205526
    H            3.517631065952    -1.130916255853     0.119470338232
    H            3.040754628814     0.320234732373     1.013130977640

  Mulliken Charges: (a.u.)
   Center  Symbol    Alpha    Beta     Spin     Total
       1     O     4.19616  4.19616  0.00000 -0.39232
       2     C     2.80374  2.80374  0.00000  0.39252
       3     C     3.09936  3.09936  0.00000 -0.19871
       4     O     4.14719  4.14719  0.00000 -0.29439
       5     C     3.08243  3.08243  0.00000 -0.16487
       6     H     0.44138  0.44138  0.00000  0.11723
       7     H     0.43921  0.43921  0.00000  0.12158
       8     C     3.14992  3.14992  0.00000 -0.29985
       9     H     0.44020  0.44020  0.00000  0.11961
      10     H     0.45215  0.45215  0.00000  0.09570
      11     H     0.45517  0.45517  0.00000  0.08966
      12     H     0.44635  0.44635  0.00000  0.10731
      13     H     0.45576  0.45576  0.00000  0.08848
      14     C     3.03694  3.03694  0.00000 -0.07388
      15     H     0.45432  0.45432  0.00000  0.09137
      16     H     0.44534  0.44534  0.00000  0.10932
      17     H     0.45438  0.45438  0.00000  0.09124

   Total alpha = 28.00000, Total beta = 28.00000, Total charge = -0.00000
