                              Psi4 1.0.54 Driver

  ==> Input File <==

--------------------------------------------------------------------------
set {
	reference rhf
	basis cc-pvtz
}

set_num_threads( 4 )
memory 2 gb

molecule MOL {
0 1

O	 0.623971	 1.347241	 -0.000777
C	 0.485107	 0.171416	 -0.000134
C	 1.606966	 -0.836201	 0.000174
O	 -0.695554	 -0.422406	 0.000602
C	 2.988788	 -0.202529	 -0.000115
H	 1.465110	 -1.474645	 -0.864821
H	 1.465209	 -1.474077	 0.865596
H	 3.131767	 0.419673	 -0.873407
H	 3.750876	 -0.972315	 0.000098
H	 3.131883	 0.420264	 0.872742
C	 -0.799032	 -1.692813	 -0.626809
C	 -2.229935	 -2.158713	 -0.492863
H	 -0.112199	 -2.378508	 -0.150961
H	 -0.507383	 -1.599482	 -1.663416
H	 -2.510885	 -2.247482	 0.549039
H	 -2.344090	 -3.128565	 -0.962531
H	 -2.908322	 -1.464076	 -0.972073

	symmetry c1
}
set optking {
	frozen_dihedral = ("
		11 4 2 3
	")
}

ee,wfn = optimize('scf', return_wfn=True)
oeprop( wfn, 'DIPOLE', 'QUADRUPOLE', 'MULLIKEN_CHARGES')
f=open( 'psi4out.xyz', 'w' )
f.write( "17  " )
f.write( str(ee) + "\n" )
f.write( MOL.save_string_xyz() )
f.close()
--------------------------------------------------------------------------

    Molecular point group: c1
  Charge       = 0
  Multiplicity = 1
  Basis Set: CC-PVTZ
  Basis Set:
  @DF-RHF Final Energy:  -345.01681121133248
    Total Energy =                       -345.0168112113326515
    Molecular point group: c1
  Basis Set: CC-PVTZ
  Basis Set:
  Basis Set: CC-PVTZ
  Basis Set:
  @DF-RHF Final Energy:  -345.00805880211641
    Total Energy =                       -345.0080588021163521
  Basis Set: CC-PVTZ
  Basis Set:
  Basis Set: CC-PVTZ
  Basis Set:
  @DF-RHF Final Energy:  -345.02352517968694
    Total Energy =                       -345.0235251796872262
  Basis Set: CC-PVTZ
  Basis Set:
  Basis Set: CC-PVTZ
  Basis Set:
  @DF-RHF Final Energy:  -345.02423505985143
    Total Energy =                       -345.0242350598515486
  Basis Set: CC-PVTZ
  Basis Set:
  @DF-RHF Final Energy:  -345.02442881298634
    Total Energy =                       -345.0244288129863435
  @DF-RHF Final Energy:  -345.02540028125799
    Total Energy =                       -345.0254002812575891
  @DF-RHF Final Energy:  -345.02552066676947
    Total Energy =                       -345.0255206667690686
  Basis Set: CC-PVTZ
  Basis Set:
  @DF-RHF Final Energy:  -345.02555082680533
    Total Energy =                       -345.0255508268052154
  Basis Set: CC-PVTZ
  Basis Set:
  Basis Set: CC-PVTZ
  Basis Set:
  @DF-RHF Final Energy:  -345.02557025448107
    Total Energy =                       -345.0255702544810674
  Basis Set: CC-PVTZ
  Basis Set:
  Basis Set: CC-PVTZ
  Basis Set:
  @DF-RHF Final Energy:  -345.02557194560370
    Total Energy =                       -345.0255719456038719
  Basis Set: CC-PVTZ
  Basis Set:
  Charge       = 0
  Multiplicity = 1
  Basis Set: CC-PVTZ
  Basis Set:

    Orbital Energies (a.u.)
    -----------------------

    Doubly Occupied:

       1A    -20.588797     2A    -20.530228     3A    -11.365086
       4A    -11.296794     5A    -11.244526     6A    -11.225085
       7A    -11.217665     8A     -1.463355     9A     -1.367317
      10A     -1.064190    11A     -1.046426    12A     -0.901904
      13A     -0.880188    14A     -0.771641    15A     -0.706175
      16A     -0.695938    17A     -0.658603    18A     -0.636334
      19A     -0.595994    20A     -0.571743    21A     -0.560805
      22A     -0.538406    23A     -0.526552    24A     -0.520390
      25A     -0.509515    26A     -0.495851    27A     -0.449559
      28A     -0.434016

  @DF-RHF Final Energy:  -345.02557203237615

   => Energetics <=

    Nuclear Repulsion Energy =            315.7995679646274425
    One-Electron Energy =               -1095.9241226064971215
    Two-Electron Energy =                 435.0989826094935893
    DFT Exchange-Correlation Energy =       0.0000000000000000
    Empirical Dispersion Energy =           0.0000000000000000
    PCM Polarization Energy =               0.0000000000000000
    EFP Energy =                            0.0000000000000000
    Total Energy =                       -345.0255720323761466
    Molecular point group: c1
  Basis Set: CC-PVTZ
  Basis Set:

  -Total Gradient:
     Atom            X                  Y                   Z
    ------   -----------------  -----------------  -----------------
       1       -0.000010341321    -0.000011283979    -0.000086700780
       2       -0.000355028528     0.001331256770    -0.003940593335
       3        0.000020174473    -0.000367845978     0.002003896309
       4        0.000895959198    -0.002352276767     0.003856557328
       5        0.000014939492     0.000004457632    -0.000005106868
       6        0.000001671688     0.000003792252    -0.000001928764
       7        0.000003774642     0.000012295641    -0.000008627352
       8       -0.000000354735    -0.000001640617     0.000004696361
       9        0.000003963883    -0.000001984580    -0.000000619786
      10       -0.000007106481    -0.000002632835    -0.000004744018
      11       -0.000569926510     0.001363087831    -0.001813781284
      12       -0.000002610293     0.000010975062    -0.000003717220
      13       -0.000001643746     0.000011011190     0.000002326337
      14        0.000002655781     0.000003640583    -0.000002708791
      15        0.000004515638    -0.000000408309     0.000000849175
      16        0.000001912898    -0.000000110299    -0.000000964643
      17       -0.000002556080    -0.000002333596     0.000001167333

  **** Optimization is complete! (in 11 steps) ****
    Final optimized geometry and variables:
    Molecular point group: c1

    Geometry (in Angstrom), charge = 0, multiplicity = 1:

    O            0.293160748824     1.752615365193     0.512575666420
    C            0.247374709310     0.607062607279     0.239437005024
    C            1.479151368273    -0.256661557485     0.070519607508
    O           -0.938229795098     0.003582216603     0.149098912367
    C            2.772330847667     0.506508991610     0.311916688370
    H            1.474548059948    -0.686413095069    -0.925175381601
    H            1.387976618585    -1.090916409795     0.758441231139
    H            2.871593384779     1.330001115363    -0.381704285806
    H            3.621311151412    -0.154477129875     0.185603983079
    H            2.800363897581     0.915668326264     1.312221882388
    C           -1.153600603926    -1.139613080699    -0.653456385573
    C           -2.631711907285    -1.453293091040    -0.614002402100
    H           -0.580208276762    -1.978685371872    -0.279230627169
    H           -0.836829929030    -0.936658231892    -1.669927843454
    H           -2.949965711524    -1.653367523609     0.400941365586
    H           -2.839783729014    -2.326886874027    -1.220681409861
    H           -3.207342682708    -0.620186350323    -0.994868853407

  Mulliken Charges: (a.u.)
   Center  Symbol    Alpha    Beta     Spin     Total
       1     O     4.17865  4.17865  0.00000 -0.35730
       2     C     2.81433  2.81433  0.00000  0.37133
       3     C     3.12177  3.12177  0.00000 -0.24354
       4     O     4.13395  4.13395  0.00000 -0.26791
       5     C     3.13899  3.13899  0.00000 -0.27799
       6     H     0.44259  0.44259  0.00000  0.11483
       7     H     0.43844  0.43844  0.00000  0.12313
       8     H     0.44638  0.44638  0.00000  0.10724
       9     H     0.45152  0.45152  0.00000  0.09696
      10     H     0.44513  0.44513  0.00000  0.10975
      11     C     2.98670  2.98670  0.00000  0.02660
      12     C     3.13273  3.13273  0.00000 -0.26546
      13     H     0.45953  0.45953  0.00000  0.08093
      14     H     0.45856  0.45856  0.00000  0.08288
      15     H     0.44827  0.44827  0.00000  0.10346
      16     H     0.45668  0.45668  0.00000  0.08664
      17     H     0.44577  0.44577  0.00000  0.10845

   Total alpha = 28.00000, Total beta = 28.00000, Total charge = -0.00000

*** Psi4 exiting successfully. Buy a developer a beer!
