  ==> Input File <==

--------------------------------------------------------------------------
set {
	reference rhf
	basis cc-pvtz
}

set_num_threads( 4 )
memory 2 gb

molecule MOL {
0 1

O	 0.761127	 1.282495	 -0.226275
C	 0.576499	 0.134701	 -0.003900
C	 -0.765656	 -0.550508	 -0.002152
O	 1.549134	 -0.713159	 0.287796
C	 -1.945526	 0.411052	 0.000603
H	 -0.794329	 -1.203792	 -0.868145
H	 -0.791555	 -1.205429	 0.862701
C	 -3.282915	 -0.321280	 0.002596
H	 -1.880300	 1.059126	 -0.864925
H	 -1.877207	 1.057892	 0.866807
H	 -3.388495	 -0.952755	 -0.873419
H	 -4.107811	 0.380864	 0.004116
H	 -3.385717	 -0.953283	 0.878571
C	 2.866268	 -0.201580	 0.325953
H	 3.145251	 0.204573	 -0.634912
H	 3.501584	 -1.035427	 0.576475
H	 2.953224	 0.571826	 1.074501

	symmetry c1
}
set optking {
	frozen_dihedral = ("
		1 2 3 6
	")
}

ee = optimize('scf')
oeprop('DIPOLE', 'QUADRUPOLE', 'MULLIKEN_CHARGES')
f=open( 'psi4out.xyz', 'w' )
f.write( "17  " )
f.write( str(ee) + "\n" )
f.write( MOL.save_string_xyz() )
f.close()
--------------------------------------------------------------------------

    Molecular point group: c1
  Charge       = 0
  Multiplicity = 1
  Basis Set: CC-PVTZ
  Basis Set:
  @DF-RHF Final Energy:  -345.03519300862979
    Total Energy =                       -345.0351930086300740
    Molecular point group: c1
  Basis Set: CC-PVTZ
  Basis Set:
  Basis Set: CC-PVTZ
  Basis Set:
  @DF-RHF Final Energy:  -345.03419030665941
    Total Energy =                       -345.0341903066597524
  Basis Set: CC-PVTZ
  Basis Set:
  Basis Set: CC-PVTZ
  Basis Set:
  @DF-RHF Final Energy:  -345.03528428444076
    Total Energy =                       -345.0352842844404790
  Basis Set: CC-PVTZ
  Basis Set:
  Basis Set: CC-PVTZ
  Basis Set:
  @DF-RHF Final Energy:  -345.03529769414308
    Total Energy =                       -345.0352976941431393
  Basis Set: CC-PVTZ
  Basis Set:
  Charge       = 0
  Multiplicity = 1
  Basis Set: CC-PVTZ
  Basis Set:

    Orbital Energies (a.u.)
    -----------------------

    Doubly Occupied:

       1A    -20.596947     2A    -20.534267     3A    -11.364980
       4A    -11.278774     5A    -11.234320     6A    -11.220371
       7A    -11.212829     8A     -1.472693     9A     -1.366127
      10A     -1.081776    11A     -1.002508    12A     -0.940481
      13A     -0.827874    14A     -0.769627    15A     -0.702559
      16A     -0.686614    17A     -0.676272    18A     -0.637905
      19A     -0.596793    20A     -0.576408    21A     -0.568887
      22A     -0.529230    23A     -0.523504    24A     -0.500579
      25A     -0.487496    26A     -0.479637    27A     -0.460321
      28A     -0.441202

  @DF-RHF Final Energy:  -345.03529792130524

   => Energetics <=

    Nuclear Repulsion Energy =            313.0208294592928837
    One-Electron Energy =               -1090.5702926968081101
    Two-Electron Energy =                 432.5141653162103239
    DFT Exchange-Correlation Energy =       0.0000000000000000
    Empirical Dispersion Energy =           0.0000000000000000
    PCM Polarization Energy =               0.0000000000000000
    EFP Energy =                            0.0000000000000000
    Total Energy =                       -345.0352979213049593
    Molecular point group: c1
  Basis Set: CC-PVTZ
  Basis Set:

  -Total Gradient:
     Atom            X                  Y                   Z
    ------   -----------------  -----------------  -----------------
       1        0.000080647845    -0.000148521011    -0.000515279573
       2       -0.000138070907     0.000270539453     0.000727620359
       3        0.000257904458    -0.000503579142     0.000070217968
       4       -0.000010138672     0.000019853993     0.000037303817
       5       -0.000008114001     0.000008792556    -0.000004030368
       6       -0.000205285071     0.000364942501    -0.000270486087
       7        0.000012785495     0.000006910800    -0.000005803354
       8       -0.000000621192    -0.000005233820     0.000006914390
       9        0.000000243811     0.000003604314    -0.000002009738
      10        0.000005883098    -0.000009219555    -0.000006236654
      11       -0.000001408650     0.000000280138    -0.000001065905
      12        0.000001458584     0.000000639876     0.000003383622
      13       -0.000002495191    -0.000002918475    -0.000001319254
      14        0.000004472863    -0.000017401997    -0.000071461222
      15        0.000019791270     0.000005494390     0.000011732067
      16        0.000004637486     0.000005254963     0.000009624385
      17       -0.000021691224     0.000000561014     0.000010895545

  **** Optimization is complete! (in 5 steps) ****
    Final optimized geometry and variables:
    Molecular point group: c1

    Geometry (in Angstrom), charge = 0, multiplicity = 1:

    O            0.759108606409     1.278965375142    -0.252972987838
    C            0.577825987051     0.130617068496    -0.030204307711
    C           -0.763119943480    -0.557759283137    -0.032936832629
    O            1.556547255353    -0.719282186713     0.233345958851
    C           -1.943667531366     0.403372230284    -0.065654570042
    H           -0.775540178162    -1.208767606895    -0.902549534996
    H           -0.806384179432    -1.210588067998     0.830987333063
    C           -3.280368055150    -0.329665600034    -0.090983656329
    H           -1.856460649535     1.046152197012    -0.932387508132
    H           -1.898169758557     1.055187969835     0.799377999536
    H           -3.365141781753    -0.964251169360    -0.967091650737
    H           -4.105443595585     0.372051899372    -0.111238246913
    H           -3.403251445439    -0.958713799772     0.784550429565
    C            2.875435904767    -0.211257887647     0.229438396671
    H            3.125760502131     0.192883488477    -0.740254401931
    H            3.516612065809    -1.046048097037     0.461535523044
    H            2.987517516788     0.563223264288     0.973556835532

  Mulliken Charges: (a.u.)
   Center  Symbol    Alpha    Beta     Spin     Total
       1     O     4.19714  4.19714  0.00000 -0.39428
       2     C     2.80801  2.80801  0.00000  0.38398
       3     C     3.09413  3.09413  0.00000 -0.18827
       4     O     4.14648  4.14648  0.00000 -0.29296
       5     C     3.07921  3.07921  0.00000 -0.15841
       6     H     0.44278  0.44278  0.00000  0.11444
       7     H     0.43963  0.43963  0.00000  0.12074
       8     C     3.15127  3.15127  0.00000 -0.30254
       9     H     0.44418  0.44418  0.00000  0.11164
      10     H     0.44910  0.44910  0.00000  0.10180
      11     H     0.45558  0.45558  0.00000  0.08884
      12     H     0.44561  0.44561  0.00000  0.10877
      13     H     0.45596  0.45596  0.00000  0.08807
      14     C     3.03702  3.03702  0.00000 -0.07405
      15     H     0.45441  0.45441  0.00000  0.09119
      16     H     0.44523  0.44523  0.00000  0.10955
      17     H     0.45426  0.45426  0.00000  0.09147

   Total alpha = 28.00000, Total beta = 28.00000, Total charge = -0.00000
