  ==> Input File <==

--------------------------------------------------------------------------
set {
	reference rhf
	basis 6-31G*
}

set_num_threads( 4 )
memory 2 gb

molecule MOL {
0 1

O	 -2.821601	 1.309235	 -0.001213
C	 -2.668563	 0.129746	 -0.000350
C	 -3.801572	 -0.864014	 -0.000442
O	 -1.481751	 -0.454642	 0.000584
H	 -4.417280	 -0.689587	 -0.874708
H	 -3.443784	 -1.883046	 -0.000565
H	 -4.417179	 -0.689832	 0.873954
C	 -0.334255	 0.388708	 0.000906
C	 0.891947	 -0.504646	 0.000751
H	 -0.365390	 1.025305	 -0.873475
H	 -0.365484	 1.024911	 0.875569
C	 2.191998	 0.301789	 0.000897
H	 0.855148	 -1.151283	 -0.871571
H	 0.855132	 -1.151660	 0.872805
C	 2.103657	 1.574550	 0.845054
H	 3.005065	 -0.318876	 0.373435
H	 2.455059	 0.568017	 -1.021357
C	 3.402603	 2.379289	 0.846250
H	 1.841208	 1.310307	 1.866999
H	 1.293136	 2.197030	 0.472704
H	 4.226205	 1.794109	 1.245323
H	 3.308921	 3.274642	 1.452717
H	 3.673832	 2.687781	 -0.159372

	symmetry c1
}
set optking {
	frozen_dihedral = ("
		16 12 9 13
	")
}

ee = optimize('scf')
oeprop('DIPOLE', 'QUADRUPOLE', 'MULLIKEN_CHARGES')
f=open( 'psi4out.xyz', 'w' )
f.write( "23  " )
f.write( str(ee) + "\n" )
f.write( MOL.save_string_xyz() )
f.close()
--------------------------------------------------------------------------

    Molecular point group: c1
  Charge       = 0
  Multiplicity = 1
  Basis Set: 6-31G*
  Basis Set:
  @DF-RHF Final Energy:  -422.97285645870164
    Total Energy =                       -422.9728564587021538
    Molecular point group: c1
  Basis Set: 6-31G*
  Basis Set:
  Basis Set: 6-31G*
  Basis Set:
  @DF-RHF Final Energy:  -422.97373135541449
    Total Energy =                       -422.9737313554148841
  Basis Set: 6-31G*
  Basis Set:
  Basis Set: 6-31G*
  Basis Set:
  @DF-RHF Final Energy:  -422.97514595878044
    Total Energy =                       -422.9751459587799900
  Basis Set: 6-31G*
  Basis Set:
  Basis Set: 6-31G*
  Basis Set:
  @DF-RHF Final Energy:  -422.97528353876174
    Total Energy =                       -422.9752835387614596
  Basis Set: 6-31G*
  Basis Set:
  @DF-RHF Final Energy:  -422.97502217651777
    Total Energy =                       -422.9750221765181095
  Basis Set: 6-31G*
  Basis Set:
  @DF-RHF Final Energy:  -422.97528350269704
    Total Energy =                       -422.9752835026973798
  Basis Set: 6-31G*
  Basis Set:
  Basis Set: 6-31G*
  Basis Set:
  @DF-RHF Final Energy:  -422.97530330493771
    Total Energy =                       -422.9753033049377109
  Basis Set: 6-31G*
  Basis Set:
  Basis Set: 6-31G*
  Basis Set:
  @DF-RHF Final Energy:  -422.97529999611726
    Total Energy =                       -422.9752999961168598
  Basis Set: 6-31G*
  Basis Set:
  Charge       = 0
  Multiplicity = 1
  Basis Set: 6-31G*
  Basis Set:

    Orbital Energies (a.u.)
    -----------------------

    Doubly Occupied:

       1A    -20.602580     2A    -20.540288     3A    -11.373841
       4A    -11.280582     5A    -11.232212     6A    -11.224627
       7A    -11.223961     8A    -11.221908     9A    -11.213047
      10A     -1.467557    11A     -1.360431    12A     -1.093381
      13A     -1.039875    14A     -1.001996    15A     -0.931113
      16A     -0.852211    17A     -0.788792    18A     -0.778521
      19A     -0.690765    20A     -0.684453    21A     -0.667797
      22A     -0.641931    23A     -0.608412    24A     -0.587664
      25A     -0.577317    26A     -0.571388    27A     -0.565141
      28A     -0.528018    29A     -0.526453    30A     -0.511786
      31A     -0.497337    32A     -0.474747    33A     -0.467338
      34A     -0.459133    35A     -0.449773    36A     -0.435567

  @DF-RHF Final Energy:  -422.97530515173696

   => Energetics <=

    Nuclear Repulsion Energy =            457.2677125505560980
    One-Electron Energy =               -1482.1421537333233118
    Two-Electron Energy =                 601.8991360310301388
    DFT Exchange-Correlation Energy =       0.0000000000000000
    Empirical Dispersion Energy =           0.0000000000000000
    PCM Polarization Energy =               0.0000000000000000
    EFP Energy =                            0.0000000000000000
    Total Energy =                       -422.9753051517370750
    Molecular point group: c1
  Basis Set: 6-31G*
  Basis Set:

  -Total Gradient:
     Atom            X                  Y                   Z
    ------   -----------------  -----------------  -----------------
       1        0.000001732120     0.000001286252     0.000002706999
       2       -0.000006824057    -0.000000247081    -0.000010936820
       3       -0.000002406526    -0.000001585856     0.000006817424
       4       -0.000000324958    -0.000003164246    -0.000005073382
       5        0.000001420009     0.000000121535    -0.000000670777
       6        0.000000398834     0.000000415997    -0.000000036654
       7       -0.000001194179    -0.000000211358    -0.000000818838
       8        0.000000888673    -0.000004120858     0.000018334898
       9        0.002950132735    -0.004298349264     0.004415122938
      10       -0.000000918060     0.000000475127    -0.000002170456
      11        0.000003183112    -0.000001686410    -0.000004395961
      12        0.000317549072    -0.001253026437    -0.006612102889
      13       -0.002528627852     0.003805542557    -0.002724154979
      14       -0.000004214416     0.000000912977     0.000000298308
      15       -0.000000806660    -0.000001606733    -0.000005125109
      16       -0.000738115698     0.001752151532     0.004920601155
      17        0.000001854934     0.000001656774     0.000000737373
      18        0.000004762784     0.000001233753     0.000001012900
      19        0.000000310614     0.000000514632    -0.000001204495
      20        0.000000754823    -0.000000286239     0.000000561196
      21        0.000000426810     0.000000254550    -0.000000431971
      22        0.000000023499    -0.000000182905     0.000000163566
      23       -0.000000005601    -0.000000098296     0.000000765574

  **** Optimization is complete! (in 9 steps) ****
    Final optimized geometry and variables:
    Molecular point group: c1

    Geometry (in Angstrom), charge = 0, multiplicity = 1:

    O           -2.624140899297     0.764721665107    -0.185208577242
    C           -2.418855486818    -0.406619681669    -0.210398268916
    C           -3.506512096397    -1.448068669355    -0.272092274518
    O           -1.208172361658    -0.939026922213    -0.187650819962
    H           -4.102843846814    -1.276264312722    -1.160198010933
    H           -3.104338432144    -2.450295008927    -0.287909569310
    H           -4.155157656566    -1.324969311773     0.586978207790
    C           -0.098844808382    -0.046545158650    -0.125955423845
    C            1.157410402371    -0.903575598794    -0.103817679828
    H           -0.124196403448     0.604061755825    -0.990868832206
    H           -0.199356445498     0.568511457963     0.756060482129
    C            2.465427112595    -0.098661789372    -0.193671562352
    H            1.088349195741    -1.564242579773    -0.962456467188
    H            1.146199012794    -1.517710353580     0.790903459247
    C            2.511233066276     1.179100005162     0.654829566145
    H            3.273571579347    -0.736496799261     0.154775130420
    H            2.674026045518     0.153667422783    -1.230045199611
    C            3.886738284286     1.844665314635     0.622901855678
    H            2.251334487330     0.940502575293     1.684345546984
    H            1.768072847306     1.891625368452     0.307611128658
    H            4.653654327263     1.180451658189     1.011047743134
    H            3.898433740568     2.749899523261     1.221590426667
    H            4.167054508214     2.115284450901    -0.391198640629

  Mulliken Charges: (a.u.)
   Center  Symbol    Alpha    Beta     Spin     Total
       1     O     4.28408  4.28408  0.00000 -0.56817
       2     C     2.61542  2.61542  0.00000  0.76916
       3     C     3.28778  3.28778  0.00000 -0.57556
       4     O     4.31343  4.31343  0.00000 -0.62686
       5     H     0.39756  0.39756  0.00000  0.20487
       6     H     0.39991  0.39991  0.00000  0.20019
       7     H     0.39757  0.39757  0.00000  0.20486
       8     C     2.99980  2.99980  0.00000  0.00041
       9     C     3.16518  3.16518  0.00000 -0.33037
      10     H     0.41146  0.41146  0.00000  0.17708
      11     H     0.40802  0.40802  0.00000  0.18396
      12     C     3.15868  3.15868  0.00000 -0.31736
      13     H     0.41179  0.41179  0.00000  0.17643
      14     H     0.41382  0.41382  0.00000  0.17236
      15     C     3.16045  3.16045  0.00000 -0.32090
      16     H     0.41790  0.41790  0.00000  0.16419
      17     H     0.41917  0.41917  0.00000  0.16165
      18     C     3.23916  3.23916  0.00000 -0.47832
      19     H     0.42124  0.42124  0.00000  0.15751
      20     H     0.41836  0.41836  0.00000  0.16327
      21     H     0.42122  0.42122  0.00000  0.15756
      22     H     0.41722  0.41722  0.00000  0.16556
      23     H     0.42077  0.42077  0.00000  0.15847

   Total alpha = 36.00000, Total beta = 36.00000, Total charge =  0.00000
