  ==> Input File <==

--------------------------------------------------------------------------
set {
	reference rhf
	basis 6-31G*
}

set_num_threads( 4 )
memory 2 gb

molecule MOL {
0 1

O	 -2.042549	 -1.228399	 -0.269030
C	 -1.653912	 -0.146171	 0.050137
C	 -0.332303	 0.024011	 0.778412
C	 -2.438579	 1.106236	 -0.272369
C	 0.845713	 -0.001731	 -0.208243
H	 -0.323783	 0.953829	 1.340327
H	 -0.235459	 -0.796807	 1.480410
C	 0.647080	 -1.015296	 -1.336188
H	 1.766538	 -0.233755	 0.324044
H	 0.969683	 0.993158	 -0.625340
C	 1.812967	 -1.036670	 -2.323841
H	 0.514356	 -2.007874	 -0.911217
H	 -0.273085	 -0.783564	 -1.867378
H	 2.743123	 -1.299143	 -1.827886
H	 1.949477	 -0.065107	 -2.789537
H	 1.643517	 -1.761609	 -3.113637
H	 -3.277823	 0.863061	 -0.908988
H	 -1.806773	 1.843019	 -0.759671
H	 -2.802853	 1.554979	 0.648059

	symmetry c1
}
set optking {
	frozen_dihedral = ("
		9 5 3 2
	")
}

ee = optimize('scf')
oeprop('DIPOLE', 'QUADRUPOLE', 'MULLIKEN_CHARGES')
f=open( 'psi4out.xyz', 'w' )
f.write( "19  " )
f.write( str(ee) + "\n" )
f.write( MOL.save_string_xyz() )
f.close()
--------------------------------------------------------------------------

    Molecular point group: c1
  Charge       = 0
  Multiplicity = 1
  Basis Set: 6-31G*
  Basis Set:
  @DF-RHF Final Energy:  -309.05812731773710
    Total Energy =                       -309.0581273177371031
    Molecular point group: c1
  Basis Set: 6-31G*
  Basis Set:
  Basis Set: 6-31G*
  Basis Set:
  @DF-RHF Final Energy:  -309.06075036287552
    Total Energy =                       -309.0607503628756945
  Basis Set: 6-31G*
  Basis Set:
  Basis Set: 6-31G*
  Basis Set:
  @DF-RHF Final Energy:  -309.05912682578634
    Total Energy =                       -309.0591268257861657
  Basis Set: 6-31G*
  Basis Set:
  Basis Set: 6-31G*
  Basis Set:
  @DF-RHF Final Energy:  -309.06151545705455
    Total Energy =                       -309.0615154570544973
  Basis Set: 6-31G*
  Basis Set:
  @DF-RHF Final Energy:  -309.06196775777283
    Total Energy =                       -309.0619677577727771
  @DF-RHF Final Energy:  -309.06209824809247
    Total Energy =                       -309.0620982480920702
  Basis Set: 6-31G*
  Basis Set:
  @DF-RHF Final Energy:  -309.06215805012386
    Total Energy =                       -309.0621580501239691
  Basis Set: 6-31G*
  Basis Set:
  Basis Set: 6-31G*
  Basis Set:
  @DF-RHF Final Energy:  -309.06220723719798
    Total Energy =                       -309.0622072371980948
  Basis Set: 6-31G*
  Basis Set:
  Basis Set: 6-31G*
  Basis Set:
  @DF-RHF Final Energy:  -309.06220969840024
    Total Energy =                       -309.0622096984000109
  Basis Set: 6-31G*
  Basis Set:
  Charge       = 0
  Multiplicity = 1
  Basis Set: 6-31G*
  Basis Set:

    Orbital Energies (a.u.)
    -----------------------

    Doubly Occupied:

       1A    -20.548427     2A    -11.324342     3A    -11.232700
       4A    -11.229590     5A    -11.227840     6A    -11.222051
       7A    -11.214169     8A     -1.393815     9A     -1.090934
      10A     -1.026420    11A     -0.982949    12A     -0.890999
      13A     -0.812118    14A     -0.727738    15A     -0.659250
      16A     -0.644426    17A     -0.620992    18A     -0.615887
      19A     -0.583531    20A     -0.572744    21A     -0.555022
      22A     -0.541436    23A     -0.510119    24A     -0.496145
      25A     -0.485827    26A     -0.472173    27A     -0.464097
      28A     -0.397604

  @DF-RHF Final Energy:  -309.06221014242340

   => Energetics <=

    Nuclear Repulsion Energy =            309.3897200223924528
    One-Electron Energy =               -1031.8171723877271688
    Two-Electron Energy =                 413.3652422229109789
    DFT Exchange-Correlation Energy =       0.0000000000000000
    Empirical Dispersion Energy =           0.0000000000000000
    PCM Polarization Energy =               0.0000000000000000
    EFP Energy =                            0.0000000000000000
    Total Energy =                       -309.0622101424237371
    Molecular point group: c1
  Basis Set: 6-31G*
  Basis Set:

  -Total Gradient:
     Atom            X                  Y                   Z
    ------   -----------------  -----------------  -----------------
       1       -0.000001200119    -0.000011832548     0.000003504233
       2        0.000307991103    -0.003555390808     0.000050326125
       3       -0.000565661535     0.004060210778    -0.000383050004
       4       -0.000057445828     0.000011459119     0.000065527184
       5        0.000999552857     0.004107025810     0.001356989598
       6        0.000021781421    -0.000006773820    -0.000008379737
       7       -0.000008348341    -0.000020322102     0.000016025177
       8        0.000011649645    -0.000005047508     0.000029643867
       9       -0.000735602341    -0.004594529787    -0.001073399112
      10       -0.000011635089    -0.000007028166    -0.000015420956
      11        0.000025125329    -0.000006896362     0.000015964776
      12       -0.000000721139     0.000017633833    -0.000016813199
      13       -0.000019547379     0.000024672433     0.000007810809
      14       -0.000004427639     0.000014981971    -0.000000896573
      15       -0.000011432424     0.000000832628    -0.000001395147
      16        0.000007335381    -0.000014137963    -0.000014940517
      17        0.000001552624    -0.000005284539    -0.000004005872
      18        0.000025632397    -0.000018724367    -0.000013317726
      19        0.000015401077     0.000009151399    -0.000014172926

  **** Optimization is complete! (in 10 steps) ****
    Final optimized geometry and variables:
    Molecular point group: c1

    Geometry (in Angstrom), charge = 0, multiplicity = 1:

    O           -1.817469410099    -0.891047164528     0.691250609164
    C           -1.232556477676     0.148767987866     0.678983587028
    C            0.157160513437     0.278388336717     1.277068230311
    C           -1.848519842818     1.393754798347     0.075858880546
    C            1.288383442403     0.343710756003     0.227511447430
    H            0.202049439101     1.159346356392     1.911874531300
    H            0.298483505545    -0.593108903993     1.905041657487
    C            1.116836003910    -0.622239925482    -0.950921519279
    H            2.212104769409     0.076591693231     0.732567433014
    H            1.405083710840     1.357894434560    -0.144591269602
    C            2.333634456904    -0.627808561723    -1.875429785759
    H            0.939762578068    -1.624629919770    -0.571097678570
    H            0.233875606731    -0.360129036366    -1.528132126747
    H            3.229776442714    -0.935107403049    -1.343943135995
    H            2.518021811345     0.359700698402    -2.289532959249
    H            2.190243285118    -1.312423906649    -2.705163690499
    H           -2.767397284678     1.139293250922    -0.433958489858
    H           -1.164262455563     1.873518854889    -0.617056490988
    H           -2.063339947798     2.110950305513     0.863671804685

  Mulliken Charges: (a.u.)
   Center  Symbol    Alpha    Beta     Spin     Total
       1     O     4.26217  4.26217  0.00000 -0.52434
       2     C     2.73536  2.73536  0.00000  0.52928
       3     C     3.20310  3.20310  0.00000 -0.40620
       4     C     3.28936  3.28936  0.00000 -0.57873
       5     C     3.16014  3.16014  0.00000 -0.32027
       6     H     0.41281  0.41281  0.00000  0.17438
       7     H     0.40030  0.40030  0.00000  0.19940
       8     C     3.15971  3.15971  0.00000 -0.31942
       9     H     0.41358  0.41358  0.00000  0.17283
      10     H     0.41978  0.41978  0.00000  0.16044
      11     C     3.24011  3.24011  0.00000 -0.48021
      12     H     0.41089  0.41089  0.00000  0.17823
      13     H     0.42006  0.42006  0.00000  0.15988
      14     H     0.42078  0.42078  0.00000  0.15844
      15     H     0.42229  0.42229  0.00000  0.15543
      16     H     0.41592  0.41592  0.00000  0.16817
      17     H     0.39687  0.39687  0.00000  0.20626
      18     H     0.40977  0.40977  0.00000  0.18047
      19     H     0.40702  0.40702  0.00000  0.18596

   Total alpha = 28.00000, Total beta = 28.00000, Total charge =  0.00000
