  ==> Input File <==

--------------------------------------------------------------------------
set {
	reference rhf
	basis 6-31G*
}

set_num_threads( 4 )
memory 2 gb

molecule MOL {
0 1

H	 -2.566324	 -0.436642	 0.989333
O	 -2.347518	 -0.290803	 0.079804
C	 -1.184022	 0.487508	 -0.006784
C	 0.062599	 -0.378592	 0.031606
H	 -1.176523	 1.099369	 -0.904519
H	 -1.187323	 1.153111	 0.844927
O	 1.171513	 0.459272	 -0.058250
H	 0.050699	 -1.089204	 -0.797170
H	 0.078739	 -0.954914	 0.954740
C	 2.397842	 -0.198080	 -0.002151
H	 2.508049	 -0.905315	 -0.822092
H	 3.173794	 0.550865	 -0.078850
H	 2.517602	 -0.735921	 0.936026

	symmetry c1
}
set optking {
	frozen_dihedral = ("
		1 2 3 5
	")
}

ee = optimize('scf')
oeprop('DIPOLE', 'QUADRUPOLE', 'MULLIKEN_CHARGES')
f=open( 'psi4out.xyz', 'w' )
f.write( "13  " )
f.write( str(ee) + "\n" )
f.write( MOL.save_string_xyz() )
f.close()
--------------------------------------------------------------------------

    Molecular point group: c1
  Charge       = 0
  Multiplicity = 1
  Basis Set: 6-31G*
  Basis Set:
  @DF-RHF Final Energy:  -267.94873474902965
    Total Energy =                       -267.9487347490297111
    Molecular point group: c1
  Basis Set: 6-31G*
  Basis Set:
  Basis Set: 6-31G*
  Basis Set:
  @DF-RHF Final Energy:  -267.94997839302630
    Total Energy =                       -267.9499783930262424
  Basis Set: 6-31G*
  Basis Set:
  Basis Set: 6-31G*
  Basis Set:
  @DF-RHF Final Energy:  -267.95034100293606
    Total Energy =                       -267.9503410029361703
  Basis Set: 6-31G*
  Basis Set:
  Basis Set: 6-31G*
  Basis Set:
  @DF-RHF Final Energy:  -267.95034844699853
    Total Energy =                       -267.9503484469983619
  Basis Set: 6-31G*
  Basis Set:
  Charge       = 0
  Multiplicity = 1
  Basis Set: 6-31G*
  Basis Set:

    Orbital Energies (a.u.)
    -----------------------

    Doubly Occupied:

       1A    -20.560968     2A    -20.559558     3A    -11.269310
       4A    -11.269202     5A    -11.268442     6A     -1.387238
       7A     -1.364406     8A     -1.017979     9A     -0.912619
      10A     -0.838892    11A     -0.711309    12A     -0.674201
      13A     -0.656116    14A     -0.638752    15A     -0.597637
      16A     -0.562961    17A     -0.545762    18A     -0.485426
      19A     -0.484804    20A     -0.437905    21A     -0.420630

  @DF-RHF Final Energy:  -267.95034912905669

   => Energetics <=

    Nuclear Repulsion Energy =            190.1651693531474052
    One-Electron Energy =                -742.9028019597099046
    Two-Electron Energy =                 284.7872834775056958
    DFT Exchange-Correlation Energy =       0.0000000000000000
    Empirical Dispersion Energy =           0.0000000000000000
    PCM Polarization Energy =               0.0000000000000000
    EFP Energy =                            0.0000000000000000
    Total Energy =                       -267.9503491290568604
    Molecular point group: c1
  Basis Set: 6-31G*
  Basis Set:

  -Total Gradient:
     Atom            X                  Y                   Z
    ------   -----------------  -----------------  -----------------
       1       -0.000615397157     0.000904690247    -0.000057829756
       2        0.000628668944    -0.000950199224     0.000177960940
       3        0.000400463226    -0.000697556316    -0.000512731760
       4       -0.000038574472     0.000046099812    -0.000025844437
       5       -0.000419706380     0.000693828404     0.000428666632
       6        0.000001359817    -0.000005501187     0.000001098825
       7        0.000034961972    -0.000009317364    -0.000001028118
       8       -0.000001217135    -0.000016509828    -0.000002739959
       9       -0.000011009366     0.000023695645    -0.000016005405
      10        0.000014781162     0.000015642138     0.000013418383
      11       -0.000006284410     0.000003496633    -0.000001546681
      12        0.000006459514    -0.000004033415    -0.000002406321
      13        0.000005494292    -0.000004335546    -0.000001012342

  **** Optimization is complete! (in 5 steps) ****
    Final optimized geometry and variables:
    Molecular point group: c1

    Geometry (in Angstrom), charge = 0, multiplicity = 1:

    H           -2.603707333170    -0.434101430094     0.927674124841
    O           -2.342021896733    -0.306746019768     0.027784490194
    C           -1.183587189283     0.484993837975    -0.024856317385
    C            0.062780978110    -0.379353723563     0.023159000029
    H           -1.209075476748     1.039631446493    -0.953049953413
    H           -1.156166149997     1.208493737249     0.784626485280
    O            1.172419630438     0.461362082737    -0.043050492847
    H            0.051878552634    -1.081030054142    -0.808635655224
    H            0.076066819019    -0.963384606174     0.944329413498
    C            2.397797757996    -0.200029047605    -0.042357115902
    H            2.489503959637    -0.867221186653    -0.896957284464
    H            3.174428659216     0.550228907433    -0.097919986834
    H            2.534588116409    -0.782613078365     0.866763986240

  Mulliken Charges: (a.u.)
   Center  Symbol    Alpha    Beta     Spin     Total
       1     H     0.27958  0.27958  0.00000  0.44084
       2     O     4.37220  4.37220  0.00000 -0.74441
       3     C     3.00698  3.00698  0.00000 -0.01397
       4     C     2.99360  2.99360  0.00000  0.01280
       5     H     0.40968  0.40968  0.00000  0.18064
       6     H     0.42270  0.42270  0.00000  0.15459
       7     O     4.30828  4.30828  0.00000 -0.61656
       8     H     0.42348  0.42348  0.00000  0.15304
       9     H     0.43551  0.43551  0.00000  0.12898
      10     C     3.07968  3.07968  0.00000 -0.15937
      11     H     0.42781  0.42781  0.00000  0.14437
      12     H     0.41114  0.41114  0.00000  0.17773
      13     H     0.42935  0.42935  0.00000  0.14131

   Total alpha = 21.00000, Total beta = 21.00000, Total charge = -0.00000
