                              Psi4 1.0.54 Driver

  ==> Input File <==

--------------------------------------------------------------------------
set {
	reference rhf
	basis cc-pvtz
}

set_num_threads( 4 )
memory 2 gb

molecule MOL {
0 1

H	 2.418166	 0.975280	 -2.475851
O	 2.815234	 0.359063	 -3.062743
C	 3.079621	 -0.846563	 -2.395031
C	 1.829716	 -1.660510	 -2.095180
H	 3.730118	 -1.410423	 -3.049932
H	 3.632036	 -0.658342	 -1.476411
C	 0.872509	 -0.998739	 -1.106412
H	 1.312574	 -1.856261	 -3.029741
H	 2.144856	 -2.623657	 -1.700930
C	 -0.353695	 -1.859121	 -0.804743
H	 0.553027	 -0.040804	 -1.503016
H	 1.400680	 -0.792321	 -0.177050
C	 -1.311023	 -1.277304	 0.237018
H	 -0.897051	 -2.042485	 -1.728522
H	 -0.015812	 -2.830874	 -0.455457
C	 -2.041121	 -0.006551	 -0.194127
H	 -2.050863	 -2.034787	 0.480709
H	 -0.764549	 -1.083350	 1.157291
C	 -3.489218	 0.042606	 0.286507
H	 -2.022185	 0.066287	 -1.279394
H	 -1.518764	 0.869305	 0.178730
C	 -4.219984	 1.311773	 -0.139038
H	 -4.022855	 -0.824300	 -0.093339
H	 -3.510372	 -0.038577	 1.370031
H	 -4.244251	 1.405725	 -1.219696
H	 -5.244345	 1.313233	 0.215630
H	 -3.732090	 2.196311	 0.257073

	symmetry c1
}
set optking {
	frozen_dihedral = ("
		10 13 16 20
	")
}

ee,wfn = optimize('scf', return_wfn=True)
oeprop( wfn, 'DIPOLE', 'QUADRUPOLE', 'MULLIKEN_CHARGES')
f=open( 'psi4out.xyz', 'w' )
f.write( "27  " )
f.write( str(ee) + "\n" )
f.write( MOL.save_string_xyz() )
f.close()
--------------------------------------------------------------------------

    Molecular point group: c1
  Charge       = 0
  Multiplicity = 1
  Basis Set: CC-PVTZ
  Basis Set:
  @DF-RHF Final Energy:  -388.42457031970804
    Total Energy =                       -388.4245703197079820
    Molecular point group: c1
  Basis Set: CC-PVTZ
  Basis Set:
  Basis Set: CC-PVTZ
  Basis Set:
  @DF-RHF Final Energy:  -388.42479398397990
    Total Energy =                       -388.4247939839794981
  Basis Set: CC-PVTZ
  Basis Set:
  Basis Set: CC-PVTZ
  Basis Set:
  @DF-RHF Final Energy:  -388.42489373193098
    Total Energy =                       -388.4248937319312063
  Basis Set: CC-PVTZ
  Basis Set:
  Basis Set: CC-PVTZ
  Basis Set:
  @DF-RHF Final Energy:  -388.42490112347173
    Total Energy =                       -388.4249011234714999
  Basis Set: CC-PVTZ
  Basis Set:
  Basis Set: CC-PVTZ
  Basis Set:
  @DF-RHF Final Energy:  -388.42490212512212
    Total Energy =                       -388.4249021251223439
  Basis Set: CC-PVTZ
  Basis Set:
  Charge       = 0
  Multiplicity = 1
  Basis Set: CC-PVTZ
  Basis Set:

    Orbital Energies (a.u.)
    -----------------------

    Doubly Occupied:

       1A    -20.545215     2A    -11.264892     3A    -11.216603
       4A    -11.214750     5A    -11.214351     6A    -11.213175
       7A    -11.212936     8A    -11.212012     9A    -11.207100
      10A     -1.363123    11A     -1.095710    12A     -1.062076
      13A     -1.012453    14A     -0.948475    15A     -0.888811
      16A     -0.821352    17A     -0.803332    18A     -0.777148
      19A     -0.696097    20A     -0.654905    21A     -0.631011
      22A     -0.617134    23A     -0.604585    24A     -0.586362
      25A     -0.579024    26A     -0.554431    27A     -0.539000
      28A     -0.532712    29A     -0.506196    30A     -0.495495
      31A     -0.484226    32A     -0.475664    33A     -0.471332
      34A     -0.456059    35A     -0.452832    36A     -0.443348
      37A     -0.425042

  @DF-RHF Final Energy:  -388.42490230901893

   => Energetics <=

    Nuclear Repulsion Energy =            460.5144388200467915
    One-Electron Energy =               -1439.3207338937543227
    Two-Electron Energy =                 590.3813927646881439
    DFT Exchange-Correlation Energy =       0.0000000000000000
    Empirical Dispersion Energy =           0.0000000000000000
    PCM Polarization Energy =               0.0000000000000000
    EFP Energy =                            0.0000000000000000
    Total Energy =                       -388.4249023090194441
    Molecular point group: c1
  Basis Set: CC-PVTZ
  Basis Set:

  -Total Gradient:
     Atom            X                  Y                   Z
    ------   -----------------  -----------------  -----------------
       1        0.000000898004     0.000001049397     0.000001795318
       2       -0.000006122279     0.000001400952    -0.000002797051
       3        0.000005261308    -0.000004838984     0.000002119912
       4        0.000002508909     0.000011338156    -0.000004910373
       5        0.000001320939     0.000000529763    -0.000000732536
       6       -0.000000667690    -0.000000363165    -0.000000280029
       7        0.000017970123    -0.000016805143    -0.000000831765
       8       -0.000001383098    -0.000002320358    -0.000001133852
       9       -0.000000816357     0.000001889526     0.000001199634
      10       -0.002113351625    -0.001581947471    -0.001074676037
      11        0.000001253768    -0.000009243064    -0.000002719846
      12        0.000004450819     0.000005229379     0.000005800395
      13        0.003761761291     0.002758994897     0.001519997377
      14       -0.000003812188    -0.000009678927    -0.000001164817
      15       -0.000000583185     0.000014618866     0.000000059086
      16       -0.004998759716    -0.003147104742    -0.000619424983
      17       -0.000024381692     0.000012222579     0.000009508248
      18       -0.000006464450     0.000017545596     0.000000670744
      19        0.000001295292    -0.000024238161    -0.000014627592
      20        0.003332573187     0.001976759430     0.000165799007
      21        0.000021196906     0.000002050081     0.000010746241
      22        0.000008701368    -0.000003155886     0.000000221945
      23       -0.000010745157    -0.000000984065     0.000005279816
      24        0.000001085407     0.000002767424    -0.000002471112
      25        0.000000365393    -0.000002289521    -0.000000984248
      26        0.000005519547    -0.000004634844     0.000002866559
      27        0.000000925176     0.000001208282     0.000000689958

  **** Optimization is complete! (in 6 steps) ****
    Final optimized geometry and variables:
    Molecular point group: c1

    Geometry (in Angstrom), charge = 0, multiplicity = 1:

    H            2.626996547923     1.516441148726    -1.396414204001
    O            3.020898236894     0.919439410495    -2.004748925297
    C            3.318488956247    -0.295722318780    -1.369228081147
    C            2.087667198965    -1.133401045363    -1.056482209805
    H            3.960790723324    -0.836307167112    -2.051262648290
    H            3.890254661878    -0.118424284049    -0.460376506254
    C            1.142303641689    -0.502797734876    -0.036868205877
    H            1.553471492502    -1.321525139698    -1.982925985513
    H            2.425307992708    -2.098105367849    -0.685249252343
    C           -0.058824681777    -1.388258712803     0.290506702980
    H            0.790340745339     0.452961721318    -0.412754233073
    H            1.689274954386    -0.293918467569     0.880917876588
    C           -1.021968793454    -0.792900133922     1.317930515233
    H           -0.605965999028    -1.603636754619    -0.623778228370
    H            0.302933708319    -2.343215557099     0.661568108051
    C           -1.756026835707     0.475164656224     0.851711568205
    H           -1.759210066118    -1.554503836203     1.555133475800
    H           -0.492598278741    -0.593435505592     2.245146066836
    C           -3.193897910401     0.567470385664     1.352246617021
    H           -1.735953075905     0.535502457866    -0.233346578107
    H           -1.213182513662     1.354103802721     1.189868446872
    C           -3.894007509488     1.856529610408     0.936733335983
    H           -3.756164852031    -0.284946749694     0.981056543393
    H           -3.200423900353     0.486244586035     2.436104774062
    H           -3.927068060826     1.952770880888    -0.143527634650
    H           -4.914103888990     1.885086621852     1.302227954759
    H           -3.377927356203     2.726618380389     1.328870263947

  Mulliken Charges: (a.u.)
   Center  Symbol    Alpha    Beta     Spin     Total
       1     H     0.39213  0.39213  0.00000  0.21573
       2     O     4.20572  4.20572  0.00000 -0.41145
       3     C     2.97982  2.97982  0.00000  0.04037
       4     C     3.08996  3.08996  0.00000 -0.17992
       5     H     0.44861  0.44861  0.00000  0.10277
       6     H     0.46970  0.46970  0.00000  0.06059
       7     C     3.10095  3.10095  0.00000 -0.20191
       8     H     0.45083  0.45083  0.00000  0.09834
       9     H     0.45497  0.45497  0.00000  0.09005
      10     C     3.09884  3.09884  0.00000 -0.19769
      11     H     0.45486  0.45486  0.00000  0.09028
      12     H     0.45364  0.45364  0.00000  0.09272
      13     C     3.10029  3.10029  0.00000 -0.20057
      14     H     0.45194  0.45194  0.00000  0.09611
      15     H     0.44812  0.44812  0.00000  0.10375
      16     C     3.09429  3.09429  0.00000 -0.18858
      17     H     0.44876  0.44876  0.00000  0.10248
      18     H     0.45088  0.45088  0.00000  0.09825
      19     C     3.08314  3.08314  0.00000 -0.16629
      20     H     0.45224  0.45224  0.00000  0.09551
      21     H     0.45324  0.45324  0.00000  0.09352
      22     C     3.15026  3.15026  0.00000 -0.30053
      23     H     0.45445  0.45445  0.00000  0.09110
      24     H     0.45375  0.45375  0.00000  0.09250
      25     H     0.45480  0.45480  0.00000  0.09041
      26     H     0.44837  0.44837  0.00000  0.10327
      27     H     0.45541  0.45541  0.00000  0.08918

   Total alpha = 37.00000, Total beta = 37.00000, Total charge = -0.00000

*** Psi4 exiting successfully. Buy a developer a beer!
