                              Psi4 1.0.54 Driver

  ==> Input File <==

--------------------------------------------------------------------------
set {
	reference rhf
	basis cc-pvtz
}

set_num_threads( 4 )
memory 2 gb

molecule MOL {
0 1

H	 1.289669	 -2.201457	 0.517996
C	 0.336576	 -1.711191	 0.623282
O	 0.462329	 -0.453336	 -0.000137
H	 0.106420	 -1.603443	 1.675725
H	 -0.426483	 -2.310127	 0.142393
C	 -0.590565	 0.341382	 0.000062
O	 -1.693898	 -0.053880	 0.000252
H	 -0.340426	 1.403822	 0.000200

	symmetry c1
}
set optking {
	frozen_dihedral = ("
		2 3 6 7
	")
}

ee,wfn = optimize('scf', return_wfn=True)
oeprop( wfn, 'DIPOLE', 'QUADRUPOLE', 'MULLIKEN_CHARGES')
f=open( 'psi4out.xyz', 'w' )
f.write( "8  " )
f.write( str(ee) + "\n" )
f.write( MOL.save_string_xyz() )
f.close()
--------------------------------------------------------------------------

    Molecular point group: c1
  Charge       = 0
  Multiplicity = 1
  Basis Set: CC-PVTZ
  Basis Set:
  @DF-RHF Final Energy:  -227.87253048328060
    Total Energy =                       -227.8725304832805989
    Molecular point group: c1
  Basis Set: CC-PVTZ
  Basis Set:
  Basis Set: CC-PVTZ
  Basis Set:
  @DF-RHF Final Energy:  -227.86685588575190
    Total Energy =                       -227.8668558857518178
  Basis Set: CC-PVTZ
  Basis Set:
  Basis Set: CC-PVTZ
  Basis Set:
  @DF-RHF Final Energy:  -227.87214324863697
    Total Energy =                       -227.8721432486371441
  Basis Set: CC-PVTZ
  Basis Set:
  Basis Set: CC-PVTZ
  Basis Set:
  @DF-RHF Final Energy:  -227.87380126675203
    Total Energy =                       -227.8738012667521105
  Basis Set: CC-PVTZ
  Basis Set:
  Basis Set: CC-PVTZ
  Basis Set:
  @DF-RHF Final Energy:  -227.87382401234299
    Total Energy =                       -227.8738240123431069
  Basis Set: CC-PVTZ
  Basis Set:
  Basis Set: CC-PVTZ
  Basis Set:
  @DF-RHF Final Energy:  -227.87385100791093
    Total Energy =                       -227.8738510079109574
  Basis Set: CC-PVTZ
  Basis Set:
  Charge       = 0
  Multiplicity = 1
  Basis Set: CC-PVTZ
  Basis Set:

    Orbital Energies (a.u.)
    -----------------------

    Doubly Occupied:

       1A    -20.605099     2A    -20.551239     3A    -11.373233
       4A    -11.289021     5A     -1.479576     6A     -1.380763
       7A     -0.996980     8A     -0.821679     9A     -0.746250
      10A     -0.686092    11A     -0.680567    12A     -0.607661
      13A     -0.561015    14A     -0.532139    15A     -0.470793
      16A     -0.460215

  @DF-RHF Final Energy:  -227.87385183241852

   => Energetics <=

    Nuclear Repulsion Energy =            123.5702548158645584
    One-Electron Energy =                -556.4035737011943183
    Two-Electron Energy =                 204.9594670529110374
    DFT Exchange-Correlation Energy =       0.0000000000000000
    Empirical Dispersion Energy =           0.0000000000000000
    PCM Polarization Energy =               0.0000000000000000
    EFP Energy =                            0.0000000000000000
    Total Energy =                       -227.8738518324186941
    Molecular point group: c1
  Basis Set: CC-PVTZ
  Basis Set:

  -Total Gradient:
     Atom            X                  Y                   Z
    ------   -----------------  -----------------  -----------------
       1       -0.000003453671    -0.000020483243     0.000024011558
       2        0.002837382703     0.003055795400     0.005729590129
       3       -0.004814683498    -0.004846694808    -0.013547335346
       4        0.000014520820     0.000031629560     0.000013223256
       5        0.000007065571     0.000011657598     0.000011244572
       6        0.002894682587     0.002135607053     0.017207289082
       7       -0.000936493290    -0.000387123193    -0.009411376146
       8        0.000000978777     0.000019611632    -0.000026647105

  **** Optimization is complete! (in 7 steps) ****
    Final optimized geometry and variables:
    Molecular point group: c1

    Geometry (in Angstrom), charge = 0, multiplicity = 1:

    H            1.723466556964    -1.672298758965     0.334162617165
    C            0.750174615319    -1.222055084834     0.436575705051
    O            0.814195225156     0.013802198575    -0.255017178506
    H            0.528823469025    -1.052182433629     1.480725693648
    H           -0.004495359411    -1.865255261486     0.010301307648
    C           -0.231857358653     0.811261612930    -0.173376072085
    O           -1.348800688779     0.467433692417    -0.036488483127
    H            0.065267215816     1.843421134094    -0.332656167238

  Mulliken Charges: (a.u.)
   Center  Symbol    Alpha    Beta     Spin     Total
       1     H     0.44435  0.44435  0.00000  0.11131
       2     C     3.02715  3.02715  0.00000 -0.05429
       3     O     4.14412  4.14412  0.00000 -0.28824
       4     H     0.45891  0.45891  0.00000  0.08219
       5     H     0.44920  0.44920  0.00000  0.10161
       6     C     2.83547  2.83547  0.00000  0.32907
       7     O     4.18828  4.18828  0.00000 -0.37655
       8     H     0.45254  0.45254  0.00000  0.09492

   Total alpha = 16.00000, Total beta = 16.00000, Total charge = -0.00000

*** Psi4 exiting successfully. Buy a developer a beer!
