  ==> Input File <==

--------------------------------------------------------------------------
set {
	reference rhf
	basis cc-pvtz
}

set_num_threads( 4 )
memory 2 gb

molecule MOL {
0 1

H	 -1.088256	 -1.364742	 0.152233
O	 -1.432053	 -0.565244	 -0.200812
C	 -0.727158	 0.534527	 0.310686
C	 0.680222	 0.664433	 -0.252229
H	 -1.306802	 1.408001	 0.044211
H	 -0.690821	 0.490158	 1.397609
C	 0.753975	 0.530133	 -1.770310
H	 1.087399	 1.623282	 0.051162
H	 1.297358	 -0.102041	 0.208542
H	 0.197075	 1.316912	 -2.267268
H	 1.778324	 0.596497	 -2.116513
H	 0.356016	 -0.424557	 -2.100689

	symmetry c1
}
set optking {
	frozen_dihedral = ("
		8 4 3 2
	")
}

ee = optimize('scf')
oeprop('DIPOLE', 'QUADRUPOLE', 'MULLIKEN_CHARGES')
f=open( 'psi4out.xyz', 'w' )
f.write( "12  " )
f.write( str(ee) + "\n" )
f.write( MOL.save_string_xyz() )
f.close()
--------------------------------------------------------------------------

    Molecular point group: c1
  Charge       = 0
  Multiplicity = 1
  Basis Set: CC-PVTZ
  Basis Set:
  @DF-RHF Final Energy:  -193.18979338269756
    Total Energy =                       -193.1897933826975589
    Molecular point group: c1
  Basis Set: CC-PVTZ
  Basis Set:
  Basis Set: CC-PVTZ
  Basis Set:
  @DF-RHF Final Energy:  -193.19010365456052
    Total Energy =                       -193.1901036545606303
  Basis Set: CC-PVTZ
  Basis Set:
  Basis Set: CC-PVTZ
  Basis Set:
  @DF-RHF Final Energy:  -193.19016138100179
    Total Energy =                       -193.1901613810017295
  Basis Set: CC-PVTZ
  Basis Set:
  Basis Set: CC-PVTZ
  Basis Set:
  @DF-RHF Final Energy:  -193.19016407209307
    Total Energy =                       -193.1901640720931539
  Basis Set: CC-PVTZ
  Basis Set:
  Charge       = 0
  Multiplicity = 1
  Basis Set: CC-PVTZ
  Basis Set:

    Orbital Energies (a.u.)
    -----------------------

    Doubly Occupied:

       1A    -20.547196     2A    -11.266201     3A    -11.217714
       4A    -11.205530     5A     -1.364976     6A     -1.048981
       7A     -0.923006     8A     -0.812799     9A     -0.683163
      10A     -0.640453    11A     -0.626097    12A     -0.568698
      13A     -0.529391    14A     -0.518167    15A     -0.485560
      16A     -0.467259    17A     -0.433921

  @DF-RHF Final Energy:  -193.19016427157260

   => Energetics <=

    Nuclear Repulsion Energy =            133.4418479709648295
    One-Electron Energy =                -526.5858005509838904
    Two-Electron Energy =                 199.9537883084465193
    DFT Exchange-Correlation Energy =       0.0000000000000000
    Empirical Dispersion Energy =           0.0000000000000000
    PCM Polarization Energy =               0.0000000000000000
    EFP Energy =                            0.0000000000000000
    Total Energy =                       -193.1901642715725416
    Molecular point group: c1
  Basis Set: CC-PVTZ
  Basis Set:

  -Total Gradient:
     Atom            X                  Y                   Z
    ------   -----------------  -----------------  -----------------
       1       -0.000003942600    -0.000005942576    -0.000003734265
       2       -0.000918922215     0.001513634322    -0.002085376737
       3        0.000995110287    -0.001787554772     0.002230977419
       4        0.001140518896    -0.001130741109     0.002732514946
       5        0.000005155521     0.000011749890     0.000005089043
       6        0.000000348155    -0.000000493588    -0.000005397018
       7        0.000013390308     0.000013970088    -0.000021394389
       8       -0.001214937500     0.001384165994    -0.002870296589
       9        0.000007164013     0.000004028776    -0.000000288912
      10       -0.000001950185     0.000007290457    -0.000002031915
      11       -0.000017482305    -0.000000408320     0.000007361849
      12       -0.000004452375    -0.000009699162     0.000012576570

  **** Optimization is complete! (in 5 steps) ****
    Final optimized geometry and variables:
    Molecular point group: c1

    Geometry (in Angstrom), charge = 0, multiplicity = 1:

    H           -0.862627855780    -1.611431806618     0.603525646565
    O           -1.236726469679    -0.809088365955     0.286810426958
    C           -0.510989796535     0.287379353530     0.775361349644
    C            0.904730947654     0.384197542380     0.220787183851
    H           -1.075816585591     1.161460311018     0.476239718920
    H           -0.484480611340     0.277098435790     1.861839592105
    C            0.970800168072     0.276144433059    -1.300183337539
    H            1.307488317064     1.348637039203     0.517379495148
    H            1.533831822471    -0.378584847910     0.672951677519
    H            0.368772167657     1.047186791493    -1.769370321520
    H            1.990525265386     0.392470890097    -1.648566527742
    H            0.602694304795    -0.680372808342    -1.645798564389

  Mulliken Charges: (a.u.)
   Center  Symbol    Alpha    Beta     Spin     Total
       1     H     0.39468  0.39468  0.00000  0.21064
       2     O     4.20266  4.20266  0.00000 -0.40532
       3     C     2.97680  2.97680  0.00000  0.04639
       4     C     3.09698  3.09698  0.00000 -0.19396
       5     H     0.45817  0.45817  0.00000  0.08366
       6     H     0.46166  0.46166  0.00000  0.07668
       7     C     3.14034  3.14034  0.00000 -0.28067
       8     H     0.45445  0.45445  0.00000  0.09109
       9     H     0.45653  0.45653  0.00000  0.08694
      10     H     0.45578  0.45578  0.00000  0.08844
      11     H     0.45083  0.45083  0.00000  0.09833
      12     H     0.45111  0.45111  0.00000  0.09778

   Total alpha = 17.00000, Total beta = 17.00000, Total charge = -0.00000
