  ==> Input File <==

--------------------------------------------------------------------------
set {
	reference rhf
	basis 6-31G*
}

set_num_threads( 1 )
memory 2 gb

molecule MOL {
0 1

O	 2.862325	 1.357334	 0.000267
C	 2.843464	 0.164689	 -0.000222
C	 1.546494	 -0.624492	 -0.000609
C	 4.124123	 -0.644674	 -0.000428
C	 0.291004	 0.242674	 0.000989
H	 1.557904	 -1.283758	 -0.867573
H	 1.558622	 -1.285963	 0.864672
C	 -0.994322	 -0.586602	 0.000262
H	 0.309117	 0.896430	 -0.865270
H	 0.309661	 0.894078	 0.869017
C	 -2.259874	 0.272531	 0.000494
H	 -1.004862	 -1.240012	 -0.870939
H	 -1.005220	 -1.241071	 0.870675
C	 -2.546046	 0.929186	 -1.351144
H	 -2.170216	 1.044338	 0.762921
H	 -3.111160	 -0.341633	 0.288784
C	 -3.811620	 1.785888	 -1.342909
H	 -1.696282	 1.544321	 -1.639818
H	 -2.637377	 0.158581	 -2.113827
H	 -3.737667	 2.587331	 -0.613272
H	 -3.987333	 2.238182	 -2.314123
H	 -4.685610	 1.191564	 -1.091783
H	 4.165367	 -1.288615	 -0.874074
H	 4.976217	 0.020734	 -0.001915
H	 4.166763	 -1.286207	 0.874930

	symmetry c1
}
set optking {
	frozen_dihedral = ("
		9 5 8 12,
		15 11 14 18,
		1 2 3 6,
		9 5 3 6
	")
}

ee = energy('scf')
oeprop('DIPOLE', 'QUADRUPOLE', 'MULLIKEN_CHARGES')
f=open( 'psi4out.xyz', 'w' )
f.write( "25  " )
f.write( str(ee) + "\n" )
f.write( MOL.save_string_xyz() )
f.close()
--------------------------------------------------------------------------

    Molecular point group: c1

    Geometry (in Angstrom), charge = 0, multiplicity = 1:

       Center              X                  Y                   Z               Mass
    ------------   -----------------  -----------------  -----------------  -----------------
           O          2.635549284575     1.023197932240     0.305392584798    15.994914619560
           C          2.616688284575    -0.169447067760     0.304903584798    12.000000000000
           C          1.319718284575    -0.958628067760     0.304516584798    12.000000000000
           C          3.897347284575    -0.978810067760     0.304697584798    12.000000000000
           C          0.064228284575    -0.091462067760     0.306114584798    12.000000000000
           H          1.331128284575    -1.617894067760    -0.562447415202     1.007825032070
           H          1.331846284575    -1.620099067760     1.169797584798     1.007825032070
           C         -1.221097715425    -0.920738067760     0.305387584798    12.000000000000
           H          0.082341284575     0.562293932240    -0.560144415202     1.007825032070
           H          0.082885284575     0.559941932240     1.174142584798     1.007825032070
           C         -2.486649715425    -0.061605067760     0.305619584798    12.000000000000
           H         -1.231637715425    -1.574148067760    -0.565813415202     1.007825032070
           H         -1.231995715425    -1.575207067760     1.175800584798     1.007825032070
           C         -2.772821715425     0.595049932240    -1.046018415202    12.000000000000
           H         -2.396991715425     0.710201932240     1.068046584798     1.007825032070
           H         -3.337935715425    -0.675769067760     0.593909584798     1.007825032070
           C         -4.038395715425     1.451751932240    -1.037783415202    12.000000000000
           H         -1.923057715425     1.210184932240    -1.334692415202     1.007825032070
           H         -2.864152715425    -0.175555067760    -1.808701415202     1.007825032070
           H         -3.964442715425     2.253194932240    -0.308146415202     1.007825032070
           H         -4.214108715425     1.904045932240    -2.008997415202     1.007825032070
           H         -4.912385715425     0.857427932240    -0.786657415202     1.007825032070
           H          3.938591284575    -1.622751067760    -0.568948415202     1.007825032070
           H          4.749441284575    -0.313402067760     0.303210584798     1.007825032070
           H          3.939987284575    -1.620343067760     1.180055584798     1.007825032070

  Charge       = 0
  Multiplicity = 1
  Basis Set: 6-31G*
  Basis Set:

    Orbital Energies (a.u.)
    -----------------------

    Doubly Occupied:

       1A    -20.550570     2A    -11.326321     3A    -11.231836
       4A    -11.228390     5A    -11.216711     6A    -11.216100
       7A    -11.213822     8A    -11.213017     9A    -11.207189
      10A     -1.395855    11A     -1.094639    12A     -1.054746
      13A     -1.013268    14A     -0.969181    15A     -0.888860
      16A     -0.826429    17A     -0.779678    18A     -0.730912
      19A     -0.653587    20A     -0.650528    21A     -0.637027
      22A     -0.618532    23A     -0.603808    24A     -0.580586
      25A     -0.568001    26A     -0.562774    27A     -0.546760
      28A     -0.523062    29A     -0.502911    30A     -0.496302
      31A     -0.487888    32A     -0.478091    33A     -0.463090
      34A     -0.456323    35A     -0.446445    36A     -0.399862

  @DF-RHF Final Energy:  -387.13447123751939

   => Energetics <=

    Nuclear Repulsion Energy =            445.0815091341014522
    One-Electron Energy =               -1406.7659552406291823
    Two-Electron Energy =                 574.5499748690084516
    DFT Exchange-Correlation Energy =       0.0000000000000000
    Empirical Dispersion Energy =           0.0000000000000000
    PCM Polarization Energy =               0.0000000000000000
    EFP Energy =                            0.0000000000000000
    Total Energy =                       -387.1344712375192785

  Mulliken Charges: (a.u.)
   Center  Symbol    Alpha    Beta     Spin     Total
       1     O     4.26128  4.26128  0.00000 -0.52257
       2     C     2.73570  2.73570  0.00000  0.52860
       3     C     3.21017  3.21017  0.00000 -0.42034
       4     C     3.28673  3.28673  0.00000 -0.57346
       5     C     3.15033  3.15033  0.00000 -0.30065
       6     H     0.40999  0.40999  0.00000  0.18001
       7     H     0.41006  0.41006  0.00000  0.17989
       8     C     3.15599  3.15599  0.00000 -0.31198
       9     H     0.41044  0.41044  0.00000  0.17912
      10     H     0.41220  0.41220  0.00000  0.17560
      11     C     3.15272  3.15272  0.00000 -0.30544
      12     H     0.42480  0.42480  0.00000  0.15041
      13     H     0.42268  0.42268  0.00000  0.15464
      14     C     3.15421  3.15421  0.00000 -0.30842
      15     H     0.42210  0.42210  0.00000  0.15579
      16     H     0.42178  0.42178  0.00000  0.15643
      17     C     3.23892  3.23892  0.00000 -0.47785
      18     H     0.41940  0.41940  0.00000  0.16120
      19     H     0.42398  0.42398  0.00000  0.15203
      20     H     0.42094  0.42094  0.00000  0.15813
      21     H     0.41930  0.41930  0.00000  0.16141
      22     H     0.42239  0.42239  0.00000  0.15521
      23     H     0.40873  0.40873  0.00000  0.18254
      24     H     0.39648  0.39648  0.00000  0.20703
      25     H     0.40867  0.40867  0.00000  0.18266

   Total alpha = 36.00000, Total beta = 36.00000, Total charge = -0.00000
