  ==> Input File <==

--------------------------------------------------------------------------
set {
	reference rhf
	basis cc-pvtz
}

set_num_threads( 4 )
memory 2 gb

molecule MOL {
0 1

H	 -3.629351	 1.440384	 0.038039
C	 -3.058093	 0.618242	 0.417587
C	 -1.942730	 0.277559	 -0.180113
H	 -3.415550	 0.094491	 1.282288
O	 -1.189946	 -0.765863	 0.237511
H	 -1.570931	 0.800792	 -1.042157
C	 0.026572	 -0.995256	 -0.379403
C	 1.057223	 0.049888	 -0.004615
H	 -0.054361	 -1.010670	 -1.459674
H	 0.397526	 -1.952058	 -0.044198
F	 2.203233	 -0.234060	 -0.590375
F	 0.698147	 1.254887	 -0.392621
F	 1.266440	 0.094219	 1.288722

	symmetry c1
}
set optking {
	frozen_dihedral = ("
		3 5 7 9
	")
}

ee = optimize('scf')
oeprop('DIPOLE', 'QUADRUPOLE', 'MULLIKEN_CHARGES')
f=open( 'psi4out.xyz', 'w' )
f.write( "13  " )
f.write( str(ee) + "\n" )
f.write( MOL.save_string_xyz() )
f.close()
--------------------------------------------------------------------------

    Molecular point group: c1
  Charge       = 0
  Multiplicity = 1
  Basis Set: CC-PVTZ
  Basis Set:
  @DF-RHF Final Energy:  -527.74042327200493
    Total Energy =                       -527.7404232720045911
    Molecular point group: c1
  Basis Set: CC-PVTZ
  Basis Set:
  Basis Set: CC-PVTZ
  Basis Set:
  @DF-RHF Final Energy:  -527.74108849884169
    Total Energy =                       -527.7410884988421458
  Basis Set: CC-PVTZ
  Basis Set:
  Basis Set: CC-PVTZ
  Basis Set:
  @DF-RHF Final Energy:  -527.74123891190914
    Total Energy =                       -527.7412389119091358
  Basis Set: CC-PVTZ
  Basis Set:
  Basis Set: CC-PVTZ
  Basis Set:
  @DF-RHF Final Energy:  -527.74127109981930
    Total Energy =                       -527.7412710998191869
  Basis Set: CC-PVTZ
  Basis Set:
  Basis Set: CC-PVTZ
  Basis Set:
  @DF-RHF Final Energy:  -527.74127474005115
    Total Energy =                       -527.7412747400510398
  Basis Set: CC-PVTZ
  Basis Set:
  Charge       = 0
  Multiplicity = 1
  Basis Set: CC-PVTZ
  Basis Set:

    Orbital Energies (a.u.)
    -----------------------

    Doubly Occupied:

       1A    -26.342400     2A    -26.341776     3A    -26.338998
       4A    -20.603303     5A    -11.499307     6A    -11.319598
       7A    -11.296882     8A    -11.214127     9A     -1.751553
      10A     -1.647781    11A     -1.646458    12A     -1.443140
      13A     -1.086787    14A     -1.021442    15A     -0.933092
      16A     -0.844010    17A     -0.840135    18A     -0.831996
      19A     -0.792474    20A     -0.728347    21A     -0.719424
      22A     -0.702323    23A     -0.681454    24A     -0.669275
      25A     -0.662369    26A     -0.651831    27A     -0.643765
      28A     -0.589613    29A     -0.565975    30A     -0.527750
      31A     -0.512847    32A     -0.357939

  @DF-RHF Final Energy:  -527.74127543698319

   => Energetics <=

    Nuclear Repulsion Energy =            415.5124914310787858
    One-Electron Energy =               -1554.8911998523922193
    Two-Electron Energy =                 611.6374329843306441
    DFT Exchange-Correlation Energy =       0.0000000000000000
    Empirical Dispersion Energy =           0.0000000000000000
    PCM Polarization Energy =               0.0000000000000000
    EFP Energy =                            0.0000000000000000
    Total Energy =                       -527.7412754369827326
    Molecular point group: c1
  Basis Set: CC-PVTZ
  Basis Set:

  -Total Gradient:
     Atom            X                  Y                   Z
    ------   -----------------  -----------------  -----------------
       1       -0.000003606323    -0.000015969257    -0.000007494559
       2       -0.000003037149    -0.000011283472    -0.000028801383
       3        0.000966095746     0.001442208917     0.001653221915
       4        0.000000383906    -0.000005592050    -0.000000528218
       5       -0.001466485096    -0.002874603575    -0.002391057230
       6       -0.000037825824    -0.000010579710    -0.000000465478
       7        0.000871305561     0.004096696337     0.000765790990
       8        0.000024421884     0.000093541335    -0.000053102936
       9       -0.000376839226    -0.002712203580    -0.000002494503
      10       -0.000019183212     0.000016468028     0.000001723050
      11       -0.000027891934    -0.000030947744     0.000073642198
      12        0.000003824340     0.000084878054    -0.000068813264
      13        0.000068837326    -0.000072613288     0.000058379421

  **** Optimization is complete! (in 6 steps) ****
    Final optimized geometry and variables:
    Molecular point group: c1

    Geometry (in Angstrom), charge = 0, multiplicity = 1:

    H           -3.679109359445     1.369976611465    -0.007561831337
    C           -3.064247410745     0.583485790570     0.379575271600
    C           -2.030496508920     0.171593890907    -0.311958123691
    H           -3.314671907102     0.149222365530     1.327534232745
    O           -1.248273886128    -0.852886543320     0.104111604272
    H           -1.764057039338     0.602073717468    -1.259986384525
    C           -0.006477518986    -1.020240949592    -0.481406331660
    C            1.022763411958    -0.000244085508    -0.035103969063
    H           -0.058005197716    -1.012500575310    -1.564687965596
    H            0.359921036048    -1.986796462207    -0.170934860777
    F            2.190513590745    -0.308057445251    -0.562427427313
    F            0.724495713151     1.222305236917    -0.421244729466
    F            1.160576416119     0.018020377765     1.268444001550

  Mulliken Charges: (a.u.)
   Center  Symbol    Alpha    Beta     Spin     Total
       1     H     0.42534  0.42534  0.00000  0.14932
       2     C     3.19379  3.19379  0.00000 -0.38758
       3     C     2.96155  2.96155  0.00000  0.07690
       4     H     0.42441  0.42441  0.00000  0.15118
       5     O     4.14451  4.14451  0.00000 -0.28902
       6     H     0.43287  0.43287  0.00000  0.13427
       7     C     3.02277  3.02277  0.00000 -0.04553
       8     C     2.67653  2.67653  0.00000  0.64694
       9     H     0.45353  0.45353  0.00000  0.09294
      10     H     0.43523  0.43523  0.00000  0.12953
      11     F     4.61176  4.61176  0.00000 -0.22353
      12     F     4.61080  4.61080  0.00000 -0.22160
      13     F     4.60691  4.60691  0.00000 -0.21382

   Total alpha = 32.00000, Total beta = 32.00000, Total charge =  0.00000
