                              Psi4 1.0.54 Driver

  ==> Input File <==

--------------------------------------------------------------------------
set {
	reference rhf
	basis cc-pvtz
}

set_num_threads( 4 )
memory 2 gb

molecule MOL {
0 1

H	 -2.362939	 -1.309000	 -0.383250
C	 -1.359344	 -1.272457	 0.020748
C	 -0.684082	 0.000127	 -0.464918
H	 -0.825835	 -2.151141	 -0.318537
H	 -1.416276	 -1.292399	 1.099455
C	 -1.359089	 1.272668	 0.021259
N	 0.742439	 -0.000109	 0.007333
H	 -0.596914	 0.000345	 -1.538146
H	 -2.362696	 1.309620	 -0.382686
H	 -0.825392	 2.151374	 -0.317674
H	 -1.415983	 1.292181	 1.099973
O	 1.316479	 -1.036504	 0.004696
O	 1.204158	 1.036152	 0.352686

	symmetry c1
}
set optking {
	frozen_dihedral = ("
		12 7 3 8
	")
}

ee,wfn = optimize('scf', return_wfn=True)
oeprop( wfn, 'DIPOLE', 'QUADRUPOLE', 'MULLIKEN_CHARGES')
f=open( 'psi4out.xyz', 'w' )
f.write( "13  " )
f.write( str(ee) + "\n" )
f.write( MOL.save_string_xyz() )
f.close()
--------------------------------------------------------------------------

    Molecular point group: c1
  Charge       = 0
  Multiplicity = 1
  Basis Set: CC-PVTZ
  Basis Set:
  @DF-RHF Final Energy:  -321.86124495470114
    Total Energy =                       -321.8612449547009646
    Molecular point group: c1
  Basis Set: CC-PVTZ
  Basis Set:
  Basis Set: CC-PVTZ
  Basis Set:
  @DF-RHF Final Energy:  -321.85871719065858
    Total Energy =                       -321.8587171906585809
  Basis Set: CC-PVTZ
  Basis Set:
  Basis Set: CC-PVTZ
  Basis Set:
  @DF-RHF Final Energy:  -321.85933947162022
    Total Energy =                       -321.8593394716202738
  Basis Set: CC-PVTZ
  Basis Set:
  Basis Set: CC-PVTZ
  Basis Set:
  @DF-RHF Final Energy:  -321.86085825657449
    Total Energy =                       -321.8608582565744882
  Basis Set: CC-PVTZ
  Basis Set:
  Basis Set: CC-PVTZ
  Basis Set:
  @DF-RHF Final Energy:  -321.86217275632185
    Total Energy =                       -321.8621727563218542
  Basis Set: CC-PVTZ
  Basis Set:
  Basis Set: CC-PVTZ
  Basis Set:
  @DF-RHF Final Energy:  -321.86219772482673
    Total Energy =                       -321.8621977248268422
  Basis Set: CC-PVTZ
  Basis Set:
  Charge       = 0
  Multiplicity = 1
  Basis Set: CC-PVTZ
  Basis Set:

    Orbital Energies (a.u.)
    -----------------------

    Doubly Occupied:

       1A    -20.589715     2A    -20.587170     3A    -15.834000
       4A    -11.307027     5A    -11.239206     6A    -11.237648
       7A     -1.634517     8A     -1.418147     9A     -1.139660
      10A     -0.967587    11A     -0.958378    12A     -0.814938
      13A     -0.765106    14A     -0.730074    15A     -0.722913
      16A     -0.639682    17A     -0.596091    18A     -0.586280
      19A     -0.570372    20A     -0.522089    21A     -0.521386
      22A     -0.483270    23A     -0.472409    24A     -0.452237

  @DF-RHF Final Energy:  -321.86219900181135

   => Energetics <=

    Nuclear Repulsion Energy =            257.2246488824661697
    One-Electron Energy =                -948.5938925646767075
    Two-Electron Energy =                 369.5070446803991899
    DFT Exchange-Correlation Energy =       0.0000000000000000
    Empirical Dispersion Energy =           0.0000000000000000
    PCM Polarization Energy =               0.0000000000000000
    EFP Energy =                            0.0000000000000000
    Total Energy =                       -321.8621990018112911
    Molecular point group: c1
  Basis Set: CC-PVTZ
  Basis Set:

  -Total Gradient:
     Atom            X                  Y                   Z
    ------   -----------------  -----------------  -----------------
       1        0.000001969382     0.000001720825     0.000002566466
       2        0.000006437247    -0.000005669950    -0.000009048568
       3        0.000082452248    -0.000794932700     0.000252799868
       4       -0.000002151392     0.000007068639    -0.000006069799
       5       -0.000004085334    -0.000000871805     0.000004233064
       6       -0.000030178594     0.000015714322     0.000006483735
       7        0.000274270480     0.000098398480    -0.000848851883
       8       -0.000066155600     0.000651710630    -0.000025213058
       9       -0.000002180220     0.000009745842     0.000006809514
      10       -0.000007540076    -0.000013655427     0.000001650920
      11       -0.000012834368     0.000016248475     0.000004374353
      12       -0.000248012224    -0.000071673997     0.000611726934
      13        0.000008008456     0.000086196667    -0.000001461545

  **** Optimization is complete! (in 7 steps) ****
    Final optimized geometry and variables:
    Molecular point group: c1

    Geometry (in Angstrom), charge = 0, multiplicity = 1:

    H           -2.225703084421    -1.534018334435    -0.377654984755
    C           -1.224018394188    -1.419102395124     0.015841290831
    C           -0.674542101779    -0.081285650846    -0.451263937589
    H           -0.617824545384    -2.240685742384    -0.328510636788
    H           -1.278290648602    -1.456550784722     1.096975148773
    C           -1.528914586436     1.102107655306    -0.034834106437
    N            0.748403101188     0.087713384982     0.033512115231
    H           -0.552163144239    -0.086712752202    -1.527029193267
    H           -2.523900480324     0.959132523956    -0.437068466016
    H           -1.134185508745     2.032670182431    -0.409408611742
    H           -1.602745760205     1.169332124829     1.042792792431
    O            1.432013636643    -0.880405802898     0.051766408412
    O            1.110188766323     1.175311578590     0.330921919986

  Mulliken Charges: (a.u.)
   Center  Symbol    Alpha    Beta     Spin     Total
       1     H     0.45055  0.45055  0.00000  0.09889
       2     C     3.14377  3.14377  0.00000 -0.28755
       3     C     3.00664  3.00664  0.00000 -0.01327
       4     H     0.43083  0.43083  0.00000  0.13833
       5     H     0.44647  0.44647  0.00000  0.10705
       6     C     3.14270  3.14270  0.00000 -0.28540
       7     N     3.27535  3.27535  0.00000  0.44929
       8     H     0.43057  0.43057  0.00000  0.13886
       9     H     0.45062  0.45062  0.00000  0.09876
      10     H     0.43315  0.43315  0.00000  0.13370
      11     H     0.44516  0.44516  0.00000  0.10967
      12     O     4.17347  4.17347  0.00000 -0.34694
      13     O     4.17070  4.17070  0.00000 -0.34140

   Total alpha = 24.00000, Total beta = 24.00000, Total charge = -0.00000

*** Psi4 exiting successfully. Buy a developer a beer!
