  ==> Input File <==

--------------------------------------------------------------------------
set {
	reference rhf
	basis 6-31G*
}

set_num_threads( 4 )
memory 2 gb

molecule MOL {
0 1

H	 -2.189422	 -0.813966	 0.526295
C	 -1.780959	 -0.924297	 -0.473779
O	 -0.774054	 0.001095	 -0.743181
H	 -2.572561	 -0.733841	 -1.186114
H	 -1.447323	 -1.949698	 -0.601967
C	 0.406953	 0.000033	 0.038965
C	 1.527284	 -0.003667	 -0.998752
C	 0.498933	 1.262172	 0.902524
C	 0.494271	 -1.259566	 0.906664
H	 1.452513	 0.873252	 -1.631882
H	 1.448863	 -0.881882	 -1.629595
H	 2.502020	 -0.005104	 -0.521731
H	 0.364280	 2.147110	 0.289513
H	 1.472180	 1.321775	 1.378800
H	 -0.247853	 1.275162	 1.689097
H	 0.356778	 -2.146106	 0.296587
H	 1.467182	 -1.320941	 1.383330
H	 -0.252763	 -1.267328	 1.693119

	symmetry c1
}
set optking {
	frozen_dihedral = ("
		2 3 6 7
	")
}

ee = optimize('scf')
oeprop('DIPOLE', 'QUADRUPOLE', 'MULLIKEN_CHARGES')
f=open( 'psi4out.xyz', 'w' )
f.write( "18  " )
f.write( str(ee) + "\n" )
f.write( MOL.save_string_xyz() )
f.close()
--------------------------------------------------------------------------

    Molecular point group: c1
  Charge       = 0
  Multiplicity = 1
  Basis Set: 6-31G*
  Basis Set:
  @DF-RHF Final Energy:  -271.16824661458321
    Total Energy =                       -271.1682466145833246
    Molecular point group: c1
  Basis Set: 6-31G*
  Basis Set:
  Basis Set: 6-31G*
  Basis Set:
  @DF-RHF Final Energy:  -271.16860241780836
    Total Energy =                       -271.1686024178084153
  Basis Set: 6-31G*
  Basis Set:
  Basis Set: 6-31G*
  Basis Set:
  @DF-RHF Final Energy:  -271.17114326565940
    Total Energy =                       -271.1711432656594525
  Basis Set: 6-31G*
  Basis Set:
  Basis Set: 6-31G*
  Basis Set:
  @DF-RHF Final Energy:  -271.17128067250513
    Total Energy =                       -271.1712806725053042
  Basis Set: 6-31G*
  Basis Set:
  @DF-RHF Final Energy:  -271.17137523936896
    Total Energy =                       -271.1713752393689560
  @DF-RHF Final Energy:  -271.17141564167764
    Total Energy =                       -271.1714156416774131
  Basis Set: 6-31G*
  Basis Set:
  @DF-RHF Final Energy:  -271.17141383828420
    Total Energy =                       -271.1714138382841384
  Basis Set: 6-31G*
  Basis Set:
  Basis Set: 6-31G*
  Basis Set:
  @DF-RHF Final Energy:  -271.17141629960304
    Total Energy =                       -271.1714162996030382
  Basis Set: 6-31G*
  Basis Set:
  Basis Set: 6-31G*
  Basis Set:
  @DF-RHF Final Energy:  -271.17142019656677
    Total Energy =                       -271.1714201965669986
  Basis Set: 6-31G*
  Basis Set:
  Charge       = 0
  Multiplicity = 1
  Basis Set: 6-31G*
  Basis Set:

    Orbital Energies (a.u.)
    -----------------------

    Doubly Occupied:

       1A    -20.543520     2A    -11.281816     3A    -11.262163
       4A    -11.213620     5A    -11.203857     6A    -11.203218
       7A     -1.366082     8A     -1.073951     9A     -0.950467
      10A     -0.934895    11A     -0.911472    12A     -0.751198
      13A     -0.656336    14A     -0.645996    15A     -0.636412
      16A     -0.582295    17A     -0.576799    18A     -0.548032
      19A     -0.542565    20A     -0.525707    21A     -0.514866
      22A     -0.490923    23A     -0.482433    24A     -0.441043
      25A     -0.396222

  @DF-RHF Final Energy:  -271.17142062909801

   => Energetics <=

    Nuclear Repulsion Energy =            271.7099489070669165
    One-Electron Energy =                -906.2909614404629792
    Two-Electron Energy =                 363.4095919042981677
    DFT Exchange-Correlation Energy =       0.0000000000000000
    Empirical Dispersion Energy =           0.0000000000000000
    PCM Polarization Energy =               0.0000000000000000
    EFP Energy =                            0.0000000000000000
    Total Energy =                       -271.1714206290978382
    Molecular point group: c1
  Basis Set: 6-31G*
  Basis Set:

  -Total Gradient:
     Atom            X                  Y                   Z
    ------   -----------------  -----------------  -----------------
       1       -0.000007793486    -0.000005016871    -0.000011093745
       2        0.000714836442    -0.001183553529    -0.001250370285
       3       -0.001116301918     0.001391988501     0.001927771528
       4        0.000002511443     0.000002466515    -0.000003126422
       5        0.000011886648    -0.000000614879    -0.000005979534
       6        0.000439633167     0.001331089414    -0.000611199525
       7       -0.000022046890    -0.001522863765    -0.000046451542
       8       -0.000029676176    -0.000007648927    -0.000003098679
       9        0.000002639877    -0.000003284966     0.000008840099
      10        0.000005057654    -0.000004891622    -0.000017296772
      11       -0.000003810583    -0.000001993384     0.000012783059
      12        0.000000995366     0.000014314683    -0.000004064371
      13        0.000002179188    -0.000004887915    -0.000000708259
      14       -0.000000648202    -0.000010314897    -0.000006461300
      15       -0.000001121614     0.000008014616     0.000011176804
      16       -0.000000240809    -0.000000782789    -0.000001103061
      17       -0.000004840911    -0.000000396145    -0.000001869989
      18        0.000006740808    -0.000001624041     0.000002251995

  **** Optimization is complete! (in 10 steps) ****
    Final optimized geometry and variables:
    Molecular point group: c1

    Geometry (in Angstrom), charge = 0, multiplicity = 1:

    H           -2.265395376504    -0.628976059933     0.600514877324
    C           -1.874258988988    -0.703791812581    -0.410921102282
    O           -0.830385617080     0.186089146355    -0.649516013088
    H           -2.665134254079    -0.434853608757    -1.098632671279
    H           -1.595923068238    -1.736057739395    -0.599666797631
    C            0.382454256821     0.136998421514     0.093144182790
    C            1.500765567512     0.141766884737    -0.948520018282
    C            0.426142876109     1.402461633695     0.949978152180
    C            0.519991881909    -1.103773380133     0.981892750184
    H            1.396440276591     0.999722657188    -1.603122617909
    H            1.449649391404    -0.753793877387    -1.558658922185
    H            2.478636690006     0.183627636497    -0.478347535890
    H            0.324134321068     2.279815082669     0.321443626928
    H            1.359574615507     1.477502708196     1.499717746519
    H           -0.390967036994     1.405123474364     1.664764127965
    H            0.493385569482    -2.019642614599     0.402015211536
    H            1.475736757140    -1.068008195153     1.493377914433
    H           -0.253475153053    -1.153541326016     1.740010337367

  Mulliken Charges: (a.u.)
   Center  Symbol    Alpha    Beta     Spin     Total
       1     H     0.43147  0.43147  0.00000  0.13706
       2     C     3.07485  3.07485  0.00000 -0.14969
       3     O     4.32575  4.32575  0.00000 -0.65149
       4     H     0.41247  0.41247  0.00000  0.17507
       5     H     0.42987  0.42987  0.00000  0.14026
       6     C     2.83913  2.83913  0.00000  0.32175
       7     C     3.23132  3.23132  0.00000 -0.46265
       8     C     3.23212  3.23212  0.00000 -0.46425
       9     C     3.25842  3.25842  0.00000 -0.51685
      10     H     0.41326  0.41326  0.00000  0.17348
      11     H     0.41927  0.41927  0.00000  0.16146
      12     H     0.42616  0.42616  0.00000  0.14769
      13     H     0.41339  0.41339  0.00000  0.17322
      14     H     0.42589  0.42589  0.00000  0.14822
      15     H     0.42087  0.42087  0.00000  0.15827
      16     H     0.41523  0.41523  0.00000  0.16954
      17     H     0.41427  0.41427  0.00000  0.17146
      18     H     0.41627  0.41627  0.00000  0.16746

   Total alpha = 25.00000, Total beta = 25.00000, Total charge =  0.00000
