                              Psi4 1.0.54 Driver

  ==> Input File <==

--------------------------------------------------------------------------
set {
	reference rhf
	basis cc-pvtz
}

set_num_threads( 4 )
memory 2 gb

molecule MOL {
0 1

H	 -2.698799	 -0.000846	 0.036018
C	 -1.694291	 -0.000483	 0.434279
O	 -0.828718	 -0.000608	 -0.655022
H	 -1.576855	 0.881100	 1.056504
H	 -1.576401	 -0.881658	 1.057001
C	 0.557892	 0.000078	 -0.420099
C	 1.304545	 -0.979672	 -1.318359
C	 1.158874	 1.400441	 -0.465425
H	 0.636534	 -0.359999	 0.598124
H	 0.829559	 -1.952675	 -1.291686
H	 2.325871	 -1.090005	 -0.972721
H	 1.343093	 -0.644039	 -2.348140
H	 0.582925	 2.078019	 0.152810
H	 2.174957	 1.376635	 -0.088884
H	 1.193451	 1.799257	 -1.472545

	symmetry c1
}
set optking {
	frozen_dihedral = ("
		9 6 3 2
	")
}

ee,wfn = optimize('scf', return_wfn=True)
oeprop( wfn, 'DIPOLE', 'QUADRUPOLE', 'MULLIKEN_CHARGES')
f=open( 'psi4out.xyz', 'w' )
f.write( "15  " )
f.write( str(ee) + "\n" )
f.write( MOL.save_string_xyz() )
f.close()
--------------------------------------------------------------------------

    Molecular point group: c1
  Charge       = 0
  Multiplicity = 1
  Basis Set: CC-PVTZ
  Basis Set:
  @DF-RHF Final Energy:  -232.22553891416601
    Total Energy =                       -232.2255389141659521
    Molecular point group: c1
  Basis Set: CC-PVTZ
  Basis Set:
  Basis Set: CC-PVTZ
  Basis Set:
  @DF-RHF Final Energy:  -232.22063983820132
    Total Energy =                       -232.2206398382012935
  Basis Set: CC-PVTZ
  Basis Set:
  Basis Set: CC-PVTZ
  Basis Set:
  @DF-RHF Final Energy:  -232.22892582565621
    Total Energy =                       -232.2289258256563471
  Basis Set: CC-PVTZ
  Basis Set:
  Basis Set: CC-PVTZ
  Basis Set:
  @DF-RHF Final Energy:  -232.22934674439284
    Total Energy =                       -232.2293467443928989
  Basis Set: CC-PVTZ
  Basis Set:
  Basis Set: CC-PVTZ
  Basis Set:
  @DF-RHF Final Energy:  -232.22937590047820
    Total Energy =                       -232.2293759004782032
  Basis Set: CC-PVTZ
  Basis Set:
  Basis Set: CC-PVTZ
  Basis Set:
  @DF-RHF Final Energy:  -232.22937911012605
    Total Energy =                       -232.2293791101260467
  Basis Set: CC-PVTZ
  Basis Set:
  Charge       = 0
  Multiplicity = 1
  Basis Set: CC-PVTZ
  Basis Set:

    Orbital Energies (a.u.)
    -----------------------

    Doubly Occupied:

       1A    -20.542838     2A    -11.272524     3A    -11.261900
       4A    -11.206083     5A    -11.205149     6A     -1.377332
       7A     -1.053614     8A     -0.938031     9A     -0.918196
      10A     -0.795685    11A     -0.671328    12A     -0.643258
      13A     -0.637484    14A     -0.582308    15A     -0.552408
      16A     -0.541260    17A     -0.535700    18A     -0.498301
      19A     -0.488951    20A     -0.458543    21A     -0.408117

  @DF-RHF Final Energy:  -232.22937922572868

   => Energetics <=

    Nuclear Repulsion Energy =            197.2311514415493434
    One-Electron Energy =                -705.7430467376188972
    Two-Electron Energy =                 276.2825160703407619
    DFT Exchange-Correlation Energy =       0.0000000000000000
    Empirical Dispersion Energy =           0.0000000000000000
    PCM Polarization Energy =               0.0000000000000000
    EFP Energy =                            0.0000000000000000
    Total Energy =                       -232.2293792257287919
    Molecular point group: c1
  Basis Set: CC-PVTZ
  Basis Set:

  -Total Gradient:
     Atom            X                  Y                   Z
    ------   -----------------  -----------------  -----------------
       1       -0.000000940669     0.000001763273    -0.000006149244
       2        0.000078797769    -0.001179542408    -0.000110862075
       3       -0.000148083755     0.002028413305     0.000354623603
       4        0.000004698222    -0.000002155040    -0.000008431561
       5        0.000009617702    -0.000001278512    -0.000007204754
       6        0.000147162693    -0.002120248828    -0.000901194570
       7        0.000017937380    -0.000020568611     0.000007953177
       8        0.000015326893    -0.000000644218     0.000024793923
       9       -0.000103213970     0.001300232656     0.000648537924
      10        0.000001621275    -0.000013627335    -0.000010684811
      11       -0.000003671517    -0.000004407569    -0.000000791234
      12       -0.000006390894     0.000009409059     0.000001277491
      13       -0.000006511513     0.000018596470     0.000010019792
      14       -0.000004444305     0.000001387087     0.000002171554
      15       -0.000001905311    -0.000017329329    -0.000004059217

  **** Optimization is complete! (in 7 steps) ****
    Final optimized geometry and variables:
    Molecular point group: c1

    Geometry (in Angstrom), charge = 0, multiplicity = 1:

    H           -2.604518327367    -0.397944332905     0.951826472817
    C           -1.543865761101    -0.356254692119     1.154778863707
    O           -0.889936374682    -0.160504663407    -0.055021711625
    H           -1.360212562621     0.454966006295     1.855539824058
    H           -1.243027182601    -1.289984885138     1.624268099961
    C            0.510443968718    -0.052607075285     0.008465776264
    C            1.095521806571    -0.835870217493    -1.152987650950
    C            0.920111784273     1.413825894386    -0.017588902894
    H            0.858871691086    -0.488729287934     0.942432674015
    H            0.806382608317    -1.877569274950    -1.092138827734
    H            2.178058340810    -0.776985917402    -1.152319655371
    H            0.730196858047    -0.438107888722    -2.092556729004
    H            0.473107045727     1.955311312525     0.807701270889
    H            1.997115353721     1.516057915999     0.056889026126
    H            0.592934636623     1.876939624124    -0.941107821581

  Mulliken Charges: (a.u.)
   Center  Symbol    Alpha    Beta     Spin     Total
       1     H     0.44883  0.44883  0.00000  0.10235
       2     C     3.03375  3.03375  0.00000 -0.06749
       3     O     4.18699  4.18699  0.00000 -0.37399
       4     H     0.47193  0.47193  0.00000  0.05614
       5     H     0.46974  0.46974  0.00000  0.06052
       6     C     2.92029  2.92029  0.00000  0.15942
       7     C     3.13911  3.13911  0.00000 -0.27823
       8     C     3.14101  3.14101  0.00000 -0.28203
       9     H     0.46890  0.46890  0.00000  0.06220
      10     H     0.44951  0.44951  0.00000  0.10099
      11     H     0.45835  0.45835  0.00000  0.08330
      12     H     0.45217  0.45217  0.00000  0.09567
      13     H     0.45159  0.45159  0.00000  0.09681
      14     H     0.45505  0.45505  0.00000  0.08989
      15     H     0.45278  0.45278  0.00000  0.09444

   Total alpha = 21.00000, Total beta = 21.00000, Total charge =  0.00000

*** Psi4 exiting successfully. Buy a developer a beer!
