                              Psi4 1.0.54 Driver

  ==> Input File <==

--------------------------------------------------------------------------
set {
	reference rhf
	basis cc-pvtz
}

set_num_threads( 4 )
memory 2 gb

molecule MOL {
0 1

H	 -0.939693	 0.000281	 1.681345
O	 -0.046262	 -0.000157	 1.387678
C	 -0.000837	 0.000006	 -0.025491
C	 0.016360	 1.439391	 -0.536396
C	 1.239235	 -0.756784	 -0.497334
C	 -1.269660	 -0.714398	 -0.470353
H	 0.014777	 1.471916	 -1.619786
H	 0.904478	 1.959869	 -0.190822
H	 -0.851245	 1.976466	 -0.174078
H	 1.282380	 -0.804703	 -1.579290
H	 2.144199	 -0.266510	 -0.151290
H	 1.233208	 -1.766946	 -0.107461
H	 -1.325946	 -0.765008	 -1.551352
H	 -2.143002	 -0.190352	 -0.103119
H	 -1.289949	 -1.722433	 -0.075805

	symmetry c1
}
set optking {
	frozen_dihedral = ("
		4 3 2 1
	")
}

ee,wfn = optimize('scf', return_wfn=True)
oeprop( wfn, 'DIPOLE', 'QUADRUPOLE', 'MULLIKEN_CHARGES')
f=open( 'psi4out.xyz', 'w' )
f.write( "15  " )
f.write( str(ee) + "\n" )
f.write( MOL.save_string_xyz() )
f.close()
--------------------------------------------------------------------------

    Molecular point group: c1
  Charge       = 0
  Multiplicity = 1
  Basis Set: CC-PVTZ
  Basis Set:
  @DF-RHF Final Energy:  -232.24370292140600
    Total Energy =                       -232.2437029214061113
    Molecular point group: c1
  Basis Set: CC-PVTZ
  Basis Set:
  Basis Set: CC-PVTZ
  Basis Set:
  @DF-RHF Final Energy:  -232.24533265470663
    Total Energy =                       -232.2453326547066013
  Basis Set: CC-PVTZ
  Basis Set:
  Basis Set: CC-PVTZ
  Basis Set:
  @DF-RHF Final Energy:  -232.24581198092969
    Total Energy =                       -232.2458119809296591
  Basis Set: CC-PVTZ
  Basis Set:
  Basis Set: CC-PVTZ
  Basis Set:
  @DF-RHF Final Energy:  -232.24581310549854
    Total Energy =                       -232.2458131054982573
  Basis Set: CC-PVTZ
  Basis Set:
  Basis Set: CC-PVTZ
  Basis Set:
  @DF-RHF Final Energy:  -232.24582421742252
    Total Energy =                       -232.2458242174225234
  Basis Set: CC-PVTZ
  Basis Set:
  Charge       = 0
  Multiplicity = 1
  Basis Set: CC-PVTZ
  Basis Set:

    Orbital Energies (a.u.)
    -----------------------

    Doubly Occupied:

       1A    -20.541329     2A    -11.280928     3A    -11.214184
       4A    -11.205130     5A    -11.203398     6A     -1.363944
       7A     -1.065459     8A     -0.945133     9A     -0.937581
      10A     -0.778525    11A     -0.672355    12A     -0.624367
      13A     -0.622793    14A     -0.576226    15A     -0.557447
      16A     -0.533681    17A     -0.517037    18A     -0.511365
      19A     -0.503847    20A     -0.458561    21A     -0.427689

  @DF-RHF Final Energy:  -232.24582481925808

   => Energetics <=

    Nuclear Repulsion Energy =            200.6289428084134556
    One-Electron Energy =                -712.6675735394599087
    Two-Electron Energy =                 279.7928059117883777
    DFT Exchange-Correlation Energy =       0.0000000000000000
    Empirical Dispersion Energy =           0.0000000000000000
    PCM Polarization Energy =               0.0000000000000000
    EFP Energy =                            0.0000000000000000
    Total Energy =                       -232.2458248192580186
    Molecular point group: c1
  Basis Set: CC-PVTZ
  Basis Set:

  -Total Gradient:
     Atom            X                  Y                   Z
    ------   -----------------  -----------------  -----------------
       1       -0.000073377850    -0.001886767763     0.000016440484
       2        0.000487537899     0.002285856802    -0.000111120526
       3       -0.001573509031    -0.000372199956     0.000111296793
       4        0.001146184375    -0.000019209469    -0.000094953305
       5        0.000003183486    -0.000019389590     0.000020394227
       6        0.000001571629    -0.000005617106     0.000052647972
       7       -0.000003612775     0.000011871658     0.000016756529
       8       -0.000011048614     0.000001082764    -0.000009641618
       9        0.000005601599     0.000011353952    -0.000007202855
      10       -0.000004822567     0.000000021153     0.000026180230
      11       -0.000001434288     0.000001587036    -0.000003299970
      12        0.000011681328    -0.000007915107    -0.000004550307
      13        0.000007221971     0.000002449472    -0.000012424921
      14        0.000013408962    -0.000008219378     0.000000738455
      15       -0.000008586123     0.000005095532    -0.000001261192

  **** Optimization is complete! (in 6 steps) ****
    Final optimized geometry and variables:
    Molecular point group: c1

    Geometry (in Angstrom), charge = 0, multiplicity = 1:

    H           -0.728707001369     0.051763881911     1.788461084268
    O            0.119099564223     0.020371953370     1.385134157619
    C           -0.004367870999     0.002403656376    -0.025153563756
    C           -0.004509568493     1.440709588746    -0.539460194747
    C            1.219883074356    -0.745406342103    -0.539230761087
    C           -1.286334341608    -0.721610766186    -0.426110562358
    H           -0.054302409271     1.472913402184    -1.622147801974
    H            0.896689175359     1.948499016520    -0.220307962866
    H           -0.854832109886     1.987567140436    -0.146236884368
    H            1.234455505555    -0.769226636357    -1.622705454477
    H            2.123884074735    -0.259338954373    -0.194331452467
    H            1.222870718711    -1.763159177848    -0.169653146129
    H           -1.383594784204    -0.774300005744    -1.503649527955
    H           -2.159494958858    -0.201880364215    -0.042155175791
    H           -1.290238717250    -1.731536782455    -0.033444872230

  Mulliken Charges: (a.u.)
   Center  Symbol    Alpha    Beta     Spin     Total
       1     H     0.39400  0.39400  0.00000  0.21201
       2     O     4.21311  4.21311  0.00000 -0.42621
       3     C     2.87873  2.87873  0.00000  0.24254
       4     C     3.14456  3.14456  0.00000 -0.28911
       5     C     3.14137  3.14137  0.00000 -0.28273
       6     C     3.15712  3.15712  0.00000 -0.31423
       7     H     0.45797  0.45797  0.00000  0.08407
       8     H     0.44801  0.44801  0.00000  0.10398
       9     H     0.45496  0.45496  0.00000  0.09008
      10     H     0.45923  0.45923  0.00000  0.08153
      11     H     0.44727  0.44727  0.00000  0.10546
      12     H     0.45099  0.45099  0.00000  0.09802
      13     H     0.45238  0.45238  0.00000  0.09524
      14     H     0.45479  0.45479  0.00000  0.09042
      15     H     0.44553  0.44553  0.00000  0.10895

   Total alpha = 21.00000, Total beta = 21.00000, Total charge =  0.00000

*** Psi4 exiting successfully. Buy a developer a beer!
