                              Psi4 1.0.54 Driver

  ==> Input File <==

--------------------------------------------------------------------------
set {
	reference rhf
	basis cc-pvtz
}

set_num_threads( 4 )
memory 2 gb

molecule MOL {
0 1

H	 -3.110265	 0.719155	 -0.884094
C	 -2.335199	 0.091912	 -1.318517
O	 -1.401606	 -0.295183	 -0.366624
H	 -2.793435	 -0.802334	 -1.715044
H	 -1.869351	 0.638117	 -2.136766
C	 -0.718530	 0.758693	 0.228682
C	 0.718529	 0.758687	 -0.228709
H	 -1.176498	 1.708665	 -0.046615
H	 -0.748705	 0.673525	 1.312779
O	 1.401606	 -0.295166	 0.366636
H	 0.748705	 0.673477	 -1.312803
H	 1.176496	 1.708671	 0.046552
C	 2.714315	 -0.441627	 -0.061017
H	 2.765292	 -0.641548	 -1.128869
H	 3.305661	 0.447341	 0.150952
H	 3.143725	 -1.278506	 0.470147

	symmetry c1
}
set optking {
	frozen_dihedral = ("
		2 3 6 7
	")
}

ee,wfn = optimize('scf', return_wfn=True)
oeprop( wfn, 'DIPOLE', 'QUADRUPOLE', 'MULLIKEN_CHARGES')
f=open( 'psi4out.xyz', 'w' )
f.write( "16  " )
f.write( str(ee) + "\n" )
f.write( MOL.save_string_xyz() )
f.close()
--------------------------------------------------------------------------

    Molecular point group: c1
  Charge       = 0
  Multiplicity = 1
  Basis Set: CC-PVTZ
  Basis Set:
  @DF-RHF Final Energy:  -307.09312039406950
    Total Energy =                       -307.0931203940693308
    Molecular point group: c1
  Basis Set: CC-PVTZ
  Basis Set:
  Basis Set: CC-PVTZ
  Basis Set:
  @DF-RHF Final Energy:  -307.01886585035294
    Total Energy =                       -307.0188658503528814
  Basis Set: CC-PVTZ
  Basis Set:
  Basis Set: CC-PVTZ
  Basis Set:
  @DF-RHF Final Energy:  -307.08809838471433
    Total Energy =                       -307.0880983847142716
  Basis Set: CC-PVTZ
  Basis Set:
  Basis Set: CC-PVTZ
  Basis Set:
  @DF-RHF Final Energy:  -307.09379754008421
    Total Energy =                       -307.0937975400844380
  Basis Set: CC-PVTZ
  Basis Set:
  Basis Set: CC-PVTZ
  Basis Set:
  @DF-RHF Final Energy:  -307.09386327689350
    Total Energy =                       -307.0938632768934440
  Basis Set: CC-PVTZ
  Basis Set:
  Basis Set: CC-PVTZ
  Basis Set:
  @DF-RHF Final Energy:  -307.09387297226300
    Total Energy =                       -307.0938729722632843
  Basis Set: CC-PVTZ
  Basis Set:
  Charge       = 0
  Multiplicity = 1
  Basis Set: CC-PVTZ
  Basis Set:

    Orbital Energies (a.u.)
    -----------------------

    Doubly Occupied:

       1A    -20.548337     2A    -20.545337     3A    -11.267813
       4A    -11.266970     5A    -11.263672     6A    -11.262186
       7A     -1.390287     8A     -1.372709     9A     -1.030172
      10A     -0.940535    11A     -0.896425    12A     -0.821285
      13A     -0.687975    14A     -0.679106    15A     -0.660332
      16A     -0.640176    17A     -0.624631    18A     -0.605634
      19A     -0.557734    20A     -0.526257    21A     -0.513336
      22A     -0.483019    23A     -0.470611    24A     -0.418948
      25A     -0.410097

  @DF-RHF Final Energy:  -307.09387315097842

   => Energetics <=

    Nuclear Repulsion Energy =            259.4564251818297862
    One-Electron Energy =                -933.3334258881941423
    Two-Electron Energy =                 366.7831275553859314
    DFT Exchange-Correlation Energy =       0.0000000000000000
    Empirical Dispersion Energy =           0.0000000000000000
    PCM Polarization Energy =               0.0000000000000000
    EFP Energy =                            0.0000000000000000
    Total Energy =                       -307.0938731509784247
    Molecular point group: c1
  Basis Set: CC-PVTZ
  Basis Set:

  -Total Gradient:
     Atom            X                  Y                   Z
    ------   -----------------  -----------------  -----------------
       1       -0.000003072700    -0.000004730264    -0.000001276975
       2       -0.000552990977     0.000220435129     0.000549029516
       3        0.000910599840    -0.000382734644    -0.000510198386
       4        0.000006027279     0.000004442047     0.000006268452
       5       -0.000008259572    -0.000002999061    -0.000007180338
       6       -0.000564808506     0.000393433197    -0.000676088342
       7        0.000211801119    -0.000216110533     0.000578423670
       8        0.000006385806    -0.000000051259     0.000005451193
       9       -0.000014948248    -0.000012331008     0.000005812364
      10        0.000007957857     0.000000182442     0.000041120042
      11       -0.000000053224     0.000010301445    -0.000009669572
      12        0.000006608479    -0.000017802534     0.000016588712
      13       -0.000003535341     0.000007766052    -0.000002588887
      14       -0.000007041232     0.000001188474     0.000001994556
      15        0.000005169551    -0.000000913011    -0.000000621045
      16        0.000000159869    -0.000000076472     0.000002935043

  **** Optimization is complete! (in 7 steps) ****
    Final optimized geometry and variables:
    Molecular point group: c1

    Geometry (in Angstrom), charge = 0, multiplicity = 1:

    H           -3.266155535293     0.114529122824    -0.627524755064
    C           -2.443681628147    -0.552921937935    -0.874281386863
    O           -1.445871538172    -0.513857342920     0.092042831846
    H           -2.820088955648    -1.564800276828    -0.915127905519
    H           -2.067443236663    -0.285236374368    -1.859532900328
    C           -0.820431446710     0.720542533813     0.274837276571
    C            0.607967108703     0.713299954126    -0.222213836716
    H           -1.365149624837     1.510619127106    -0.235226718596
    H           -0.819606698606     0.946835764658     1.334485963616
    O            1.383197527093    -0.090993904485     0.602919555484
    H            0.638608222552     0.350464311088    -1.248861664581
    H            0.989258983235     1.735371563886    -0.220209942875
    C            2.700345345709    -0.238537257763     0.190014118774
    H            2.760454407906    -0.704734198215    -0.790961663370
    H            3.215933137903     0.719153096953     0.147438674153
    H            3.202596896403    -0.871521721040     0.906838355761

  Mulliken Charges: (a.u.)
   Center  Symbol    Alpha    Beta     Spin     Total
       1     H     0.46990  0.46990  0.00000  0.06020
       2     C     3.03028  3.03028  0.00000 -0.06056
       3     O     4.17565  4.17565  0.00000 -0.35129
       4     H     0.44817  0.44817  0.00000  0.10365
       5     H     0.47434  0.47434  0.00000  0.05131
       6     C     2.97199  2.97199  0.00000  0.05602
       7     C     2.95941  2.95941  0.00000  0.08118
       8     H     0.47305  0.47305  0.00000  0.05389
       9     H     0.45397  0.45397  0.00000  0.09206
      10     O     4.16811  4.16811  0.00000 -0.33622
      11     H     0.47655  0.47655  0.00000  0.04689
      12     H     0.47631  0.47631  0.00000  0.04739
      13     C     3.03158  3.03158  0.00000 -0.06315
      14     H     0.47124  0.47124  0.00000  0.05753
      15     H     0.47340  0.47340  0.00000  0.05321
      16     H     0.44606  0.44606  0.00000  0.10789

   Total alpha = 25.00000, Total beta = 25.00000, Total charge = -0.00000

*** Psi4 exiting successfully. Buy a developer a beer!
