  ==> Input File <==

--------------------------------------------------------------------------
set {
	reference rhf
	basis cc-pvtz
}

set_num_threads( 4 )
memory 2 gb

molecule MOL {
0 1

H	 1.055693	 0.500052	 -0.505155
C	 0.788096	 -0.429819	 0.000000
N	 -0.537714	 -0.645117	 0.000000
O	 1.611994	 -1.141128	 0.481611
C	 -1.522613	 0.412524	 0.000000
H	 -0.845894	 -1.585866	 0.000000
H	 -2.150256	 0.356137	 -0.880771
H	 -1.005621	 1.357208	 0.000000
H	 -2.150256	 0.356137	 0.880771

	symmetry c1
}
set optking {
	frozen_dihedral = ("
		1 2 3 6
	")
}

ee = optimize('scf')
oeprop('DIPOLE', 'QUADRUPOLE', 'MULLIKEN_CHARGES')
f=open( 'psi4out.xyz', 'w' )
f.write( "9  " )
f.write( str(ee) + "\n" )
f.write( MOL.save_string_xyz() )
f.close()
--------------------------------------------------------------------------

    Molecular point group: c1
  Charge       = 0
  Multiplicity = 1
  Basis Set: CC-PVTZ
  Basis Set:
  @DF-RHF Final Energy:  -208.03266733096157
    Total Energy =                       -208.0326673309615728
    Molecular point group: c1
  Basis Set: CC-PVTZ
  Basis Set:
  Basis Set: CC-PVTZ
  Basis Set:
  @DF-RHF Final Energy:  -208.03350907239843
    Total Energy =                       -208.0335090723984877
  Basis Set: CC-PVTZ
  Basis Set:
  Basis Set: CC-PVTZ
  Basis Set:
  @DF-RHF Final Energy:  -208.03527749716702
    Total Energy =                       -208.0352774971671010
  Basis Set: CC-PVTZ
  Basis Set:
  Basis Set: CC-PVTZ
  Basis Set:
  @DF-RHF Final Energy:  -208.03728474956009
    Total Energy =                       -208.0372847495600013
  Basis Set: CC-PVTZ
  Basis Set:
  @DF-RHF Final Energy:  -208.03809819105737
    Total Energy =                       -208.0380981910574292
  @DF-RHF Final Energy:  -208.03821161118560
    Total Energy =                       -208.0382116111854884
  @DF-RHF Final Energy:  -208.03831159396509
    Total Energy =                       -208.0383115939651191
  Basis Set: CC-PVTZ
  Basis Set:
  @DF-RHF Final Energy:  -208.03840937646567
    Total Energy =                       -208.0384093764656654
  Basis Set: CC-PVTZ
  Basis Set:
  Basis Set: CC-PVTZ
  Basis Set:
  @DF-RHF Final Energy:  -208.03846127957235
    Total Energy =                       -208.0384612795723172
  Basis Set: CC-PVTZ
  Basis Set:
  Basis Set: CC-PVTZ
  Basis Set:
  @DF-RHF Final Energy:  -208.03846486040939
    Total Energy =                       -208.0384648604093627
  Basis Set: CC-PVTZ
  Basis Set:
  Charge       = 0
  Multiplicity = 1
  Basis Set: CC-PVTZ
  Basis Set:

    Orbital Energies (a.u.)
    -----------------------

    Doubly Occupied:

       1A    -20.524463     2A    -15.582214     3A    -11.340841
       4A    -11.271616     5A     -1.400221     6A     -1.241954
       7A     -0.961754     8A     -0.844525     9A     -0.694202
      10A     -0.680276    11A     -0.637766    12A     -0.593071
      13A     -0.568762    14A     -0.548144    15A     -0.434270
      16A     -0.399818

  @DF-RHF Final Energy:  -208.03846496812804

   => Energetics <=

    Nuclear Repulsion Energy =            120.6651643850568263
    One-Electron Energy =                -521.9594640729592356
    Two-Electron Energy =                 193.2558347197744411
    DFT Exchange-Correlation Energy =       0.0000000000000000
    Empirical Dispersion Energy =           0.0000000000000000
    PCM Polarization Energy =               0.0000000000000000
    EFP Energy =                            0.0000000000000000
    Total Energy =                       -208.0384649681279825
    Molecular point group: c1
  Basis Set: CC-PVTZ
  Basis Set:

  -Total Gradient:
     Atom            X                  Y                   Z
    ------   -----------------  -----------------  -----------------
       1       -0.001473763539    -0.002692906376    -0.006976457612
       2        0.001313773769     0.003922748572     0.006893060110
       3        0.002396167860    -0.002554959404     0.008036192800
       4        0.000002245281     0.000014080800    -0.000005291419
       5       -0.000001175370    -0.000030394378    -0.000004165988
       6       -0.002226926491     0.001328710745    -0.007948750629
       7       -0.000012542123     0.000016679329    -0.000001823502
       8        0.000007079095    -0.000013593082     0.000005995447
       9       -0.000004858480     0.000009633794     0.000001240794

  **** Optimization is complete! (in 11 steps) ****
    Final optimized geometry and variables:
    Molecular point group: c1

    Geometry (in Angstrom), charge = 0, multiplicity = 1:

    H            0.924406779715     1.019583860247    -0.529265177097
    C            0.703798993252     0.038029759908    -0.103225037475
    N           -0.600842237559    -0.123046555203     0.235286160689
    O            1.536389182029    -0.801789853690    -0.008141111824
    C           -1.586411901592     0.885804022268    -0.089838500627
    H           -0.915927141340    -1.064287799280     0.167446834080
    H           -1.967043304333     0.796504617215    -1.102668074218
    H           -1.149965570748     1.867923910031     0.025918792631
    H           -2.417648813981     0.814983595139     0.597399120454

  Mulliken Charges: (a.u.)
   Center  Symbol    Alpha    Beta     Spin     Total
       1     H     0.47223  0.47223  0.00000  0.05553
       2     C     2.87611  2.87611  0.00000  0.24778
       3     N     3.59970  3.59970  0.00000 -0.19940
       4     O     4.19958  4.19958  0.00000 -0.39916
       5     C     3.07924  3.07924  0.00000 -0.15849
       6     H     0.41612  0.41612  0.00000  0.16776
       7     H     0.45762  0.45762  0.00000  0.08477
       8     H     0.45296  0.45296  0.00000  0.09409
       9     H     0.44644  0.44644  0.00000  0.10712

   Total alpha = 16.00000, Total beta = 16.00000, Total charge =  0.00000
