  ==> Input File <==

--------------------------------------------------------------------------
set {
	reference rhf
	basis 6-31G*
}

set_num_threads( 4 )
memory 2 gb

molecule MOL {
0 1

H	 -0.216825	 0.021369	 -3.357402
C	 0.374198	 0.036393	 -2.447010
C	 -0.521757	 -0.028637	 -1.217342
H	 0.969602	 0.942322	 -2.434777
H	 1.053364	 -0.811668	 -2.481329
N	 0.263400	 0.031178	 0.000000
H	 -1.199035	 0.820290	 -1.219355
H	 -1.147901	 -0.924895	 -1.265384
C	 -0.521757	 -0.028637	 1.217342
H	 0.935769	 -0.712709	 0.000000
C	 -2.006973	 -0.146470	 0.902226
H	 -0.201696	 -0.901917	 1.777994
H	 -0.350798	 0.836020	 1.866021
H	 -2.197304	 -1.024584	 0.295552
H	 -2.591100	 -0.220964	 1.814143
H	 -2.360805	 0.723396	 0.354697

	symmetry c1
}
set optking {
	frozen_dihedral = ("
		12 9 6 3
	")
}

ee = optimize('scf')
oeprop('DIPOLE', 'QUADRUPOLE', 'MULLIKEN_CHARGES')
f=open( 'psi4out.xyz', 'w' )
f.write( "16  " )
f.write( str(ee) + "\n" )
f.write( MOL.save_string_xyz() )
f.close()
--------------------------------------------------------------------------

    Molecular point group: c1
  Charge       = 0
  Multiplicity = 1
  Basis Set: 6-31G*
  Basis Set:
  @DF-RHF Final Energy:  -212.29232239333072
    Total Energy =                       -212.2923223933308350
    Molecular point group: c1
  Basis Set: 6-31G*
  Basis Set:
  Basis Set: 6-31G*
  Basis Set:
  @DF-RHF Final Energy:  -212.29062803097875
    Total Energy =                       -212.2906280309788940
  Basis Set: 6-31G*
  Basis Set:
  Basis Set: 6-31G*
  Basis Set:
  @DF-RHF Final Energy:  -212.29989714255498
    Total Energy =                       -212.2998971425548120
  Basis Set: 6-31G*
  Basis Set:
  Basis Set: 6-31G*
  Basis Set:
  @DF-RHF Final Energy:  -212.30202277873704
    Total Energy =                       -212.3020227787369549
  Basis Set: 6-31G*
  Basis Set:
  @DF-RHF Final Energy:  -212.30240018765755
    Total Energy =                       -212.3024001876575539
  Basis Set: 6-31G*
  Basis Set:
  @DF-RHF Final Energy:  -212.30260771068106
    Total Energy =                       -212.3026077106811726
  Basis Set: 6-31G*
  Basis Set:
  Basis Set: 6-31G*
  Basis Set:
  @DF-RHF Final Energy:  -212.30262777984160
    Total Energy =                       -212.3026277798416004
  Basis Set: 6-31G*
  Basis Set:
  Basis Set: 6-31G*
  Basis Set:
  @DF-RHF Final Energy:  -212.30263196418954
    Total Energy =                       -212.3026319641895157
  Basis Set: 6-31G*
  Basis Set:
  Charge       = 0
  Multiplicity = 1
  Basis Set: 6-31G*
  Basis Set:

    Orbital Energies (a.u.)
    -----------------------

    Doubly Occupied:

       1A    -15.528537     2A    -11.241657     3A    -11.239664
       4A    -11.210881     5A    -11.206755     6A     -1.195223
       7A     -1.023961     8A     -0.968657     9A     -0.853807
      10A     -0.792287    11A     -0.661667    12A     -0.627471
      13A     -0.599405    14A     -0.596167    15A     -0.537681
      16A     -0.523839    17A     -0.509764    18A     -0.494610
      19A     -0.481611    20A     -0.475820    21A     -0.345351

  @DF-RHF Final Energy:  -212.30263305195143

   => Energetics <=

    Nuclear Repulsion Energy =            191.4049608730515502
    One-Electron Energy =                -665.1855583837896120
    Two-Electron Energy =                 261.4779644587865164
    DFT Exchange-Correlation Energy =       0.0000000000000000
    Empirical Dispersion Energy =           0.0000000000000000
    PCM Polarization Energy =               0.0000000000000000
    EFP Energy =                            0.0000000000000000
    Total Energy =                       -212.3026330519515454
    Molecular point group: c1
  Basis Set: 6-31G*
  Basis Set:

  -Total Gradient:
     Atom            X                  Y                   Z
    ------   -----------------  -----------------  -----------------
       1        0.000003555769     0.000001185947     0.000000166234
       2        0.000000815221    -0.000004178102    -0.000006202723
       3        0.000015657720    -0.000071125816     0.000012121165
       4       -0.000000267451     0.000003795318    -0.000003586363
       5        0.000000199676    -0.000001451745    -0.000001126712
       6       -0.000049101086     0.000053112654    -0.000004345701
       7       -0.000008233424     0.000009919812    -0.000003657488
       8        0.000002347685     0.000007498268     0.000004439566
       9        0.000081033284     0.000040028648     0.000041194252
      10        0.000012257535     0.000004721417    -0.000001542754
      11       -0.000012039359     0.000005139281     0.000001595316
      12       -0.000043830547    -0.000041816422    -0.000045795448
      13       -0.000004612053    -0.000004877124     0.000009356745
      14        0.000003351492     0.000002593925     0.000001558600
      15       -0.000002459206    -0.000000954913    -0.000003127153
      16        0.000001324745    -0.000003591145    -0.000001047539

  **** Optimization is complete! (in 9 steps) ****
    Final optimized geometry and variables:
    Molecular point group: c1

    Geometry (in Angstrom), charge = 0, multiplicity = 1:

    H            0.484768382921     0.102234103359    -3.111878464814
    C            0.990779943848     0.117848515111    -2.151438849702
    C           -0.009982587932    -0.015792170769    -1.010084159453
    H            1.543994491441     1.046017424651    -2.064114348020
    H            1.705644049139    -0.701306666153    -2.143251413719
    N            0.685903151265     0.041074390559     0.260840503170
    H           -0.712291917417     0.807937086752    -1.063522809799
    H           -0.589398266187    -0.931402824181    -1.150123042184
    C           -0.061450464894    -0.017282543108     1.520196823499
    H            1.417222511792    -0.638940638729     0.270072227162
    C           -1.584569203518    -0.079931081862     1.409138944582
    H            0.267397031195    -0.883032928429     2.090476601569
    H            0.196830725248     0.853147424691     2.118015334851
    H           -1.920969515070    -0.963132675811     0.877381938475
    H           -2.011001052245    -0.112229107568     2.407051211230
    H           -1.991686963190     0.792345402018     0.910297152042

  Mulliken Charges: (a.u.)
   Center  Symbol    Alpha    Beta     Spin     Total
       1     H     0.42086  0.42086  0.00000  0.15827
       2     C     3.24159  3.24159  0.00000 -0.48318
       3     C     3.04905  3.04905  0.00000 -0.09810
       4     H     0.41227  0.41227  0.00000  0.17545
       5     H     0.42575  0.42575  0.00000  0.14850
       6     N     3.86612  3.86612  0.00000 -0.73224
       7     H     0.41991  0.41991  0.00000  0.16018
       8     H     0.43499  0.43499  0.00000  0.13002
       9     C     3.04108  3.04108  0.00000 -0.08215
      10     H     0.33214  0.33214  0.00000  0.33571
      11     C     3.25415  3.25415  0.00000 -0.50831
      12     H     0.42883  0.42883  0.00000  0.14234
      13     H     0.42070  0.42070  0.00000  0.15860
      14     H     0.41863  0.41863  0.00000  0.16273
      15     H     0.41733  0.41733  0.00000  0.16534
      16     H     0.41659  0.41659  0.00000  0.16683

   Total alpha = 21.00000, Total beta = 21.00000, Total charge =  0.00000
