  ==> Input File <==

--------------------------------------------------------------------------
set {
	reference rhf
	basis 6-31G*
}

set_num_threads( 1 )
memory 2 gb

molecule MOL {
0 1

H	 0.464437	 1.696384	 4.613890
C	 -0.149164	 0.789529	 4.545120
C	 -1.124128	 0.765429	 3.395566
O	 -0.018688	 -0.081720	 5.342398
C	 -0.452639	 1.064093	 2.047917
H	 -1.620980	 -0.197793	 3.388530
H	 -1.875885	 1.527427	 3.597743
C	 0.527923	 -0.022881	 1.600384
H	 -1.227518	 1.182532	 1.296372
H	 0.062155	 2.021935	 2.105213
C	 1.180775	 0.282413	 0.250794
H	 0.002842	 -0.974113	 1.542968
H	 1.303667	 -0.152573	 2.352674
C	 2.148627	 -0.814315	 -0.201312
H	 0.401222	 0.421140	 -0.494045
H	 1.715484	 1.229174	 0.314924
C	 3.580890	 -0.659131	 0.322722
H	 2.166869	 -0.852443	 -1.289387
H	 1.762857	 -1.776509	 0.128956
C	 4.324889	 0.564933	 -0.213704
H	 4.142010	 -1.551473	 0.056605
H	 3.564836	 -0.624694	 1.410140
H	 4.342616	 0.565491	 -1.300421
H	 3.866655	 1.493402	 0.110242
H	 5.353900	 0.572371	 0.132816

	symmetry c1
}
set optking {
	frozen_dihedral = ("
		6 3 5 8,
		6 3 2 4,
		3 5 8 12,
		12 8 11 14,
		20 17 14 18
	")
}

ee = energy('scf')
oeprop('DIPOLE', 'QUADRUPOLE', 'MULLIKEN_CHARGES')
f=open( 'psi4out.xyz', 'w' )
f.write( "25  " )
f.write( str(ee) + "\n" )
f.write( MOL.save_string_xyz() )
f.close()
--------------------------------------------------------------------------

    Molecular point group: c1

    Geometry (in Angstrom), charge = 0, multiplicity = 1:

       Center              X                  Y                   Z               Mass
    ------------   -----------------  -----------------  -----------------  -----------------
           H         -0.665467212159     1.486035810607     2.705299317786     1.007825032070
           C         -1.279068212159     0.579180810607     2.636529317786    12.000000000000
           C         -2.254032212159     0.555080810607     1.486975317786    12.000000000000
           O         -1.148592212159    -0.292068189393     3.433807317786    15.994914619560
           C         -1.582543212159     0.853744810607     0.139326317786    12.000000000000
           H         -2.750884212159    -0.408141189393     1.479939317786     1.007825032070
           H         -3.005789212159     1.317078810607     1.689152317786     1.007825032070
           C         -0.601981212159    -0.233229189393    -0.308206682214    12.000000000000
           H         -2.357422212159     0.972183810607    -0.612218682214     1.007825032070
           H         -1.067749212159     1.811586810607     0.196622317786     1.007825032070
           C          0.050870787841     0.072064810607    -1.657796682214    12.000000000000
           H         -1.127062212159    -1.184461189393    -0.365622682214     1.007825032070
           H          0.173762787841    -0.362921189393     0.444083317786     1.007825032070
           C          1.018722787841    -1.024663189393    -2.109902682214    12.000000000000
           H         -0.728682212159     0.210791810607    -2.402635682214     1.007825032070
           H          0.585579787841     1.018825810607    -1.593666682214     1.007825032070
           C          2.450985787841    -0.869479189393    -1.585868682214    12.000000000000
           H          1.036964787841    -1.062791189393    -3.197977682214     1.007825032070
           H          0.632952787841    -1.986857189393    -1.779634682214     1.007825032070
           C          3.194984787841     0.354584810607    -2.122294682214    12.000000000000
           H          3.012105787841    -1.761821189393    -1.851985682214     1.007825032070
           H          2.434931787841    -0.835042189393    -0.498450682214     1.007825032070
           H          3.212711787841     0.355142810607    -3.209011682214     1.007825032070
           H          2.736750787841     1.283053810607    -1.798348682214     1.007825032070
           H          4.223995787841     0.362022810607    -1.775774682214     1.007825032070

  Charge       = 0
  Multiplicity = 1
  Basis Set: 6-31G*
  Basis Set:

    Orbital Energies (a.u.)
    -----------------------

    Doubly Occupied:

       1A    -20.562081     2A    -11.326189     3A    -11.235150
       4A    -11.234525     5A    -11.223601     6A    -11.218814
       7A    -11.217708     8A    -11.216175     9A    -11.210772
      10A     -1.402066    11A     -1.104562    12A     -1.069522
      13A     -1.011815    14A     -0.942941    15A     -0.875028
      16A     -0.827303    17A     -0.788242    18A     -0.773766
      19A     -0.665369    20A     -0.660648    21A     -0.633820
      22A     -0.624479    23A     -0.609742    24A     -0.588911
      25A     -0.568191    26A     -0.558637    27A     -0.536443
      28A     -0.521582    29A     -0.513836    30A     -0.497267
      31A     -0.489081    32A     -0.481364    33A     -0.459222
      34A     -0.453153    35A     -0.444182    36A     -0.409601

  @DF-RHF Final Energy:  -387.11864077073960

   => Energetics <=

    Nuclear Repulsion Energy =            446.0440040102240573
    One-Electron Energy =               -1408.4138649049380092
    Two-Electron Energy =                 575.2512201239737806
    DFT Exchange-Correlation Energy =       0.0000000000000000
    Empirical Dispersion Energy =           0.0000000000000000
    PCM Polarization Energy =               0.0000000000000000
    EFP Energy =                            0.0000000000000000
    Total Energy =                       -387.1186407707401713

  Mulliken Charges: (a.u.)
   Center  Symbol    Alpha    Beta     Spin     Total
       1     H     0.43266  0.43266  0.00000  0.13469
       2     C     2.83086  2.83086  0.00000  0.33828
       3     C     3.20805  3.20805  0.00000 -0.41611
       4     O     4.23783  4.23783  0.00000 -0.47566
       5     C     3.16640  3.16640  0.00000 -0.33281
       6     H     0.39974  0.39974  0.00000  0.20052
       7     H     0.40675  0.40675  0.00000  0.18649
       8     C     3.15644  3.15644  0.00000 -0.31289
       9     H     0.41279  0.41279  0.00000  0.17442
      10     H     0.41979  0.41979  0.00000  0.16043
      11     C     3.15625  3.15625  0.00000 -0.31249
      12     H     0.41785  0.41785  0.00000  0.16430
      13     H     0.41792  0.41792  0.00000  0.16417
      14     C     3.15644  3.15644  0.00000 -0.31288
      15     H     0.42024  0.42024  0.00000  0.15953
      16     H     0.42109  0.42109  0.00000  0.15781
      17     C     3.15456  3.15456  0.00000 -0.30912
      18     H     0.42101  0.42101  0.00000  0.15798
      19     H     0.41996  0.41996  0.00000  0.16008
      20     C     3.24084  3.24084  0.00000 -0.48167
      21     H     0.41942  0.41942  0.00000  0.16116
      22     H     0.42178  0.42178  0.00000  0.15645
      23     H     0.42168  0.42168  0.00000  0.15664
      24     H     0.42159  0.42159  0.00000  0.15682
      25     H     0.41806  0.41806  0.00000  0.16387

   Total alpha = 36.00000, Total beta = 36.00000, Total charge = -0.00000
