                              Psi4 1.0.54 Driver

  ==> Input File <==

--------------------------------------------------------------------------
set {
	reference rhf
	basis cc-pvtz
}

set_num_threads( 4 )
memory 2 gb

molecule MOL {
0 1

O	 -2.817697	 1.304178	 0.001046
C	 -2.664672	 0.129869	 0.003507
C	 -3.797908	 -0.860100	 -0.001145
O	 -1.481217	 -0.452708	 0.001092
H	 -4.408836	 -0.679689	 -0.875387
H	 -3.443486	 -1.878443	 -0.002770
H	 -4.412123	 -0.683688	 0.871605
C	 -0.332055	 0.384012	 -0.000250
C	 0.892252	 -0.506059	 -0.000295
H	 -0.360822	 1.020205	 -0.874146
H	 -0.359817	 1.021310	 0.872861
C	 2.188199	 0.299473	 -0.001416
H	 0.857046	 -1.152781	 -0.871031
H	 0.857910	 -1.151798	 0.871202
C	 3.437151	 -0.577593	 -0.000991
H	 2.209565	 0.950707	 -0.871712
H	 2.210062	 0.952234	 0.867721
C	 3.728995	 -1.201216	 1.359497
H	 4.290961	 0.015220	 -0.316645
H	 3.322282	 -1.364356	 -0.741191
H	 3.882893	 -0.438083	 2.115003
H	 4.620292	 -1.816797	 1.325475
H	 2.906553	 -1.828096	 1.687315

	symmetry c1
}
set optking {
	frozen_dihedral = ("
		19 15 12 16
	")
}

ee,wfn = optimize('scf', return_wfn=True)
oeprop( wfn, 'DIPOLE', 'QUADRUPOLE', 'MULLIKEN_CHARGES')
f=open( 'psi4out.xyz', 'w' )
f.write( "23  " )
f.write( str(ee) + "\n" )
f.write( MOL.save_string_xyz() )
f.close()
--------------------------------------------------------------------------

    Molecular point group: c1
  Charge       = 0
  Multiplicity = 1
  Basis Set: CC-PVTZ
  Basis Set:
  @DF-RHF Final Energy:  -423.13260128905824
    Total Energy =                       -423.1326012890582433
    Molecular point group: c1
  Basis Set: CC-PVTZ
  Basis Set:
  Basis Set: CC-PVTZ
  Basis Set:
  @DF-RHF Final Energy:  -423.13260378162522
    Total Energy =                       -423.1326037816253347
  Basis Set: CC-PVTZ
  Basis Set:
  Basis Set: CC-PVTZ
  Basis Set:
  @DF-RHF Final Energy:  -423.13266296458124
    Total Energy =                       -423.1326629645813000
  Basis Set: CC-PVTZ
  Basis Set:
  Basis Set: CC-PVTZ
  Basis Set:
  @DF-RHF Final Energy:  -423.13283048456458
    Total Energy =                       -423.1328304845645789
  Basis Set: CC-PVTZ
  Basis Set:
  Basis Set: CC-PVTZ
  Basis Set:
  @DF-RHF Final Energy:  -423.13283181669055
    Total Energy =                       -423.1328318166908957
  Basis Set: CC-PVTZ
  Basis Set:
  Charge       = 0
  Multiplicity = 1
  Basis Set: CC-PVTZ
  Basis Set:

    Orbital Energies (a.u.)
    -----------------------

    Doubly Occupied:

       1A    -20.595944     2A    -20.529528     3A    -11.366409
       4A    -11.279412     5A    -11.230695     6A    -11.222163
       7A    -11.221452     8A    -11.219713     9A    -11.211122
      10A     -1.471165    11A     -1.364006    12A     -1.094959
      13A     -1.042204    14A     -1.003002    15A     -0.931930
      16A     -0.852747    17A     -0.795818    18A     -0.773770
      19A     -0.694023    20A     -0.688385    21A     -0.673005
      22A     -0.635228    23A     -0.618768    24A     -0.598877
      25A     -0.579015    26A     -0.572188    27A     -0.547860
      28A     -0.537552    29A     -0.527180    30A     -0.508528
      31A     -0.498840    32A     -0.473160    33A     -0.467373
      34A     -0.466244    35A     -0.455176    36A     -0.438898

  @DF-RHF Final Energy:  -423.13283186447654

   => Energetics <=

    Nuclear Repulsion Energy =            454.3281007333786192
    One-Electron Energy =               -1476.5491860414590519
    Two-Electron Energy =                 599.0882534436037758
    DFT Exchange-Correlation Energy =       0.0000000000000000
    Empirical Dispersion Energy =           0.0000000000000000
    PCM Polarization Energy =               0.0000000000000000
    EFP Energy =                            0.0000000000000000
    Total Energy =                       -423.1328318644766568
    Molecular point group: c1
  Basis Set: CC-PVTZ
  Basis Set:

  -Total Gradient:
     Atom            X                  Y                   Z
    ------   -----------------  -----------------  -----------------
       1        0.000000968357     0.000012664717    -0.000003931765
       2        0.000016373564    -0.000011439910     0.000015766827
       3        0.000002235843    -0.000004172392     0.000002373370
       4       -0.000009303523    -0.000000269749    -0.000006713000
       5       -0.000002453335    -0.000001823646    -0.000006744781
       6       -0.000001026300    -0.000001405482    -0.000000819826
       7       -0.000000157489     0.000003446327     0.000000705253
       8        0.000007652146     0.000006626342     0.000000220670
       9       -0.000005945407    -0.000008777327     0.000005119425
      10       -0.000003880487    -0.000000819744    -0.000001639019
      11       -0.000002435539    -0.000001214975     0.000001418220
      12       -0.001053696253    -0.001565134843    -0.001490841905
      13       -0.000000209034     0.000003517140    -0.000000744337
      14        0.000000232584    -0.000003423344     0.000000793947
      15        0.000546905483     0.000805162493     0.002197085934
      16        0.000804953859     0.001198346248     0.000903919373
      17       -0.000000034502    -0.000000997158     0.000000228123
      18       -0.000001362494    -0.000003263567     0.000006913511
      19       -0.000294672353    -0.000432619759    -0.001618388589
      20       -0.000002965463     0.000002284034    -0.000000319860
      21       -0.000001619819     0.000000268435    -0.000000931364
      22       -0.000000138209     0.000000607735    -0.000001580763
      23        0.000000578361     0.000002438425    -0.000001889443

  **** Optimization is complete! (in 6 steps) ****
    Final optimized geometry and variables:
    Molecular point group: c1

    Geometry (in Angstrom), charge = 0, multiplicity = 1:

    O           -2.709790157575     1.465035624975    -0.153003508878
    C           -2.558091300283     0.290523902225    -0.148586458895
    C           -3.692585642338    -0.698230901135    -0.142192140812
    O           -1.375232853608    -0.293107151201    -0.148698838196
    H           -4.307786436073    -0.521486654145    -1.014251587245
    H           -3.339358565409    -1.717028777148    -0.140435829500
    H           -4.302062431204    -0.516605877232     0.732895232438
    C           -0.225554114909     0.542547656159    -0.154289984067
    C            0.998055470891    -0.348757602570    -0.152317131805
    H           -0.254382146238     1.175731893313    -1.030451286024
    H           -0.251361770228     1.183167970137     0.716538857689
    C            2.291808004898     0.462060760034    -0.162473554998
    H            0.963120320033    -0.996062401551    -1.022773673063
    H            0.957235280920    -0.991855566730     0.719317838675
    C            3.564720254850    -0.388516407856    -0.166162100790
    H            2.301180431599     1.112971697828    -1.031887164475
    H            2.310990032739     1.123538614866     0.700769356909
    C            3.898237906831    -1.030166921443     1.177554805616
    H            4.396992678017     0.231678595772    -0.482465646335
    H            3.471986509460    -1.163366223642    -0.922665727308
    H            4.032627402329    -0.275696117227     1.945591875150
    H            4.815942207231    -1.603342775138     1.114090496760
    H            3.116524716799    -1.703586237746     1.508996934561

  Mulliken Charges: (a.u.)
   Center  Symbol    Alpha    Beta     Spin     Total
       1     O     4.20240  4.20240  0.00000 -0.40480
       2     C     2.81523  2.81523  0.00000  0.36955
       3     C     3.13994  3.13994  0.00000 -0.27988
       4     O     4.14496  4.14496  0.00000 -0.28993
       5     H     0.44209  0.44209  0.00000  0.11581
       6     H     0.44189  0.44189  0.00000  0.11621
       7     H     0.44212  0.44212  0.00000  0.11575
       8     C     2.97854  2.97854  0.00000  0.04292
       9     C     3.08343  3.08343  0.00000 -0.16685
      10     H     0.45319  0.45319  0.00000  0.09363
      11     H     0.45372  0.45372  0.00000  0.09256
      12     C     3.10459  3.10459  0.00000 -0.20918
      13     H     0.45070  0.45070  0.00000  0.09860
      14     H     0.45020  0.45020  0.00000  0.09960
      15     C     3.09083  3.09083  0.00000 -0.18165
      16     H     0.44654  0.44654  0.00000  0.10691
      17     H     0.45342  0.45342  0.00000  0.09317
      18     C     3.14962  3.14962  0.00000 -0.29923
      19     H     0.44671  0.44671  0.00000  0.10658
      20     H     0.45490  0.45490  0.00000  0.09020
      21     H     0.45443  0.45443  0.00000  0.09114
      22     H     0.44634  0.44634  0.00000  0.10732
      23     H     0.45420  0.45420  0.00000  0.09160

   Total alpha = 36.00000, Total beta = 36.00000, Total charge =  0.00000

*** Psi4 exiting successfully. Buy a developer a beer!
