  ==> Input File <==

--------------------------------------------------------------------------
set {
	reference rhf
	basis cc-pvtz
}

set_num_threads( 4 )
memory 2 gb

molecule MOL {
0 1

H	 1.128311	 0.207724	 1.465118
C	 1.134565	 0.093781	 0.372499
C	 0.062554	 0.862911	 -0.350953
O	 1.948932	 -0.587720	 -0.146651
C	 0.063769	 0.598542	 -1.859833
H	 0.186272	 1.915634	 -0.131950
H	 -0.888760	 0.542221	 0.067657
C	 1.303523	 1.135617	 -2.569207
H	 -0.822605	 1.052158	 -2.287791
H	 -0.026881	 -0.469359	 -2.038200
H	 1.393029	 2.207890	 -2.435878
H	 1.256045	 0.934406	 -3.632645
H	 2.212018	 0.682366	 -2.188110

	symmetry c1
}
set optking {
	frozen_dihedral = ("
		6 3 2 4
	")
}

ee = optimize('scf')
oeprop('DIPOLE', 'QUADRUPOLE', 'MULLIKEN_CHARGES')
f=open( 'psi4out.xyz', 'w' )
f.write( "13  " )
f.write( str(ee) + "\n" )
f.write( MOL.save_string_xyz() )
f.close()
--------------------------------------------------------------------------

    Molecular point group: c1
  Charge       = 0
  Multiplicity = 1
  Basis Set: CC-PVTZ
  Basis Set:
  @DF-RHF Final Energy:  -231.06990807089559
    Total Energy =                       -231.0699080708958491
    Molecular point group: c1
  Basis Set: CC-PVTZ
  Basis Set:
  Basis Set: CC-PVTZ
  Basis Set:
  @DF-RHF Final Energy:  -231.07119273665813
    Total Energy =                       -231.0711927366583609
  Basis Set: CC-PVTZ
  Basis Set:
  Basis Set: CC-PVTZ
  Basis Set:
  @DF-RHF Final Energy:  -231.07072617977369
    Total Energy =                       -231.0707261797738852
  Basis Set: CC-PVTZ
  Basis Set:
  Basis Set: CC-PVTZ
  Basis Set:
  @DF-RHF Final Energy:  -231.07137081491982
    Total Energy =                       -231.0713708149197032
  Basis Set: CC-PVTZ
  Basis Set:
  Basis Set: CC-PVTZ
  Basis Set:
  @DF-RHF Final Energy:  -231.07142675068982
    Total Energy =                       -231.0714267506900228
  Basis Set: CC-PVTZ
  Basis Set:
  Basis Set: CC-PVTZ
  Basis Set:
  @DF-RHF Final Energy:  -231.07142788437483
    Total Energy =                       -231.0714278843748559
  Basis Set: CC-PVTZ
  Basis Set:
  Charge       = 0
  Multiplicity = 1
  Basis Set: CC-PVTZ
  Basis Set:

    Orbital Energies (a.u.)
    -----------------------

    Doubly Occupied:

       1A    -20.553726     2A    -11.323949     3A    -11.237322
       4A    -11.223952     5A    -11.207449     6A     -1.409443
       7A     -1.078959     8A     -0.973938     9A     -0.850163
      10A     -0.766910    11A     -0.688462    12A     -0.644728
      13A     -0.622381    14A     -0.584329    15A     -0.567860
      16A     -0.524065    17A     -0.496850    18A     -0.484267
      19A     -0.483459    20A     -0.413728

  @DF-RHF Final Energy:  -231.07142800360674

   => Energetics <=

    Nuclear Repulsion Energy =            176.5243265482898778
    One-Electron Energy =                -662.9196269017759278
    Two-Electron Energy =                 255.3238723498791956
    DFT Exchange-Correlation Energy =       0.0000000000000000
    Empirical Dispersion Energy =           0.0000000000000000
    PCM Polarization Energy =               0.0000000000000000
    EFP Energy =                            0.0000000000000000
    Total Energy =                       -231.0714280036068544
    Molecular point group: c1
  Basis Set: CC-PVTZ
  Basis Set:

  -Total Gradient:
     Atom            X                  Y                   Z
    ------   -----------------  -----------------  -----------------
       1        0.000004334964    -0.000002552114    -0.000002857006
       2       -0.001132003594    -0.001466744663    -0.000043914537
       3       -0.000549036581     0.000415773519     0.001115654518
       4        0.000891825969     0.001011680657    -0.000101227376
       5        0.000002910638     0.000011529055    -0.000006395107
       6        0.000783798445     0.000027617651    -0.000968859143
       7       -0.000002146953     0.000003734004     0.000003854826
       8        0.000009598315    -0.000010652931     0.000000038260
       9        0.000001750605     0.000005552132     0.000001159395
      10        0.000000766024     0.000003179073     0.000000224940
      11       -0.000006319833    -0.000001422118    -0.000000423621
      12       -0.000000284715    -0.000002548518     0.000004625487
      13       -0.000005193286     0.000004854252    -0.000001880636

  **** Optimization is complete! (in 7 steps) ****
    Final optimized geometry and variables:
    Molecular point group: c1

    Geometry (in Angstrom), charge = 0, multiplicity = 1:

    H            0.141285855633    -0.180619411170     2.410530527777
    C            0.188867993954    -0.342057832467     1.326250526232
    C           -0.809939174781     0.458566525433     0.533494570627
    O            0.983650477766    -1.091821983442     0.874679533186
    C           -0.821312089590     0.194099935040    -0.969555456534
    H           -0.605162197101     1.507952530332     0.739486925555
    H           -1.784068267745     0.258354187394     0.973703484448
    C            0.369518112652     0.795055326156    -1.711186943246
    H           -1.738891434734     0.604644735743    -1.377611360331
    H           -0.854405668629    -0.875429147752    -1.140177549142
    H            0.401882100704     1.872844571496    -1.584799958804
    H            0.298974392519     0.591841854380    -2.773292050664
    H            1.303559953856     0.383466588558    -1.354164714145

  Mulliken Charges: (a.u.)
   Center  Symbol    Alpha    Beta     Spin     Total
       1     H     0.45000  0.45000  0.00000  0.10000
       2     C     2.91929  2.91929  0.00000  0.16141
       3     C     3.09747  3.09747  0.00000 -0.19494
       4     O     4.16715  4.16715  0.00000 -0.33431
       5     C     3.08390  3.08390  0.00000 -0.16781
       6     H     0.44718  0.44718  0.00000  0.10564
       7     H     0.43967  0.43967  0.00000  0.12066
       8     C     3.15106  3.15106  0.00000 -0.30212
       9     H     0.44756  0.44756  0.00000  0.10489
      10     H     0.44734  0.44734  0.00000  0.10531
      11     H     0.45907  0.45907  0.00000  0.08187
      12     H     0.44828  0.44828  0.00000  0.10343
      13     H     0.44202  0.44202  0.00000  0.11596

   Total alpha = 20.00000, Total beta = 20.00000, Total charge =  0.00000
