  ==> Input File <==

--------------------------------------------------------------------------
set {
	reference rhf
	basis cc-pvtz
}

set_num_threads( 4 )
memory 2 gb

molecule MOL {
0 1

H	 3.889604	 0.356866	 -0.089510
N	 3.091268	 -0.241216	 -0.065538
C	 1.860978	 0.530248	 0.016256
H	 3.192566	 -0.835836	 0.730398
C	 0.644130	 -0.381765	 -0.031064
H	 1.835721	 1.204666	 -0.833114
H	 1.808789	 1.151975	 0.911067
C	 -0.678115	 0.376691	 0.025731
H	 0.693998	 -0.977147	 -0.936845
H	 0.693309	 -1.082142	 0.800523
C	 -1.691697	 -0.097042	 -1.012262
H	 -0.490163	 1.438189	 -0.118665
H	 -1.111747	 0.277685	 1.018219
C	 -3.009793	 0.667931	 -0.956460
H	 -1.260217	 0.000601	 -2.004524
H	 -1.884162	 -1.156686	 -0.867752
H	 -2.855185	 1.727393	 -1.132177
H	 -3.705644	 0.307289	 -1.705282
H	 -3.483779	 0.561272	 0.013745

	symmetry c1
}
set optking {
	frozen_dihedral = ("
		12 8 5 9
	")
}

ee = optimize('scf')
oeprop('DIPOLE', 'QUADRUPOLE', 'MULLIKEN_CHARGES')
f=open( 'psi4out.xyz', 'w' )
f.write( "19  " )
f.write( str(ee) + "\n" )
f.write( MOL.save_string_xyz() )
f.close()
--------------------------------------------------------------------------

    Molecular point group: c1
  Charge       = 0
  Multiplicity = 1
  Basis Set: CC-PVTZ
  Basis Set:
  @DF-RHF Final Energy:  -251.44360031044693
    Total Energy =                       -251.4436003104471524
    Molecular point group: c1
  Basis Set: CC-PVTZ
  Basis Set:
  Basis Set: CC-PVTZ
  Basis Set:
  @DF-RHF Final Energy:  -251.44382882942620
    Total Energy =                       -251.4438288294263657
  Basis Set: CC-PVTZ
  Basis Set:
  Basis Set: CC-PVTZ
  Basis Set:
  @DF-RHF Final Energy:  -251.44387573922157
    Total Energy =                       -251.4438757392214256
  Basis Set: CC-PVTZ
  Basis Set:
  Charge       = 0
  Multiplicity = 1
  Basis Set: CC-PVTZ
  Basis Set:

    Orbital Energies (a.u.)
    -----------------------

    Doubly Occupied:

       1A    -15.526496     2A    -11.238603     3A    -11.212029
       4A    -11.210312     5A    -11.207426     6A    -11.205148
       7A     -1.178472     8A     -1.072601     9A     -0.998576
      10A     -0.901006    11A     -0.816062    12A     -0.789334
      13A     -0.662549    14A     -0.637749    15A     -0.624012
      16A     -0.586656    17A     -0.570448    18A     -0.549999
      19A     -0.526341    20A     -0.501549    21A     -0.481660
      22A     -0.466205    23A     -0.453368    24A     -0.451478
      25A     -0.383927

  @DF-RHF Final Energy:  -251.44387634364631

   => Energetics <=

    Nuclear Repulsion Energy =            246.2686846523716895
    One-Electron Energy =                -826.9211106695838680
    Two-Electron Energy =                 329.2085496735659831
    DFT Exchange-Correlation Energy =       0.0000000000000000
    Empirical Dispersion Energy =           0.0000000000000000
    PCM Polarization Energy =               0.0000000000000000
    EFP Energy =                            0.0000000000000000
    Total Energy =                       -251.4438763436461954
    Molecular point group: c1
  Basis Set: CC-PVTZ
  Basis Set:

  -Total Gradient:
     Atom            X                  Y                   Z
    ------   -----------------  -----------------  -----------------
       1        0.000016877591     0.000003948369     0.000000311358
       2       -0.000023016765    -0.000036721980    -0.000019253587
       3        0.000002897991     0.000118934713     0.000016085795
       4       -0.000001823796    -0.000000103342     0.000009333666
       5        0.001592526696     0.002754734530    -0.000989455836
       6        0.000004572028     0.000009595424    -0.000001321323
       7       -0.000009785416    -0.000010699829    -0.000013651744
       8       -0.000712362028    -0.000966097792    -0.003180771122
       9       -0.001276453685    -0.002206368678     0.001425514429
      10       -0.000023274088     0.000000370213    -0.000012128328
      11        0.000012065518     0.000027853345    -0.000153522151
      12        0.000354596664     0.000316039706     0.002826385796
      13        0.000047406259     0.000015668994     0.000016687277
      14        0.000007301404    -0.000039699937     0.000087152559
      15       -0.000006931213     0.000023008390    -0.000008287288
      16        0.000024275903     0.000006289736    -0.000017322365
      17        0.000012345315    -0.000019126048    -0.000011070365
      18       -0.000000568138    -0.000020119009     0.000013613680
      19       -0.000020650246     0.000022493195     0.000011699546

  **** Optimization is complete! (in 4 steps) ****
    Final optimized geometry and variables:
    Molecular point group: c1

    Geometry (in Angstrom), charge = 0, multiplicity = 1:

    H            3.838093220153     0.186701777525     0.302594050181
    N            3.033268408563    -0.403155318601     0.305362938130
    C            1.809061844465     0.379375408316     0.345029068384
    H            3.104305838617    -0.995328689221     1.106377084453
    C            0.584879499302    -0.519898734846     0.268887896893
    H            1.812599099681     1.047852787731    -0.509609374126
    H            1.734219547209     1.008852922850     1.233213183058
    C           -0.745171185113     0.251463039256     0.318214007965
    H            0.642332701252    -1.122194818742    -0.630936920166
    H            0.622451068257    -1.230007040586     1.091292779729
    C           -1.776932340440    -0.234841411469    -0.695102481641
    H           -0.561013620748     1.312705497705     0.170136149575
    H           -1.170303030391     0.177301727683     1.315192408377
    C           -3.106085815682     0.505948707454    -0.601796176651
    H           -1.370982684431    -0.126462510476    -1.697062787970
    H           -1.945328751250    -1.298570817947    -0.549923897716
    H           -2.974381196780     1.568995808718    -0.775028700830
    H           -3.814025824661     0.137046295475    -1.335150263530
    H           -3.553623266934     0.385719986639     0.379313002861

  Mulliken Charges: (a.u.)
   Center  Symbol    Alpha    Beta     Spin     Total
       1     H     0.43030  0.43030  0.00000  0.13940
       2     N     3.68987  3.68987  0.00000 -0.37974
       3     C     3.02565  3.02565  0.00000 -0.05130
       4     H     0.43083  0.43083  0.00000  0.13833
       5     C     3.08606  3.08606  0.00000 -0.17213
       6     H     0.45682  0.45682  0.00000  0.08635
       7     H     0.46725  0.46725  0.00000  0.06550
       8     C     3.09835  3.09835  0.00000 -0.19671
       9     H     0.44897  0.44897  0.00000  0.10205
      10     H     0.45753  0.45753  0.00000  0.08493
      11     C     3.08235  3.08235  0.00000 -0.16470
      12     H     0.45596  0.45596  0.00000  0.08808
      13     H     0.45335  0.45335  0.00000  0.09331
      14     C     3.15000  3.15000  0.00000 -0.30001
      15     H     0.45373  0.45373  0.00000  0.09255
      16     H     0.45342  0.45342  0.00000  0.09316
      17     H     0.45539  0.45539  0.00000  0.08923
      18     H     0.44862  0.44862  0.00000  0.10277
      19     H     0.45554  0.45554  0.00000  0.08892

   Total alpha = 25.00000, Total beta = 25.00000, Total charge = -0.00000
