  ==> Input File <==

--------------------------------------------------------------------------
set {
	reference rhf
	basis cc-pvtz
}

set_num_threads( 4 )
memory 2 gb

molecule MOL {
0 1

H	 2.752052	 0.097371	 0.132902
N	 1.777845	 0.306718	 0.135034
C	 1.117340	 -0.341137	 1.250318
C	 1.172374	 -0.060805	 -1.129155
H	 1.582569	 -0.018129	 2.173671
H	 1.190846	 -1.429113	 1.200093
C	 -0.350384	 0.045853	 1.260382
H	 1.677482	 0.465338	 -1.930024
H	 1.249358	 -1.131070	 -1.329717
C	 -0.295422	 0.325817	 -1.115974
H	 -0.434264	 1.116648	 1.467631
H	 -0.858372	 -0.483511	 2.057779
N	 -0.976577	 -0.298712	 -0.000000
H	 -0.763669	 -0.001115	 -2.036831
H	 -0.375515	 1.415900	 -1.072436
C	 -2.391156	 -0.021003	 -0.000000
H	 -2.853954	 -0.458728	 -0.875714
H	 -2.853954	 -0.458728	 0.875714
H	 -2.614037	 1.049773	 -0.000000

	symmetry c1
}
set optking {
	frozen_dihedral = ("
		7 13 16 19
	")
}

ee = optimize('scf')
oeprop('DIPOLE', 'QUADRUPOLE', 'MULLIKEN_CHARGES')
f=open( 'psi4out.xyz', 'w' )
f.write( "19  " )
f.write( str(ee) + "\n" )
f.write( MOL.save_string_xyz() )
f.close()
--------------------------------------------------------------------------

    Molecular point group: c1
  Charge       = 0
  Multiplicity = 1
  Basis Set: CC-PVTZ
  Basis Set:
  @DF-RHF Final Energy:  -305.30888955949126
    Total Energy =                       -305.3088895594909786
    Molecular point group: c1
  Basis Set: CC-PVTZ
  Basis Set:
  Basis Set: CC-PVTZ
  Basis Set:
  @DF-RHF Final Energy:  -305.30891762510140
    Total Energy =                       -305.3089176251014578
  Basis Set: CC-PVTZ
  Basis Set:
  Charge       = 0
  Multiplicity = 1
  Basis Set: CC-PVTZ
  Basis Set:

    Orbital Energies (a.u.)
    -----------------------

    Doubly Occupied:

       1A    -15.536099     2A    -15.531279     3A    -11.237306
       4A    -11.237250     5A    -11.235885     6A    -11.235872
       7A    -11.233233     8A     -1.249339     9A     -1.187740
      10A     -1.024180    11A     -0.965878    12A     -0.862022
      13A     -0.858231    14A     -0.757221    15A     -0.692811
      16A     -0.635375    17A     -0.627711    18A     -0.609153
      19A     -0.605470    20A     -0.581721    21A     -0.543924
      22A     -0.529031    23A     -0.512580    24A     -0.490555
      25A     -0.468322    26A     -0.458473    27A     -0.366137
      28A     -0.346937

  @DF-RHF Final Energy:  -305.30891995377135

   => Energetics <=

    Nuclear Repulsion Energy =            340.2946824810907174
    One-Electron Energy =               -1087.9677326101189010
    Two-Electron Energy =                 442.3641301752568324
    DFT Exchange-Correlation Energy =       0.0000000000000000
    Empirical Dispersion Energy =           0.0000000000000000
    PCM Polarization Energy =               0.0000000000000000
    EFP Energy =                            0.0000000000000000
    Total Energy =                       -305.3089199537713512
    Molecular point group: c1
  Basis Set: CC-PVTZ
  Basis Set:

  -Total Gradient:
     Atom            X                  Y                   Z
    ------   -----------------  -----------------  -----------------
       1        0.000008853629    -0.000012082566     0.000008941460
       2        0.000007827916     0.000019634472     0.000010566552
       3       -0.000053878322    -0.000068697503    -0.000097101013
       4       -0.000039098017     0.000006679593     0.000016608731
       5       -0.000030614829     0.000011299211    -0.000001978234
       6        0.000026390901    -0.000016753977    -0.000000063615
       7       -0.000159633584    -0.000935365864     0.000505230524
       8        0.000004403074     0.000004863538    -0.000005552628
       9       -0.000005175894     0.000004421758     0.000005037564
      10        0.000052832257     0.000087738236    -0.000047503845
      11       -0.000023316568     0.000006333077    -0.000014734780
      12       -0.000000706690    -0.000019392598    -0.000042810632
      13        0.000309282139     0.001319946665    -0.000958537041
      14       -0.000022067379    -0.000022206622     0.000017312528
      15        0.000006303924    -0.000019118234    -0.000009117378
      16       -0.000164713242    -0.000331981998     0.002197978629
      17        0.000049991815     0.000004397362    -0.000008513601
      18        0.000017629629    -0.000029835105    -0.000009920580
      19        0.000015689243    -0.000009879447    -0.001565842644

  **** Optimization is complete! (in 3 steps) ****
    Final optimized geometry and variables:
    Molecular point group: c1

    Geometry (in Angstrom), charge = 0, multiplicity = 1:

    H            2.752730370673     0.098741304959     0.072317970159
    N            1.778435307835     0.308035070871     0.075163125769
    C            1.119239930854    -0.338190153391     1.192041222322
    C            1.171538037700    -0.060844544651    -1.187828294427
    H            1.587854809006    -0.017063208077     2.114415674834
    H            1.189793756070    -1.426453997602     1.140915331428
    C           -0.347798112808     0.052066500217     1.206973295565
    H            1.676758615287     0.462701666956    -1.990441790877
    H            1.246597355201    -1.131734493949    -1.386173252799
    C           -0.295626488579     0.328293755459    -1.173585442953
    H           -0.428354345413     1.122267035976     1.419742198769
    H           -0.854944756048    -0.480231594332     2.002719770135
    N           -0.975417679394    -0.287778599818    -0.053443899652
    H           -0.767364375769    -0.002576390833    -2.091551894953
    H           -0.373830811961     1.418810844987    -1.135982660054
    C           -2.391577908338    -0.019537730772    -0.058860958267
    H           -2.843878325736    -0.448308717933    -0.945279688407
    H           -2.859143413786    -0.472186534296     0.805986693569
    H           -2.622272964806     1.049569379325    -0.055301592659

  Mulliken Charges: (a.u.)
   Center  Symbol    Alpha    Beta     Spin     Total
       1     H     0.43995  0.43995  0.00000  0.12010
       2     N     3.64285  3.64285  0.00000 -0.28570
       3     C     3.04102  3.04102  0.00000 -0.08204
       4     C     3.04060  3.04060  0.00000 -0.08120
       5     H     0.45246  0.45246  0.00000  0.09508
       6     H     0.46548  0.46548  0.00000  0.06904
       7     C     3.03351  3.03351  0.00000 -0.06702
       8     H     0.45244  0.45244  0.00000  0.09512
       9     H     0.46543  0.46543  0.00000  0.06915
      10     C     3.03454  3.03454  0.00000 -0.06909
      11     H     0.46909  0.46909  0.00000  0.06181
      12     H     0.45405  0.45405  0.00000  0.09189
      13     N     3.61423  3.61423  0.00000 -0.22845
      14     H     0.45431  0.45431  0.00000  0.09138
      15     H     0.46817  0.46817  0.00000  0.06366
      16     C     3.09678  3.09678  0.00000 -0.19356
      17     H     0.45217  0.45217  0.00000  0.09565
      18     H     0.45278  0.45278  0.00000  0.09444
      19     H     0.47013  0.47013  0.00000  0.05975

   Total alpha = 28.00000, Total beta = 28.00000, Total charge =  0.00000
