                              Psi4 1.0.54 Driver

  ==> Input File <==

--------------------------------------------------------------------------
set {
	reference rhf
	basis cc-pvtz
}

set_num_threads( 4 )
memory 2 gb

molecule MOL {
0 1

H	 -3.436473	 1.252944	 -1.023892
O	 -3.458596	 0.315260	 -0.960865
C	 -3.176635	 -0.080824	 0.355601
C	 -1.763371	 0.265266	 0.799691
H	 -3.321825	 -1.153438	 0.379502
H	 -3.895468	 0.357385	 1.043382
C	 -1.524970	 1.760057	 0.992275
H	 -1.544420	 -0.264096	 1.725812
H	 -1.071337	 -0.124665	 0.057107
C	 -0.112371	 2.086816	 1.469522
H	 -2.247663	 2.148848	 1.701125
H	 -1.714959	 2.272237	 0.052019
C	 0.121189	 3.584791	 1.655445
H	 0.073833	 1.563868	 2.402658
H	 0.609424	 1.699425	 0.753423
C	 1.546625	 3.969318	 2.055595
H	 -0.574216	 3.966273	 2.399577
H	 -0.123542	 4.091721	 0.726063
C	 1.972228	 3.489222	 3.441060
H	 1.632158	 5.051131	 2.021810
H	 2.242624	 3.587998	 1.312897
H	 1.290467	 3.850528	 4.204431
H	 2.963560	 3.853090	 3.686218
H	 1.998032	 2.408140	 3.505876

	symmetry c1
}
set optking {
	frozen_dihedral = ("
		7 4 3 2
	")
}

ee,wfn = optimize('scf', return_wfn=True)
oeprop( wfn, 'DIPOLE', 'QUADRUPOLE', 'MULLIKEN_CHARGES')
f=open( 'psi4out.xyz', 'w' )
f.write( "24  " )
f.write( str(ee) + "\n" )
f.write( MOL.save_string_xyz() )
f.close()
--------------------------------------------------------------------------

    Molecular point group: c1
  Charge       = 0
  Multiplicity = 1
  Basis Set: CC-PVTZ
  Basis Set:
  @DF-RHF Final Energy:  -349.37980645389194
    Total Energy =                       -349.3798064538923995
    Molecular point group: c1
  Basis Set: CC-PVTZ
  Basis Set:
  Basis Set: CC-PVTZ
  Basis Set:
  @DF-RHF Final Energy:  -349.37999180336305
    Total Energy =                       -349.3799918033635095
  Basis Set: CC-PVTZ
  Basis Set:
  Basis Set: CC-PVTZ
  Basis Set:
  @DF-RHF Final Energy:  -349.38000827615843
    Total Energy =                       -349.3800082761583781
  Basis Set: CC-PVTZ
  Basis Set:
  Basis Set: CC-PVTZ
  Basis Set:
  @DF-RHF Final Energy:  -349.38000957131976
    Total Energy =                       -349.3800095713197038
  Basis Set: CC-PVTZ
  Basis Set:
  Basis Set: CC-PVTZ
  Basis Set:
  @DF-RHF Final Energy:  -349.38001097423637
    Total Energy =                       -349.3800109742364839
  Basis Set: CC-PVTZ
  Basis Set:
  Charge       = 0
  Multiplicity = 1
  Basis Set: CC-PVTZ
  Basis Set:

    Orbital Energies (a.u.)
    -----------------------

    Doubly Occupied:

       1A    -20.545209     2A    -11.264919     3A    -11.217671
       4A    -11.214807     5A    -11.214151     6A    -11.213355
       7A    -11.213326     8A    -11.207390     9A     -1.363017
      10A     -1.093725    11A     -1.051635    12A     -0.988922
      13A     -0.919766    14A     -0.853668    15A     -0.798152
      16A     -0.780512    17A     -0.696212    18A     -0.654620
      19A     -0.625362    20A     -0.615264    21A     -0.599540
      22A     -0.588870    23A     -0.564243    24A     -0.536761
      25A     -0.528531    26A     -0.510381    27A     -0.491619
      28A     -0.486796    29A     -0.475277    30A     -0.462805
      31A     -0.458072    32A     -0.446989    33A     -0.424925

  @DF-RHF Final Energy:  -349.38001135713813

   => Energetics <=

    Nuclear Repulsion Energy =            384.3800222977835688
    One-Electron Energy =               -1235.3070845183219717
    Two-Electron Energy =                 501.5470508634001590
    DFT Exchange-Correlation Energy =       0.0000000000000000
    Empirical Dispersion Energy =           0.0000000000000000
    PCM Polarization Energy =               0.0000000000000000
    EFP Energy =                            0.0000000000000000
    Total Energy =                       -349.3800113571381871
    Molecular point group: c1
  Basis Set: CC-PVTZ
  Basis Set:

  -Total Gradient:
     Atom            X                  Y                   Z
    ------   -----------------  -----------------  -----------------
       1        0.000001328815    -0.000005408496    -0.000005099664
       2        0.000313975347    -0.000818399065    -0.000267374207
       3       -0.000545071913     0.001103412315     0.000710112193
       4        0.000481438884    -0.000213744060    -0.001272296546
       5       -0.000001772987    -0.000004094690     0.000009692524
       6        0.000002603418    -0.000002365421     0.000000402194
       7       -0.000272066632    -0.000058031496     0.000834542602
       8        0.000005947755    -0.000008080081    -0.000000769480
       9        0.000005484716    -0.000006678972     0.000000166813
      10        0.000010749027     0.000005746462     0.000003985543
      11        0.000009707056     0.000008728430    -0.000011813427
      12        0.000006053146    -0.000000398831     0.000010744493
      13       -0.000005894186    -0.000001635380    -0.000001599964
      14       -0.000011596338    -0.000001229271    -0.000007469094
      15       -0.000006356352    -0.000007542555    -0.000006563064
      16       -0.000000607915     0.000005280893     0.000003198402
      17        0.000004420830     0.000000152226    -0.000002305164
      18        0.000003543230     0.000004909672     0.000003682203
      19        0.000000323300    -0.000002029076    -0.000000960613
      20       -0.000000208967     0.000001908875    -0.000001068235
      21       -0.000002265460    -0.000001796391     0.000000801896
      22       -0.000000196668     0.000000293010    -0.000000182454
      23       -0.000000361462     0.000000566555    -0.000001067031
      24        0.000000823351     0.000000435342     0.000001240084

  **** Optimization is complete! (in 6 steps) ****
    Final optimized geometry and variables:
    Molecular point group: c1

    Geometry (in Angstrom), charge = 0, multiplicity = 1:

    H           -2.676637162542    -0.664622970070    -2.235812610127
    O           -2.601619098894    -1.598589434361    -2.172912482943
    C           -2.340515830148    -1.977764670084    -0.847205132824
    C           -0.933352620778    -1.629361562416    -0.385385635295
    H           -2.475335643094    -3.050587231242    -0.818227625049
    H           -3.075762925608    -1.542207948467    -0.173584735598
    C           -0.685746337667    -0.133515207464    -0.206021830621
    H           -0.756659525061    -2.134299416734     0.561364957766
    H           -0.225811002783    -2.040060688820    -1.098930937381
    C            0.726274404552     0.189408178751     0.276445025023
    H           -1.407304312486     0.266298340999     0.503272643983
    H           -0.859013099027     0.383240336128    -1.146906273634
    C            0.968608816487     1.686551560601     0.457396610314
    H            0.904813430268    -0.332095893157     1.211463632457
    H            1.445712177482    -0.206011739083    -0.436692370067
    C            2.395478892289     2.062641971337     0.860679184203
    H            0.274015348106     2.076135069723     1.198385380942
    H            0.730788289350     2.191746971720    -0.474852174651
    C            2.813803671730     1.583353960268     2.248614261533
    H            2.488127628422     3.143731076904     0.824102432858
    H            3.090635438978     1.674679835123     0.120821298899
    H            2.131630155312     1.950002690847     3.009087153689
    H            3.806150127633     1.942660797596     2.495986874346
    H            2.833969857648     0.502361779365     2.315983036391

  Mulliken Charges: (a.u.)
   Center  Symbol    Alpha    Beta     Spin     Total
       1     H     0.39271  0.39271  0.00000  0.21459
       2     O     4.20555  4.20555  0.00000 -0.41111
       3     C     2.97925  2.97925  0.00000  0.04149
       4     C     3.08969  3.08969  0.00000 -0.17938
       5     H     0.44849  0.44849  0.00000  0.10302
       6     H     0.47022  0.47022  0.00000  0.05955
       7     C     3.09874  3.09874  0.00000 -0.19748
       8     H     0.45631  0.45631  0.00000  0.08737
       9     H     0.45031  0.45031  0.00000  0.09937
      10     C     3.09160  3.09160  0.00000 -0.18320
      11     H     0.45349  0.45349  0.00000  0.09302
      12     H     0.45908  0.45908  0.00000  0.08184
      13     C     3.09470  3.09470  0.00000 -0.18940
      14     H     0.45203  0.45203  0.00000  0.09595
      15     H     0.45270  0.45270  0.00000  0.09460
      16     C     3.09045  3.09045  0.00000 -0.18090
      17     H     0.45438  0.45438  0.00000  0.09124
      18     H     0.45004  0.45004  0.00000  0.09992
      19     C     3.15258  3.15258  0.00000 -0.30516
      20     H     0.44842  0.44842  0.00000  0.10315
      21     H     0.45434  0.45434  0.00000  0.09132
      22     H     0.45505  0.45505  0.00000  0.08990
      23     H     0.44616  0.44616  0.00000  0.10768
      24     H     0.45368  0.45368  0.00000  0.09264

   Total alpha = 33.00000, Total beta = 33.00000, Total charge =  0.00000

*** Psi4 exiting successfully. Buy a developer a beer!
