  ==> Input File <==

--------------------------------------------------------------------------
set {
	reference rhf
	basis 6-31G*
}

set_num_threads( 4 )
memory 2 gb

molecule MOL {
0 1

O	 3.249501	 1.087916	 -0.274155
C	 2.701189	 0.057885	 -0.047330
C	 1.212038	 -0.180139	 -0.114886
O	 3.347903	 -1.046386	 0.304773
C	 0.424359	 1.060898	 -0.529020
H	 1.052848	 -1.009199	 -0.796435
H	 0.896950	 -0.535130	 0.863070
C	 -1.095313	 0.865214	 -0.500780
H	 0.737120	 1.369305	 -1.522088
H	 0.689864	 1.876387	 0.134988
C	 -1.636905	 -0.131407	 -1.529631
H	 -1.562625	 1.831808	 -0.674099
H	 -1.402636	 0.556602	 0.497379
C	 -3.164958	 -0.208965	 -1.535673
H	 -1.287458	 0.152636	 -2.521108
H	 -1.235802	 -1.123883	 -1.337070
C	 -3.717242	 -1.205634	 -2.556341
H	 -3.574487	 0.778613	 -1.741124
H	 -3.515568	 -0.482494	 -0.541714
C	 -5.244000	 -1.274236	 -2.558650
H	 -3.367024	 -0.934360	 -3.550021
H	 -3.312426	 -2.194225	 -2.349961
H	 -5.604952	 -1.988802	 -3.291941
H	 -5.679470	 -0.307813	 -2.796530
H	 -5.624367	 -1.576790	 -1.587024
C	 4.728119	 -1.109107	 -0.004993
H	 4.882018	 -1.033965	 -1.071845
H	 5.068212	 -2.067527	 0.355250
H	 5.265056	 -0.311663	 0.488280

	symmetry c1
}
set optking {
	frozen_dihedral = ("
		1 2 4 26
	")
}

ee = optimize('scf')
oeprop('DIPOLE', 'QUADRUPOLE', 'MULLIKEN_CHARGES')
f=open( 'psi4out.xyz', 'w' )
f.write( "29  " )
f.write( str(ee) + "\n" )
f.write( MOL.save_string_xyz() )
f.close()
--------------------------------------------------------------------------

    Molecular point group: c1
  Charge       = 0
  Multiplicity = 1
  Basis Set: 6-31G*
  Basis Set:
  @DF-RHF Final Energy:  -501.04158929185928
    Total Energy =                       -501.0415892918593954
    Molecular point group: c1
  Basis Set: 6-31G*
  Basis Set:
  Basis Set: 6-31G*
  Basis Set:
  @DF-RHF Final Energy:  -501.03817066003569
    Total Energy =                       -501.0381706600356893
  Basis Set: 6-31G*
  Basis Set:
  Basis Set: 6-31G*
  Basis Set:
  @DF-RHF Final Energy:  -501.04182188470804
    Total Energy =                       -501.0418218847084972
  Basis Set: 6-31G*
  Basis Set:
  Basis Set: 6-31G*
  Basis Set:
  @DF-RHF Final Energy:  -501.04187498020201
    Total Energy =                       -501.0418749802018965
  Basis Set: 6-31G*
  Basis Set:
  Basis Set: 6-31G*
  Basis Set:
  @DF-RHF Final Energy:  -501.04188011538383
    Total Energy =                       -501.0418801153832646
  Basis Set: 6-31G*
  Basis Set:
  Basis Set: 6-31G*
  Basis Set:
  @DF-RHF Final Energy:  -501.04188231032401
    Total Energy =                       -501.0418823103245813
  Basis Set: 6-31G*
  Basis Set:
  Basis Set: 6-31G*
  Basis Set:
  @DF-RHF Final Energy:  -501.04188859685200
    Total Energy =                       -501.0418885968524592
  Basis Set: 6-31G*
  Basis Set:
  Charge       = 0
  Multiplicity = 1
  Basis Set: 6-31G*
  Basis Set:

    Orbital Energies (a.u.)
    -----------------------

    Doubly Occupied:

       1A    -20.601335     2A    -20.546183     3A    -11.372276
       4A    -11.281685     5A    -11.234861     6A    -11.219210
       7A    -11.217734     8A    -11.216217     9A    -11.216056
      10A    -11.214623    11A    -11.209216    12A     -1.467606
      13A     -1.362824    14A     -1.098171    15A     -1.066831
      16A     -1.019202    17A     -0.977060    18A     -0.929178
      19A     -0.862064    20A     -0.799521    21A     -0.790691
      22A     -0.763513    23A     -0.700404    24A     -0.681336
      25A     -0.671877    26A     -0.651296    27A     -0.628676
      28A     -0.605103    29A     -0.595630    30A     -0.581580
      31A     -0.568345    32A     -0.547071    33A     -0.534514
      34A     -0.530882    35A     -0.513436    36A     -0.512705
      37A     -0.497582    38A     -0.477939    39A     -0.470176
      40A     -0.462467    41A     -0.459881    42A     -0.454176
      43A     -0.441401    44A     -0.434773

  @DF-RHF Final Energy:  -501.04188877820241

   => Energetics <=

    Nuclear Repulsion Energy =            610.1856818244306169
    One-Electron Energy =               -1891.4805239234515284
    Two-Electron Energy =                 780.2529533208180510
    DFT Exchange-Correlation Energy =       0.0000000000000000
    Empirical Dispersion Energy =           0.0000000000000000
    PCM Polarization Energy =               0.0000000000000000
    EFP Energy =                            0.0000000000000000
    Total Energy =                       -501.0418887782029742
    Molecular point group: c1
  Basis Set: 6-31G*
  Basis Set:

  -Total Gradient:
     Atom            X                  Y                   Z
    ------   -----------------  -----------------  -----------------
       1       -0.000783541306     0.002164021232     0.006086720507
       2        0.000679054660    -0.004422669768    -0.011180762164
       3       -0.000002666686     0.000006513289    -0.000006736473
       4        0.001053969896     0.004776075146     0.009467604081
       5       -0.000000300123    -0.000011136944     0.000001954175
       6       -0.000000272066    -0.000003298603     0.000000510576
       7       -0.000002044549    -0.000000987133     0.000000118968
       8       -0.000000228427     0.000000603423     0.000004307896
       9        0.000001505432    -0.000000664462    -0.000001057691
      10        0.000001916766     0.000003752943     0.000001254580
      11       -0.000001211047     0.000004010129    -0.000005698066
      12        0.000002423842    -0.000000693325     0.000000172610
      13       -0.000003153383     0.000000305145    -0.000000431440
      14        0.000000317272    -0.000004883615     0.000002376866
      15       -0.000000093102    -0.000001075568    -0.000002684786
      16       -0.000001335557     0.000002523434     0.000002150687
      17       -0.000000044200    -0.000001188615     0.000001091664
      18        0.000000004131    -0.000000974403     0.000002025967
      19        0.000001304584    -0.000001916377     0.000000978244
      20       -0.000000232846     0.000003357776    -0.000003006979
      21        0.000001579845    -0.000001627917    -0.000000256895
      22       -0.000001530233    -0.000000125082     0.000001751723
      23       -0.000000015010     0.000000956601    -0.000000885982
      24       -0.000001246929     0.000000443939     0.000000676604
      25        0.000001268172    -0.000000534912    -0.000000566560
      26       -0.000950182508    -0.002525497847    -0.004372646871
      27       -0.000005860547     0.000004811018    -0.000005362766
      28       -0.000001910292     0.000008786246     0.000002288236
      29        0.000012524186     0.000001114251     0.000004113287

  **** Optimization is complete! (in 8 steps) ****
    Final optimized geometry and variables:
    Molecular point group: c1

    Geometry (in Angstrom), charge = 0, multiplicity = 1:

    O            3.142408609750     1.259854021798     0.428950217740
    C            2.596893726744     0.247706493958     0.728086135147
    C            1.107492285825     0.007891881840     0.689258328201
    O            3.243940747989    -0.814210578534     1.199572688275
    C            0.307386823903     1.253265095349     0.314058656746
    H            0.938596110978    -0.807010147862    -0.008063088572
    H            0.813161135061    -0.371011413284     1.664137197705
    C           -1.210746502542     1.049492266500     0.361941668340
    H            0.603592179923     1.584972501672    -0.676288093816
    H            0.578922365230     2.055638263908     0.991967361587
    C           -1.763921787296     0.073916224563    -0.680856513230
    H           -1.685120216531     2.017444271001     0.217912695939
    H           -1.500961796283     0.716788303073     1.357433180239
    C           -3.291532880534    -0.010815374356    -0.664906956370
    H           -1.431289541221     0.382054029205    -1.670923108569
    H           -1.355597998270    -0.920811495658    -0.517125347155
    C           -3.855325530486    -0.986683720595    -1.699282541386
    H           -3.708547627972     0.979200930219    -0.841456144345
    H           -3.625300339625    -0.308465715287     0.327901095399
    C           -5.381641476139    -1.062108940728    -1.679752027635
    H           -3.521614818263    -0.691488442024    -2.691829752177
    H           -3.443279609588    -1.977856831703    -1.521529913232
    H           -5.750870173705    -1.761587456698    -2.423400187861
    H           -5.824738886304    -0.092545867772    -1.889019802361
    H           -5.745705525498    -1.388194552612    -0.709501651725
    C            4.634784497624    -0.886269372338     0.942940193507
    H            4.826440562726    -0.809780015766    -0.118513336067
    H            4.954320428057    -1.849269937948     1.309690679552
    H            5.162485641606    -0.096714945053     1.457603603119

  Mulliken Charges: (a.u.)
   Center  Symbol    Alpha    Beta     Spin     Total
       1     O     4.28303  4.28303  0.00000 -0.56607
       2     C     2.60479  2.60479  0.00000  0.79042
       3     C     3.21040  3.21040  0.00000 -0.42080
       4     O     4.30849  4.30849  0.00000 -0.61698
       5     C     3.15390  3.15390  0.00000 -0.30781
       6     H     0.40027  0.40027  0.00000  0.19946
       7     H     0.40014  0.40014  0.00000  0.19973
       8     C     3.15655  3.15655  0.00000 -0.31310
       9     H     0.41223  0.41223  0.00000  0.17553
      10     H     0.40967  0.40967  0.00000  0.18067
      11     C     3.15507  3.15507  0.00000 -0.31015
      12     H     0.41821  0.41821  0.00000  0.16359
      13     H     0.42368  0.42368  0.00000  0.15265
      14     C     3.15030  3.15030  0.00000 -0.30059
      15     H     0.42263  0.42263  0.00000  0.15474
      16     H     0.42382  0.42382  0.00000  0.15235
      17     C     3.15146  3.15146  0.00000 -0.30291
      18     H     0.42327  0.42327  0.00000  0.15346
      19     H     0.42389  0.42389  0.00000  0.15222
      20     C     3.23935  3.23935  0.00000 -0.47871
      21     H     0.42283  0.42283  0.00000  0.15433
      22     H     0.42351  0.42351  0.00000  0.15298
      23     H     0.41924  0.41924  0.00000  0.16152
      24     H     0.42151  0.42151  0.00000  0.15698
      25     H     0.42179  0.42179  0.00000  0.15642
      26     C     3.09267  3.09267  0.00000 -0.18535
      27     H     0.41283  0.41283  0.00000  0.17435
      28     H     0.40809  0.40809  0.00000  0.18382
      29     H     0.40638  0.40638  0.00000  0.18725

   Total alpha = 44.00000, Total beta = 44.00000, Total charge = -0.00000
