                              Psi4 1.0.54 Driver

  ==> Input File <==

--------------------------------------------------------------------------
set {
	reference rhf
	basis cc-pvtz
}

set_num_threads( 4 )
memory 2 gb

molecule MOL {
0 1

H	 1.920852	 -0.280626	 2.337555
O	 1.234309	 0.264696	 2.000899
C	 1.135873	 0.113391	 0.608264
C	 0.027642	 1.012027	 0.090274
H	 0.903507	 -0.918029	 0.355391
H	 2.081265	 0.358897	 0.132424
C	 -1.138737	 0.285728	 -0.581921
H	 0.464661	 1.708096	 -0.618252
H	 -0.340737	 1.603071	 0.925246
C	 -1.933983	 -0.631436	 0.343653
H	 -0.763151	 -0.285569	 -1.422081
H	 -1.808359	 1.035291	 -0.992333
H	 -2.789188	 -1.049673	 -0.174718
H	 -1.335629	 -1.461368	 0.700418
H	 -2.305435	 -0.092167	 1.209725

	symmetry c1
}
set optking {
	frozen_dihedral = ("
		2 3 4 8
	")
}

ee,wfn = optimize('scf', return_wfn=True)
oeprop( wfn, 'DIPOLE', 'QUADRUPOLE', 'MULLIKEN_CHARGES')
f=open( 'psi4out.xyz', 'w' )
f.write( "15  " )
f.write( str(ee) + "\n" )
f.write( MOL.save_string_xyz() )
f.close()
--------------------------------------------------------------------------

    Molecular point group: c1
  Charge       = 0
  Multiplicity = 1
  Basis Set: CC-PVTZ
  Basis Set:
  @DF-RHF Final Energy:  -232.23167152056988
    Total Energy =                       -232.2316715205698756
    Molecular point group: c1
  Basis Set: CC-PVTZ
  Basis Set:
  Basis Set: CC-PVTZ
  Basis Set:
  @DF-RHF Final Energy:  -232.23204264208510
    Total Energy =                       -232.2320426420850481
  Basis Set: CC-PVTZ
  Basis Set:
  Basis Set: CC-PVTZ
  Basis Set:
  @DF-RHF Final Energy:  -232.23230682538548
    Total Energy =                       -232.2323068253852512
  Basis Set: CC-PVTZ
  Basis Set:
  Basis Set: CC-PVTZ
  Basis Set:
  @DF-RHF Final Energy:  -232.23229652708710
    Total Energy =                       -232.2322965270869872
  Basis Set: CC-PVTZ
  Basis Set:
  Basis Set: CC-PVTZ
  Basis Set:
  @DF-RHF Final Energy:  -232.23231191263122
    Total Energy =                       -232.2323119126313031
  Basis Set: CC-PVTZ
  Basis Set:
  Basis Set: CC-PVTZ
  Basis Set:
  @DF-RHF Final Energy:  -232.23231318258706
    Total Energy =                       -232.2323131825869496
  Basis Set: CC-PVTZ
  Basis Set:
  Charge       = 0
  Multiplicity = 1
  Basis Set: CC-PVTZ
  Basis Set:

    Orbital Energies (a.u.)
    -----------------------

    Doubly Occupied:

       1A    -20.545641     2A    -11.265740     3A    -11.213964
       4A    -11.209599     5A    -11.203538     6A     -1.362658
       7A     -1.067400     8A     -0.968877     9A     -0.867808
      10A     -0.784773    11A     -0.701636    12A     -0.649640
      13A     -0.614763    14A     -0.575211    15A     -0.556229
      16A     -0.542931    17A     -0.503345    18A     -0.478424
      19A     -0.470565    20A     -0.456839    21A     -0.430441

  @DF-RHF Final Energy:  -232.23231320213500

   => Energetics <=

    Nuclear Repulsion Energy =            190.2494063378794067
    One-Electron Energy =                -692.0233954371874461
    Two-Electron Energy =                 269.5416758971731497
    DFT Exchange-Correlation Energy =       0.0000000000000000
    Empirical Dispersion Energy =           0.0000000000000000
    PCM Polarization Energy =               0.0000000000000000
    EFP Energy =                            0.0000000000000000
    Total Energy =                       -232.2323132021348897
    Molecular point group: c1
  Basis Set: CC-PVTZ
  Basis Set:

  -Total Gradient:
     Atom            X                  Y                   Z
    ------   -----------------  -----------------  -----------------
       1       -0.000000502658     0.000000356307    -0.000005998934
       2        0.000680218465     0.000820307988    -0.000087990411
       3       -0.000842106726    -0.000859836407     0.000372226088
       4       -0.000034563078    -0.000819008650    -0.001348378142
       5        0.000000039080    -0.000004943806    -0.000001066208
       6        0.000000802752     0.000001954962    -0.000000814875
       7       -0.000005960293     0.000001810836     0.000006528739
       8        0.000204552809     0.000862924669     0.001069186617
       9       -0.000001434117    -0.000001486259     0.000000645934
      10        0.000002884753     0.000001170307    -0.000010572281
      11       -0.000001920747    -0.000002890329     0.000003530321
      12       -0.000001480526     0.000002347145    -0.000000618998
      13       -0.000000292837    -0.000002835468    -0.000001890457
      14        0.000003426722    -0.000005847267     0.000002423045
      15       -0.000003663599     0.000005975973     0.000002789560

  **** Optimization is complete! (in 7 steps) ****
    Final optimized geometry and variables:
    Molecular point group: c1

    Geometry (in Angstrom), charge = 0, multiplicity = 1:

    H            2.017826817773    -0.517204780643     1.783403398525
    O            1.322550470553     0.027430510496     1.462787329961
    C            1.247952519989    -0.064994213571     0.061783344759
    C            0.112348852886     0.833627905202    -0.441435610592
    H            1.077874738326    -1.095585795959    -0.236994512598
    H            2.191710996788     0.244635127366    -0.377686567353
    C           -1.031294537559     0.090313977232    -1.132059103135
    H            0.515328481100     1.581027747794    -1.115605771202
    H           -0.272588748201     1.375378768926     0.414671767313
    C           -1.843288278065    -0.797292285433    -0.192724682527
    H           -0.633753807148    -0.508520726550    -1.947725690966
    H           -1.693727521063     0.818663427509    -1.589136962003
    H           -2.628515040049    -1.315827282440    -0.731095020995
    H           -1.225141621316    -1.545226158172     0.290186984612
    H           -2.308560297391    -0.206802523163     0.588913997042

  Mulliken Charges: (a.u.)
   Center  Symbol    Alpha    Beta     Spin     Total
       1     H     0.39524  0.39524  0.00000  0.20952
       2     O     4.19993  4.19993  0.00000 -0.39985
       3     C     2.97288  2.97288  0.00000  0.05424
       4     C     3.09603  3.09603  0.00000 -0.19206
       5     H     0.47276  0.47276  0.00000  0.05447
       6     H     0.46560  0.46560  0.00000  0.06881
       7     C     3.09578  3.09578  0.00000 -0.19156
       8     H     0.44724  0.44724  0.00000  0.10553
       9     H     0.44684  0.44684  0.00000  0.10632
      10     C     3.14259  3.14259  0.00000 -0.28518
      11     H     0.45682  0.45682  0.00000  0.08636
      12     H     0.44968  0.44968  0.00000  0.10065
      13     H     0.45024  0.45024  0.00000  0.09953
      14     H     0.45485  0.45485  0.00000  0.09031
      15     H     0.45354  0.45354  0.00000  0.09293

   Total alpha = 21.00000, Total beta = 21.00000, Total charge = -0.00000

*** Psi4 exiting successfully. Buy a developer a beer!
