                              Psi4 1.0.54 Driver

  ==> Input File <==

--------------------------------------------------------------------------
set {
	reference rhf
	basis cc-pvtz
}

set_num_threads( 4 )
memory 2 gb

molecule MOL {
0 1

H	 3.273419	 0.176595	 -0.102789
N	 2.433987	 -0.362316	 -0.080024
C	 1.263552	 0.494993	 0.021953
H	 2.497638	 -0.973615	 0.707122
C	 -0.016533	 -0.325589	 -0.026925
H	 1.280915	 1.180773	 -0.818522
H	 1.263064	 1.106893	 0.925038
C	 -1.280353	 0.525521	 0.047747
H	 -0.016686	 -0.912532	 -0.939714
H	 -0.014099	 -1.037598	 0.796369
C	 -1.576667	 1.031456	 1.455660
H	 -2.126091	 -0.055809	 -0.309673
H	 -1.187533	 1.373092	 -0.625961
H	 -1.708469	 0.206473	 2.147585
H	 -2.481049	 1.628625	 1.476500
H	 -0.765093	 1.647295	 1.828850

	symmetry c1
}
set optking {
	frozen_dihedral = ("
		12 8 5 9
	")
}

ee,wfn = optimize('scf', return_wfn=True)
oeprop( wfn, 'DIPOLE', 'QUADRUPOLE', 'MULLIKEN_CHARGES')
f=open( 'psi4out.xyz', 'w' )
f.write( "16  " )
f.write( str(ee) + "\n" )
f.write( MOL.save_string_xyz() )
f.close()
--------------------------------------------------------------------------

    Molecular point group: c1
  Charge       = 0
  Multiplicity = 1
  Basis Set: CC-PVTZ
  Basis Set:
  @DF-RHF Final Energy:  -212.39788283302380
    Total Energy =                       -212.3978828330235729
    Molecular point group: c1
  Basis Set: CC-PVTZ
  Basis Set:
  Basis Set: CC-PVTZ
  Basis Set:
  @DF-RHF Final Energy:  -212.39813207764732
    Total Energy =                       -212.3981320776473467
  Basis Set: CC-PVTZ
  Basis Set:
  Basis Set: CC-PVTZ
  Basis Set:
  @DF-RHF Final Energy:  -212.39817055827851
    Total Energy =                       -212.3981705582787072
  Basis Set: CC-PVTZ
  Basis Set:
  Basis Set: CC-PVTZ
  Basis Set:
  @DF-RHF Final Energy:  -212.39817161274928
    Total Energy =                       -212.3981716127491381
  Basis Set: CC-PVTZ
  Basis Set:
  Charge       = 0
  Multiplicity = 1
  Basis Set: CC-PVTZ
  Basis Set:

    Orbital Energies (a.u.)
    -----------------------

    Doubly Occupied:

       1A    -15.526431     2A    -11.237784     3A    -11.213367
       4A    -11.208141     5A    -11.206665     6A     -1.178137
       7A     -1.059658     8A     -0.957153     9A     -0.856130
      10A     -0.783935    11A     -0.658321    12A     -0.637459
      13A     -0.619012    14A     -0.570576    15A     -0.563891
      16A     -0.533983    17A     -0.500731    18A     -0.467239
      19A     -0.465487    20A     -0.461810    21A     -0.383354

  @DF-RHF Final Energy:  -212.39817169674581

   => Energetics <=

    Nuclear Repulsion Energy =            188.5444047912308747
    One-Electron Energy =                -659.7066244277456235
    Two-Electron Energy =                 258.7640479397688864
    DFT Exchange-Correlation Energy =       0.0000000000000000
    Empirical Dispersion Energy =           0.0000000000000000
    PCM Polarization Energy =               0.0000000000000000
    EFP Energy =                            0.0000000000000000
    Total Energy =                       -212.3981716967458624
    Molecular point group: c1
  Basis Set: CC-PVTZ
  Basis Set:

  -Total Gradient:
     Atom            X                  Y                   Z
    ------   -----------------  -----------------  -----------------
       1        0.000003454967    -0.000003875357    -0.000002135087
       2        0.000001909484     0.000012142945     0.000004405132
       3       -0.000001331364    -0.000012976460    -0.000003556498
       4       -0.000001659100     0.000002862261    -0.000000668459
       5        0.000768304630     0.001295394777    -0.001041346781
       6        0.000003315742     0.000002607858     0.000001526440
       7       -0.000002685996    -0.000002192946     0.000001087017
       8       -0.000382802615    -0.000767017432     0.001616915977
       9       -0.000582819753    -0.000970503480     0.000614185065
      10        0.000001645359     0.000001057340     0.000000174428
      11       -0.000005506584     0.000009960382     0.000002671270
      12        0.000197095831     0.000428425879    -0.001189911876
      13       -0.000000442204     0.000003733326    -0.000000368361
      14        0.000001716617     0.000001805014    -0.000004487234
      15       -0.000003621957     0.000003710251     0.000003791341
      16        0.000003426940    -0.000005134359    -0.000002282372

  **** Optimization is complete! (in 5 steps) ****
    Final optimized geometry and variables:
    Molecular point group: c1

    Geometry (in Angstrom), charge = 0, multiplicity = 1:

    H            3.085353997646    -0.119974995978    -0.417515756888
    N            2.239832971958    -0.649267072887    -0.390791059234
    C            1.079902731208     0.222453206201    -0.281561682613
    H            2.300708611609    -1.260550692979     0.396655682653
    C           -0.206921716908    -0.590026415150    -0.326347931362
    H            1.096723804239     0.903752662016    -1.125749202250
    H            1.100101299960     0.836828152371     0.617575218738
    C           -1.485554917148     0.246806738043    -0.239851134842
    H           -0.209868136688    -1.170162421521    -1.242153331474
    H           -0.198833437616    -1.314252283975     0.486550283090
    C           -1.811766466806     0.768340025605     1.157518479056
    H           -2.317248036765    -0.352100114966    -0.596189508459
    H           -1.411222026791     1.084651220425    -0.928739967989
    H           -1.929245130583    -0.050914340961     1.859276582723
    H           -2.736962561224     1.333355579953     1.153150086028
    H           -1.034326786291     1.419963988117     1.538695545160

  Mulliken Charges: (a.u.)
   Center  Symbol    Alpha    Beta     Spin     Total
       1     H     0.43008  0.43008  0.00000  0.13984
       2     N     3.69021  3.69021  0.00000 -0.38042
       3     C     3.02561  3.02561  0.00000 -0.05121
       4     H     0.43046  0.43046  0.00000  0.13908
       5     C     3.08776  3.08776  0.00000 -0.17551
       6     H     0.45710  0.45710  0.00000  0.08580
       7     H     0.46654  0.46654  0.00000  0.06693
       8     C     3.09519  3.09519  0.00000 -0.19039
       9     H     0.44393  0.44393  0.00000  0.11213
      10     H     0.46138  0.46138  0.00000  0.07725
      11     C     3.14925  3.14925  0.00000 -0.29850
      12     H     0.44771  0.44771  0.00000  0.10457
      13     H     0.45593  0.45593  0.00000  0.08814
      14     H     0.45543  0.45543  0.00000  0.08914
      15     H     0.44754  0.44754  0.00000  0.10493
      16     H     0.45589  0.45589  0.00000  0.08822

   Total alpha = 21.00000, Total beta = 21.00000, Total charge = -0.00000

*** Psi4 exiting successfully. Buy a developer a beer!
