  ==> Input File <==

--------------------------------------------------------------------------
set {
	reference rhf
	basis cc-pvtz
}

set_num_threads( 4 )
memory 2 gb

molecule MOL {
0 1

O	 -0.805971	 -1.109630	 1.082993
C	 -0.560896	 -0.075209	 0.531060
C	 -1.596250	 1.030187	 0.499846
N	 0.622280	 0.144970	 -0.099307
H	 -1.862446	 1.292843	 -0.516272
H	 -2.470254	 0.667655	 1.014801
H	 -1.235029	 1.923214	 0.994818
C	 1.664396	 -0.854993	 0.000772
C	 1.050102	 1.435738	 -0.583705
H	 2.462727	 -0.615153	 -0.690869
H	 1.261798	 -1.821849	 -0.240651
H	 2.081615	 -0.891605	 1.003877
H	 1.660452	 1.299741	 -1.467229
H	 0.213817	 2.055492	 -0.858346
H	 1.645994	 1.968975	 0.153598

	symmetry c1
}
set optking {
	frozen_dihedral = ("
		2 4 8 10
	")
}

ee = optimize('scf')
oeprop('DIPOLE', 'QUADRUPOLE', 'MULLIKEN_CHARGES')
f=open( 'psi4out.xyz', 'w' )
f.write( "15  " )
f.write( str(ee) + "\n" )
f.write( MOL.save_string_xyz() )
f.close()
--------------------------------------------------------------------------

    Molecular point group: c1
  Charge       = 0
  Multiplicity = 1
  Basis Set: CC-PVTZ
  Basis Set:
  @DF-RHF Final Energy:  -286.13475577651616
    Total Energy =                       -286.1347557765159877
    Molecular point group: c1
  Basis Set: CC-PVTZ
  Basis Set:
  Basis Set: CC-PVTZ
  Basis Set:
  @DF-RHF Final Energy:  -286.13514170276210
    Total Energy =                       -286.1351417027620982
  Basis Set: CC-PVTZ
  Basis Set:
  Basis Set: CC-PVTZ
  Basis Set:
  @DF-RHF Final Energy:  -286.13516156380820
    Total Energy =                       -286.1351615638078556
  Basis Set: CC-PVTZ
  Basis Set:
  Basis Set: CC-PVTZ
  Basis Set:
  @DF-RHF Final Energy:  -286.13522860076125
    Total Energy =                       -286.1352286007607972
  Basis Set: CC-PVTZ
  Basis Set:
  Basis Set: CC-PVTZ
  Basis Set:
  @DF-RHF Final Energy:  -286.13524684069142
    Total Energy =                       -286.1352468406914795
  Basis Set: CC-PVTZ
  Basis Set:
  Basis Set: CC-PVTZ
  Basis Set:
  @DF-RHF Final Energy:  -286.13525073133417
    Total Energy =                       -286.1352507313339402
  Basis Set: CC-PVTZ
  Basis Set:
  Basis Set: CC-PVTZ
  Basis Set:
  @DF-RHF Final Energy:  -286.13525255713159
    Total Energy =                       -286.1352525571320484
  Basis Set: CC-PVTZ
  Basis Set:
  Charge       = 0
  Multiplicity = 1
  Basis Set: CC-PVTZ
  Basis Set:

    Orbital Energies (a.u.)
    -----------------------

    Doubly Occupied:

       1A    -20.504766     2A    -15.577467     3A    -11.333468
       4A    -11.264226     5A    -11.246962     6A    -11.226598
       7A     -1.388270     8A     -1.244714     9A     -1.014707
      10A     -0.973535    11A     -0.919521    12A     -0.738390
      13A     -0.682197    14A     -0.660537    15A     -0.653729
      16A     -0.589057    17A     -0.577829    18A     -0.570080
      19A     -0.564293    20A     -0.547116    21A     -0.531041
      22A     -0.503286    23A     -0.414740    24A     -0.371130

  @DF-RHF Final Energy:  -286.13525280038505

   => Energetics <=

    Nuclear Repulsion Energy =            253.1133053582254036
    One-Electron Energy =                -890.3017971449490915
    Two-Electron Energy =                 351.0532389863384992
    DFT Exchange-Correlation Energy =       0.0000000000000000
    Empirical Dispersion Energy =           0.0000000000000000
    PCM Polarization Energy =               0.0000000000000000
    EFP Energy =                            0.0000000000000000
    Total Energy =                       -286.1352528003852171
    Molecular point group: c1
  Basis Set: CC-PVTZ
  Basis Set:

  -Total Gradient:
     Atom            X                  Y                   Z
    ------   -----------------  -----------------  -----------------
       1        0.000015589078    -0.000016628313    -0.000005907839
       2        0.000278201894     0.000375595072     0.000579498924
       3        0.000004467173     0.000004328530     0.000007454107
       4       -0.000318627218    -0.000364381450    -0.000689017680
       5        0.000009536427     0.000002084485    -0.000004482191
       6        0.000002266797     0.000002015105    -0.000002490985
       7       -0.000007582183     0.000006891714     0.000002135438
       8       -0.000381501905    -0.000470718194    -0.000496468681
       9       -0.000011590338    -0.000032112953    -0.000004339657
      10        0.000414964775     0.000498956341     0.000612219327
      11        0.000001945758    -0.000003098872     0.000000653111
      12       -0.000000691783    -0.000001885177    -0.000002766511
      13       -0.000003856320    -0.000003287981    -0.000005699140
      14       -0.000008486530     0.000006337232     0.000005333929
      15        0.000005364376    -0.000004095542     0.000003877849

  **** Optimization is complete! (in 8 steps) ****
    Final optimized geometry and variables:
    Molecular point group: c1

    Geometry (in Angstrom), charge = 0, multiplicity = 1:

    O           -0.838341435683    -1.198517370523     0.864226328209
    C           -0.628277127782    -0.168920432091     0.289421383408
    C           -1.681507781259     0.918352375487     0.259925224972
    N            0.539912063943     0.046219285192    -0.369150897132
    H           -1.936980040714     1.196520535085    -0.754595973082
    H           -2.556558976276     0.534350428048     0.757530223755
    H           -1.340428544370     1.806883134589     0.777348832013
    C            1.568761397620    -0.966310733078    -0.226705926251
    C            0.978120385343     1.346418028683    -0.820680368131
    H            2.361087119667    -0.759684256064    -0.932241118388
    H            1.160620879997    -1.944152047179    -0.422802298995
    H            1.991205911819    -0.972513779793     0.773203440140
    H            1.562342579602     1.235867097357    -1.724601325610
    H            0.141886914704     1.984371349546    -1.050278570458
    H            1.597111919490     1.848280803327    -0.080277106114

  Mulliken Charges: (a.u.)
   Center  Symbol    Alpha    Beta     Spin     Total
       1     O     4.21903  4.21903  0.00000 -0.43807
       2     C     2.84503  2.84503  0.00000  0.30993
       3     C     3.16027  3.16027  0.00000 -0.32053
       4     N     3.56434  3.56434  0.00000 -0.12868
       5     H     0.44884  0.44884  0.00000  0.10232
       6     H     0.42882  0.42882  0.00000  0.14237
       7     H     0.44901  0.44901  0.00000  0.10198
       8     C     3.09167  3.09167  0.00000 -0.18334
       9     C     3.09681  3.09681  0.00000 -0.19362
      10     H     0.45784  0.45784  0.00000  0.08433
      11     H     0.43520  0.43520  0.00000  0.12959
      12     H     0.45350  0.45350  0.00000  0.09300
      13     H     0.44844  0.44844  0.00000  0.10312
      14     H     0.44566  0.44566  0.00000  0.10868
      15     H     0.45554  0.45554  0.00000  0.08892

   Total alpha = 24.00000, Total beta = 24.00000, Total charge =  0.00000
