                              Psi4 1.0.54 Driver

  ==> Input File <==

--------------------------------------------------------------------------
set {
	reference rhf
	basis cc-pvtz
}

set_num_threads( 4 )
memory 2 gb

molecule MOL {
0 1

H	 -3.162190	 0.493205	 -0.000107
C	 -2.363908	 -0.234727	 0.000005
O	 -1.158738	 0.454634	 -0.000087
H	 -2.464314	 -0.863616	 -0.882153
H	 -2.464327	 -0.863359	 0.882345
C	 -0.028611	 -0.359694	 0.000037
C	 0.246393	 -0.832149	 -1.413311
H	 -0.183931	 -1.214673	 0.658462
H	 0.829372	 0.191550	 0.385571
C	 1.473585	 -1.732822	 -1.497798
H	 -0.628887	 -1.358188	 -1.778132
H	 0.376411	 0.036851	 -2.048830
H	 1.354414	 -2.621732	 -0.887286
H	 1.646513	 -2.055420	 -2.517134
H	 2.366467	 -1.217285	 -1.160082

	symmetry c1
}
set optking {
	frozen_dihedral = ("
		8 6 3 2
	")
}

ee,wfn = optimize('scf', return_wfn=True)
oeprop( wfn, 'DIPOLE', 'QUADRUPOLE', 'MULLIKEN_CHARGES')
f=open( 'psi4out.xyz', 'w' )
f.write( "15  " )
f.write( str(ee) + "\n" )
f.write( MOL.save_string_xyz() )
f.close()
--------------------------------------------------------------------------

    Molecular point group: c1
  Charge       = 0
  Multiplicity = 1
  Basis Set: CC-PVTZ
  Basis Set:
  @DF-RHF Final Energy:  -232.22331807133352
    Total Energy =                       -232.2233180713336651
    Molecular point group: c1
  Basis Set: CC-PVTZ
  Basis Set:
  Basis Set: CC-PVTZ
  Basis Set:
  @DF-RHF Final Energy:  -232.14628649843365
    Total Energy =                       -232.1462864984336534
  Basis Set: CC-PVTZ
  Basis Set:
  Basis Set: CC-PVTZ
  Basis Set:
  @DF-RHF Final Energy:  -232.20054369672854
    Total Energy =                       -232.2005436967285732
  Basis Set: CC-PVTZ
  Basis Set:
  Basis Set: CC-PVTZ
  Basis Set:
  @DF-RHF Final Energy:  -232.22458393776898
    Total Energy =                       -232.2245839377690118
  Basis Set: CC-PVTZ
  Basis Set:
  Basis Set: CC-PVTZ
  Basis Set:
  @DF-RHF Final Energy:  -232.22523545362526
    Total Energy =                       -232.2252354536251460
  Basis Set: CC-PVTZ
  Basis Set:
  Basis Set: CC-PVTZ
  Basis Set:
  @DF-RHF Final Energy:  -232.22531354891811
    Total Energy =                       -232.2253135489181659
  Basis Set: CC-PVTZ
  Basis Set:
  Basis Set: CC-PVTZ
  Basis Set:
  @DF-RHF Final Energy:  -232.22531777191475
    Total Energy =                       -232.2253177719147743
  Basis Set: CC-PVTZ
  Basis Set:
  Charge       = 0
  Multiplicity = 1
  Basis Set: CC-PVTZ
  Basis Set:

    Orbital Energies (a.u.)
    -----------------------

    Doubly Occupied:

       1A    -20.545746     2A    -11.264248     3A    -11.261390
       4A    -11.214477     5A    -11.212427     6A     -1.378138
       7A     -1.057306     8A     -0.959428     9A     -0.882249
      10A     -0.806424    11A     -0.670705    12A     -0.658162
      13A     -0.637671    14A     -0.601289    15A     -0.566869
      16A     -0.533116    17A     -0.518251    18A     -0.497897
      19A     -0.484343    20A     -0.459194    21A     -0.408525

  @DF-RHF Final Energy:  -232.22531801995137

   => Energetics <=

    Nuclear Repulsion Energy =            191.4992986374672910
    One-Electron Energy =                -694.2135280936106483
    Two-Electron Energy =                 270.4889114361918701
    DFT Exchange-Correlation Energy =       0.0000000000000000
    Empirical Dispersion Energy =           0.0000000000000000
    PCM Polarization Energy =               0.0000000000000000
    EFP Energy =                            0.0000000000000000
    Total Energy =                       -232.2253180199514873
    Molecular point group: c1
  Basis Set: CC-PVTZ
  Basis Set:

  -Total Gradient:
     Atom            X                  Y                   Z
    ------   -----------------  -----------------  -----------------
       1        0.000018526791    -0.000004256499    -0.000013982709
       2        0.000052884598     0.000013569879     0.000157668497
       3       -0.000081277349    -0.000088777014    -0.000229866536
       4       -0.000005330103     0.000002079303    -0.000003005411
       5       -0.000001265499     0.000004767959    -0.000002119216
       6        0.000175632388     0.000141607224     0.000138371245
       7        0.000002652443    -0.000006054660     0.000022467088
       8       -0.000139464863    -0.000113070394    -0.000047213592
       9       -0.000008933069     0.000017038247    -0.000001923815
      10        0.000004895990     0.000026879776    -0.000010139648
      11       -0.000009714670     0.000003708104    -0.000002113473
      12       -0.000000512271     0.000006588757    -0.000024837799
      13       -0.000003096176    -0.000008466244     0.000014535069
      14       -0.000006318230     0.000005324759     0.000000094988
      15        0.000001320019    -0.000000939197     0.000002065314

  **** Optimization is complete! (in 8 steps) ****
    Final optimized geometry and variables:
    Molecular point group: c1

    Geometry (in Angstrom), charge = 0, multiplicity = 1:

    H           -2.050174254167     2.204902311462     0.637484457352
    C           -1.572400642649     1.243830193554     0.762308506368
    O           -0.293895333991     1.338267420419     0.224926199733
    H           -2.177233469506     0.493019812771     0.261755933500
    H           -1.538768156775     1.007318993897     1.823588060253
    C            0.503985662507     0.198106823970     0.341176562205
    C            0.258160917358    -0.825025881498    -0.759037173622
    H            0.361778512379    -0.261758495930     1.318498669647
    H            1.530912202908     0.539561965219     0.292405171197
    C            1.196825955285    -2.021973507947    -0.647273437899
    H           -0.770655515683    -1.167460006419    -0.722753073472
    H            0.391026198966    -0.334924682356    -1.717620924785
    H            1.063444608663    -2.541691276303     0.295890263963
    H            1.015857427384    -2.734073865511    -1.443149895909
    H            2.235299372928    -1.714332923248    -0.710148815519

  Mulliken Charges: (a.u.)
   Center  Symbol    Alpha    Beta     Spin     Total
       1     H     0.44601  0.44601  0.00000  0.10799
       2     C     3.03278  3.03278  0.00000 -0.06557
       3     O     4.17809  4.17809  0.00000 -0.35618
       4     H     0.47204  0.47204  0.00000  0.05592
       5     H     0.47121  0.47121  0.00000  0.05758
       6     C     2.97582  2.97582  0.00000  0.04836
       7     C     3.08462  3.08462  0.00000 -0.16924
       8     H     0.47358  0.47358  0.00000  0.05283
       9     H     0.44891  0.44891  0.00000  0.10217
      10     C     3.15334  3.15334  0.00000 -0.30669
      11     H     0.45679  0.45679  0.00000  0.08643
      12     H     0.45074  0.45074  0.00000  0.09853
      13     H     0.45544  0.45544  0.00000  0.08913
      14     H     0.44669  0.44669  0.00000  0.10662
      15     H     0.45395  0.45395  0.00000  0.09211

   Total alpha = 21.00000, Total beta = 21.00000, Total charge = -0.00000

*** Psi4 exiting successfully. Buy a developer a beer!
