                              Psi4 1.0.54 Driver

  ==> Input File <==

--------------------------------------------------------------------------
set {
	reference rhf
	basis cc-pvtz
}

set_num_threads( 4 )
memory 2 gb

molecule MOL {
0 1

H	 2.124907	 -0.715716	 -0.797679
O	 2.063695	 -0.083403	 -0.105237
C	 0.742924	 0.005675	 0.350750
H	 0.731380	 0.039219	 1.440080
C	 -0.064076	 -1.193495	 -0.124425
C	 -0.047832	 1.190568	 -0.194462
H	 0.194729	 -1.376165	 -1.161308
H	 0.163013	 -2.094508	 0.429933
C	 -1.533112	 -0.752002	 0.006102
H	 0.148003	 1.266545	 -1.259275
H	 0.226235	 2.136493	 0.259722
C	 -1.506634	 0.799189	 0.067162
H	 -2.124360	 -1.110499	 -0.826089
H	 -1.983103	 -1.158030	 0.903403
H	 -2.183808	 1.252169	 -0.644677
H	 -1.813926	 1.138698	 1.049457

	symmetry c1
}
set optking {
	frozen_dihedral = ("
		1 2 3 6
	")
}

ee,wfn = optimize('scf', return_wfn=True)
oeprop( wfn, 'DIPOLE', 'QUADRUPOLE', 'MULLIKEN_CHARGES')
f=open( 'psi4out.xyz', 'w' )
f.write( "16  " )
f.write( str(ee) + "\n" )
f.write( MOL.save_string_xyz() )
f.close()
--------------------------------------------------------------------------

    Molecular point group: c1
  Charge       = 0
  Multiplicity = 1
  Basis Set: CC-PVTZ
  Basis Set:
  @DF-RHF Final Energy:  -270.11338286809627
    Total Energy =                       -270.1133828680963234
    Molecular point group: c1
  Basis Set: CC-PVTZ
  Basis Set:
  Basis Set: CC-PVTZ
  Basis Set:
  @DF-RHF Final Energy:  -270.11493721343857
    Total Energy =                       -270.1149372134385089
  Basis Set: CC-PVTZ
  Basis Set:
  Basis Set: CC-PVTZ
  Basis Set:
  @DF-RHF Final Energy:  -270.11516204650809
    Total Energy =                       -270.1151620465080896
  Basis Set: CC-PVTZ
  Basis Set:
  Basis Set: CC-PVTZ
  Basis Set:
  @DF-RHF Final Energy:  -270.11516743184586
    Total Energy =                       -270.1151674318459186
  Basis Set: CC-PVTZ
  Basis Set:
  Charge       = 0
  Multiplicity = 1
  Basis Set: CC-PVTZ
  Basis Set:

    Orbital Energies (a.u.)
    -----------------------

    Doubly Occupied:

       1A    -20.543924     2A    -11.267402     3A    -11.218606
       4A    -11.217860     5A    -11.215403     6A    -11.207632
       7A     -1.364573     8A     -1.117114     9A     -0.970129
      10A     -0.950042    11A     -0.803181    12A     -0.783629
      13A     -0.682590    14A     -0.665702    15A     -0.608318
      16A     -0.599259    17A     -0.578627    18A     -0.539824
      19A     -0.504866    20A     -0.485165    21A     -0.473762
      22A     -0.459570    23A     -0.452615    24A     -0.417697

  @DF-RHF Final Energy:  -270.11516782866079

   => Energetics <=

    Nuclear Repulsion Energy =            255.4969029886102305
    One-Electron Energy =                -872.9691583018420715
    Two-Electron Energy =                 347.3570874845712524
    DFT Exchange-Correlation Energy =       0.0000000000000000
    Empirical Dispersion Energy =           0.0000000000000000
    PCM Polarization Energy =               0.0000000000000000
    EFP Energy =                            0.0000000000000000
    Total Energy =                       -270.1151678286605602
    Molecular point group: c1
  Basis Set: CC-PVTZ
  Basis Set:

  -Total Gradient:
     Atom            X                  Y                   Z
    ------   -----------------  -----------------  -----------------
       1        0.000230327798    -0.001129880939     0.000940261158
       2       -0.000215154305     0.001613021806    -0.000802100936
       3       -0.000258314256    -0.000935679930    -0.000880593489
       4        0.000004016113    -0.000002552768     0.000010181737
       5        0.000013334116     0.000038234401    -0.000025953672
       6        0.000256306899     0.000449304627     0.000726993347
       7       -0.000002407612    -0.000006120001     0.000001993011
       8        0.000004986447     0.000020264825    -0.000001252847
       9       -0.000013029556     0.000006060538    -0.000023498579
      10        0.000019209049     0.000000385893    -0.000003979096
      11        0.000010209959    -0.000012873519     0.000000459304
      12       -0.000012796074    -0.000017269332     0.000045751036
      13       -0.000023703969    -0.000004812044     0.000002127128
      14       -0.000000707684     0.000003004962     0.000003210973
      15        0.000008623488    -0.000012582292     0.000002725750
      16       -0.000020900408    -0.000008506229     0.000003675176

  **** Optimization is complete! (in 5 steps) ****
    Final optimized geometry and variables:
    Molecular point group: c1

    Geometry (in Angstrom), charge = 0, multiplicity = 1:

    H            2.218402166516    -0.598790345734    -0.782046153313
    O            2.092857615248    -0.021567507909    -0.052066536822
    C            0.746216079260    -0.007568569148     0.332873992197
    H            0.740207883609     0.011158086698     1.418820863890
    C           -0.082336551091    -1.193893582341    -0.150161817894
    C           -0.038865420966     1.193508301027    -0.180538112722
    H            0.140579480925    -1.367118867895    -1.201050421799
    H            0.141693007079    -2.108963214192     0.383182805221
    C           -1.543666004416    -0.737312766598     0.012571436739
    H            0.136683106438     1.291617974699    -1.248200621295
    H            0.262452248869     2.122273823975     0.286068147729
    C           -1.496472860763     0.812718375417     0.100235114331
    H           -2.153415778510    -1.075228306762    -0.814879516465
    H           -1.980137792552    -1.155838116332     0.910450099943
    H           -2.183934618441     1.283817902980    -0.589524609948
    H           -1.781222064302     1.136226533059     1.094458672385

  Mulliken Charges: (a.u.)
   Center  Symbol    Alpha    Beta     Spin     Total
       1     H     0.39256  0.39256  0.00000  0.21488
       2     O     4.20843  4.20843  0.00000 -0.41686
       3     C     2.92708  2.92708  0.00000  0.14584
       4     H     0.45139  0.45139  0.00000  0.09721
       5     C     3.11453  3.11453  0.00000 -0.22906
       6     C     3.09113  3.09113  0.00000 -0.18226
       7     H     0.46101  0.46101  0.00000  0.07798
       8     H     0.44070  0.44070  0.00000  0.11859
       9     C     3.10902  3.10902  0.00000 -0.21804
      10     H     0.46083  0.46083  0.00000  0.07834
      11     H     0.44451  0.44451  0.00000  0.11099
      12     C     3.11474  3.11474  0.00000 -0.22948
      13     H     0.44509  0.44509  0.00000  0.10982
      14     H     0.44636  0.44636  0.00000  0.10729
      15     H     0.44340  0.44340  0.00000  0.11320
      16     H     0.44922  0.44922  0.00000  0.10155

   Total alpha = 24.00000, Total beta = 24.00000, Total charge = -0.00000

*** Psi4 exiting successfully. Buy a developer a beer!
