                              Psi4 1.0.54 Driver

  ==> Input File <==

--------------------------------------------------------------------------
set {
	reference rhf
	basis cc-pvtz
}

set_num_threads( 4 )
memory 2 gb

molecule MOL {
0 1

O	 1.371313	 1.045657	 0.700935
C	 1.121787	 0.124983	 0.000110
C	 -0.170912	 -0.649867	 -0.000147
O	 1.969101	 -0.353489	 -0.896273
C	 -1.413045	 0.229353	 0.001137
H	 -0.152877	 -1.303435	 -0.866175
H	 -0.152278	 -1.305116	 0.864586
C	 -2.702562	 -0.586401	 0.000228
H	 -1.390744	 0.882001	 -0.864365
H	 -1.390549	 0.879837	 0.868264
C	 -3.953810	 0.284959	 -0.000782
H	 -2.717793	 -1.238567	 -0.869075
H	 -2.719108	 -1.238472	 0.869576
H	 -3.983727	 0.924403	 -0.876454
H	 -4.852989	 -0.320147	 -0.001515
H	 -3.985140	 0.924399	 0.874841
C	 3.226978	 0.281687	 -1.004047
H	 3.107866	 1.319775	 -1.276836
H	 3.762124	 -0.246898	 -1.776112
H	 3.765395	 0.222432	 -0.069799

	symmetry c1
}
set optking {
	frozen_dihedral = ("
		1 2 3 6
	")
}

ee,wfn = optimize('scf', return_wfn=True)
oeprop( wfn, 'DIPOLE', 'QUADRUPOLE', 'MULLIKEN_CHARGES')
f=open( 'psi4out.xyz', 'w' )
f.write( "20  " )
f.write( str(ee) + "\n" )
f.write( MOL.save_string_xyz() )
f.close()
--------------------------------------------------------------------------

    Molecular point group: c1
  Charge       = 0
  Multiplicity = 1
  Basis Set: CC-PVTZ
  Basis Set:
  @DF-RHF Final Energy:  -384.08165859643771
    Total Energy =                       -384.0816585964378191
    Molecular point group: c1
  Basis Set: CC-PVTZ
  Basis Set:
  Basis Set: CC-PVTZ
  Basis Set:
  @DF-RHF Final Energy:  -383.92709689126502
    Total Energy =                       -383.9270968912647959
  Basis Set: CC-PVTZ
  Basis Set:
  Basis Set: CC-PVTZ
  Basis Set:
  @DF-RHF Final Energy:  -384.04565251432763
    Total Energy =                       -384.0456525143279691
  Basis Set: CC-PVTZ
  Basis Set:
  Basis Set: CC-PVTZ
  Basis Set:
  @DF-RHF Final Energy:  -384.08094041046752
    Total Energy =                       -384.0809404104668374
  Basis Set: CC-PVTZ
  Basis Set:
  @DF-RHF Final Energy:  -384.07914642951783
    Total Energy =                       -384.0791464295182323
  @DF-RHF Final Energy:  -384.08178551529232
    Total Energy =                       -384.0817855152916991
  Basis Set: CC-PVTZ
  Basis Set:
  @DF-RHF Final Energy:  -384.08209456173785
    Total Energy =                       -384.0820945617377902
  Basis Set: CC-PVTZ
  Basis Set:
  Basis Set: CC-PVTZ
  Basis Set:
  @DF-RHF Final Energy:  -384.08215944061658
    Total Energy =                       -384.0821594406168060
  Basis Set: CC-PVTZ
  Basis Set:
  Basis Set: CC-PVTZ
  Basis Set:
  @DF-RHF Final Energy:  -384.08216332151034
    Total Energy =                       -384.0821633215098245
  Basis Set: CC-PVTZ
  Basis Set:
  Charge       = 0
  Multiplicity = 1
  Basis Set: CC-PVTZ
  Basis Set:

    Orbital Energies (a.u.)
    -----------------------

    Doubly Occupied:

       1A    -20.598616     2A    -20.531794     3A    -11.364473
       4A    -11.278672     5A    -11.232884     6A    -11.221494
       7A    -11.219547     8A    -11.209928     9A     -1.472801
      10A     -1.364958    11A     -1.090850    12A     -1.025166
      13A     -0.970464    14A     -0.887683    15A     -0.805381
      16A     -0.772693    17A     -0.698100    18A     -0.684885
      19A     -0.675883    20A     -0.647952    21A     -0.599282
      22A     -0.593363    23A     -0.576801    24A     -0.549943
      25A     -0.535261    26A     -0.524579    27A     -0.502874
      28A     -0.478811    29A     -0.478031    30A     -0.472240
      31A     -0.459084    32A     -0.437064

  @DF-RHF Final Energy:  -384.08216341756270

   => Energetics <=

    Nuclear Repulsion Energy =            381.9504033818584503
    One-Electron Energy =               -1280.1420235546893309
    Two-Electron Energy =                 514.1094567552677290
    DFT Exchange-Correlation Energy =       0.0000000000000000
    Empirical Dispersion Energy =           0.0000000000000000
    PCM Polarization Energy =               0.0000000000000000
    EFP Energy =                            0.0000000000000000
    Total Energy =                       -384.0821634175631516
    Molecular point group: c1
  Basis Set: CC-PVTZ
  Basis Set:

  -Total Gradient:
     Atom            X                  Y                   Z
    ------   -----------------  -----------------  -----------------
       1        0.000247798730    -0.000810801480     0.000299983335
       2       -0.000302289768     0.000977158354    -0.000405032493
       3       -0.000243271950     0.000638431558    -0.000054895525
       4        0.000026815587    -0.000010411444     0.000006780079
       5       -0.000012582376    -0.000003730773     0.000026319462
       6        0.000298132672    -0.000797862712     0.000144029581
       7        0.000000667104     0.000008352567    -0.000001581783
       8        0.000009878413    -0.000000219222    -0.000000800148
       9       -0.000001919643    -0.000012358567     0.000007885912
      10        0.000001843626    -0.000000955769    -0.000010027323
      11        0.000006897467     0.000008823071    -0.000006231568
      12       -0.000000549095    -0.000006619417     0.000011087213
      13        0.000003882775     0.000009670266    -0.000004541059
      14       -0.000001817615    -0.000002641538     0.000009082450
      15        0.000004200384     0.000002033458    -0.000000930872
      16       -0.000001432710    -0.000003316234    -0.000014632012
      17       -0.000071789233     0.000005814228    -0.000013592849
      18        0.000016291539     0.000015917317     0.000005709660
      19        0.000009691433    -0.000007150798    -0.000013695428
      20        0.000009552655    -0.000010132865     0.000015083366

  **** Optimization is complete! (in 10 steps) ****
    Final optimized geometry and variables:
    Molecular point group: c1

    Geometry (in Angstrom), charge = 0, multiplicity = 1:

    O            1.457250638257     0.355259464671     1.115758404066
    C            1.143977325470    -0.123787605935     0.078658555113
    C           -0.226263430160    -0.676495175682    -0.225266396969
    O            1.979368276630    -0.259462681823    -0.936199459614
    C           -1.350200580413     0.243479658877     0.245554927883
    H           -0.300545269851    -0.888866639476    -1.282556521130
    H           -0.288587383694    -1.627427484647     0.296070156398
    C           -2.732484498730    -0.357335279968     0.010095664780
    H           -1.276473960453     1.194540521095    -0.274542580683
    H           -1.212965926603     0.456733462932     1.298303327743
    C           -3.861718120893     0.559569545144     0.467333715856
    H           -2.855783681923    -0.581827267938    -1.045894098842
    H           -2.804467965428    -1.306534049457     0.534115912823
    H           -3.837577016382     1.504903978968    -0.064218833207
    H           -4.830048887624     0.105844161287     0.291249304450
    H           -3.784344105760     0.775540170471     1.527392116070
    C            3.307919793005     0.184324021104    -0.744515699198
    H            3.328078550802     1.240644189615    -0.521536999754
    H            3.823212650657    -0.011206538156    -1.670867941079
    H            3.776618414307    -0.355632864489     0.064760442845

  Mulliken Charges: (a.u.)
   Center  Symbol    Alpha    Beta     Spin     Total
       1     O     4.20261  4.20261  0.00000 -0.40523
       2     C     2.81466  2.81466  0.00000  0.37068
       3     C     3.08482  3.08482  0.00000 -0.16964
       4     O     4.14330  4.14330  0.00000 -0.28660
       5     C     3.08950  3.08950  0.00000 -0.17901
       6     H     0.43842  0.43842  0.00000  0.12315
       7     H     0.44576  0.44576  0.00000  0.10848
       8     C     3.08783  3.08783  0.00000 -0.17566
       9     H     0.45222  0.45222  0.00000  0.09556
      10     H     0.43920  0.43920  0.00000  0.12159
      11     C     3.14912  3.14912  0.00000 -0.29824
      12     H     0.45475  0.45475  0.00000  0.09050
      13     H     0.45369  0.45369  0.00000  0.09262
      14     H     0.45453  0.45453  0.00000  0.09094
      15     H     0.44814  0.44814  0.00000  0.10372
      16     H     0.45314  0.45314  0.00000  0.09371
      17     C     3.03487  3.03487  0.00000 -0.06974
      18     H     0.45410  0.45410  0.00000  0.09179
      19     H     0.44505  0.44505  0.00000  0.10990
      20     H     0.45427  0.45427  0.00000  0.09145

   Total alpha = 32.00000, Total beta = 32.00000, Total charge =  0.00000

*** Psi4 exiting successfully. Buy a developer a beer!
