                              Psi4 1.0.54 Driver

  ==> Input File <==

--------------------------------------------------------------------------
set {
	reference rhf
	basis cc-pvtz
}

set_num_threads( 4 )
memory 2 gb

molecule MOL {
0 1

H	 -3.813701	 1.149108	 -0.316387
C	 -3.102956	 0.567754	 0.234227
C	 -2.105997	 -0.000418	 -0.398703
H	 -3.226258	 0.467402	 1.294663
O	 -1.189946	 -0.765863	 0.237511
H	 -1.968127	 0.100558	 -1.459798
C	 0.026572	 -0.995256	 -0.379403
C	 1.057223	 0.049888	 -0.004615
H	 -0.054361	 -1.010670	 -1.459674
H	 0.397526	 -1.952058	 -0.044198
F	 2.203233	 -0.234060	 -0.590375
F	 0.698147	 1.254887	 -0.392621
F	 1.266440	 0.094219	 1.288722

	symmetry c1
}
set optking {
	frozen_dihedral = ("
		6 3 5 7
	")
}

ee,wfn = optimize('scf', return_wfn=True)
oeprop( wfn, 'DIPOLE', 'QUADRUPOLE', 'MULLIKEN_CHARGES')
f=open( 'psi4out.xyz', 'w' )
f.write( "13  " )
f.write( str(ee) + "\n" )
f.write( MOL.save_string_xyz() )
f.close()
--------------------------------------------------------------------------

    Molecular point group: c1
  Charge       = 0
  Multiplicity = 1
  Basis Set: CC-PVTZ
  Basis Set:
  @DF-RHF Final Energy:  -527.74187939210174
    Total Energy =                       -527.7418793921019642
    Molecular point group: c1
  Basis Set: CC-PVTZ
  Basis Set:
  Basis Set: CC-PVTZ
  Basis Set:
  @DF-RHF Final Energy:  -527.74187539209629
    Total Energy =                       -527.7418753920966310
  Basis Set: CC-PVTZ
  Basis Set:
  Basis Set: CC-PVTZ
  Basis Set:
  @DF-RHF Final Energy:  -527.74194384602947
    Total Energy =                       -527.7419438460296988
  Basis Set: CC-PVTZ
  Basis Set:
  Basis Set: CC-PVTZ
  Basis Set:
  @DF-RHF Final Energy:  -527.74194599196903
    Total Energy =                       -527.7419459919688052
  Basis Set: CC-PVTZ
  Basis Set:
  Basis Set: CC-PVTZ
  Basis Set:
  @DF-RHF Final Energy:  -527.74194760486262
    Total Energy =                       -527.7419476048630713
  Basis Set: CC-PVTZ
  Basis Set:
  Charge       = 0
  Multiplicity = 1
  Basis Set: CC-PVTZ
  Basis Set:

    Orbital Energies (a.u.)
    -----------------------

    Doubly Occupied:

       1A    -26.341143     2A    -26.339648     3A    -26.337493
       4A    -20.603640     5A    -11.497228     6A    -11.319658
       7A    -11.298156     8A    -11.214518     9A     -1.749795
      10A     -1.646209    11A     -1.644748    12A     -1.444043
      13A     -1.087444    14A     -1.020772    15A     -0.931723
      16A     -0.843448    17A     -0.838887    18A     -0.826122
      19A     -0.798727    20A     -0.726639    21A     -0.718826
      22A     -0.701248    23A     -0.681647    24A     -0.668481
      25A     -0.661091    26A     -0.650233    27A     -0.643873
      28A     -0.586300    29A     -0.566886    30A     -0.528211
      31A     -0.515637    32A     -0.358312

  @DF-RHF Final Energy:  -527.74194771838597

   => Energetics <=

    Nuclear Repulsion Energy =            414.4127857163747990
    One-Electron Energy =               -1552.7278892459003146
    Two-Electron Energy =                 610.5731558111392587
    DFT Exchange-Correlation Energy =       0.0000000000000000
    Empirical Dispersion Energy =           0.0000000000000000
    PCM Polarization Energy =               0.0000000000000000
    EFP Energy =                            0.0000000000000000
    Total Energy =                       -527.7419477183862000
    Molecular point group: c1
  Basis Set: CC-PVTZ
  Basis Set:

  -Total Gradient:
     Atom            X                  Y                   Z
    ------   -----------------  -----------------  -----------------
       1        0.000006113405    -0.000004915061    -0.000006922897
       2       -0.000000882805     0.000014126002     0.000014010232
       3        0.000569453126     0.000868600093     0.000245366487
       4        0.000004644155    -0.000009566001    -0.000002623823
       5       -0.000413098664    -0.000796493959    -0.000382776688
       6       -0.000370960830    -0.000501283102    -0.000108255878
       7        0.000190379447     0.000419721059     0.000240557622
       8       -0.000013659336     0.000061921520    -0.000002369749
       9       -0.000001617646    -0.000001604695    -0.000004636654
      10        0.000003708925     0.000009937635     0.000007057225
      11        0.000019643413    -0.000027060836    -0.000033799043
      12        0.000018466229    -0.000027263541     0.000006535354
      13       -0.000012189418    -0.000006119109     0.000027857808

  **** Optimization is complete! (in 6 steps) ****
    Final optimized geometry and variables:
    Molecular point group: c1

    Geometry (in Angstrom), charge = 0, multiplicity = 1:

    H           -3.818192172794     1.169441337152    -0.277200235382
    C           -3.110159353951     0.576955101449     0.265184021030
    C           -2.110084863748     0.021087385453    -0.372940075799
    H           -3.242393507924     0.449959337681     1.321668680401
    O           -1.214748750100    -0.783968063742     0.245163913029
    H           -1.964741137984     0.142277750852    -1.431601771839
    C           -0.004881478202    -1.027349780466    -0.379337653584
    C            1.039887908400     0.011803371110    -0.026910011876
    H           -0.096319515546    -1.052863301841    -1.458999577851
    H            0.360912724961    -1.983501021351    -0.037041873784
    F            2.180204769851    -0.299069845143    -0.610731849388
    F            0.696851310269     1.213827400344    -0.436116428257
    F            1.253919649654     0.076599952424     1.265002372949

  Mulliken Charges: (a.u.)
   Center  Symbol    Alpha    Beta     Spin     Total
       1     H     0.42509  0.42509  0.00000  0.14982
       2     C     3.19310  3.19310  0.00000 -0.38620
       3     C     2.96081  2.96081  0.00000  0.07838
       4     H     0.42413  0.42413  0.00000  0.15174
       5     O     4.14539  4.14539  0.00000 -0.29079
       6     H     0.43556  0.43556  0.00000  0.12888
       7     C     3.01966  3.01966  0.00000 -0.03931
       8     C     2.67585  2.67585  0.00000  0.64830
       9     H     0.45505  0.45505  0.00000  0.08989
      10     H     0.43591  0.43591  0.00000  0.12817
      11     F     4.61268  4.61268  0.00000 -0.22537
      12     F     4.60970  4.60970  0.00000 -0.21941
      13     F     4.60705  4.60705  0.00000 -0.21411

   Total alpha = 32.00000, Total beta = 32.00000, Total charge =  0.00000

*** Psi4 exiting successfully. Buy a developer a beer!
