                              Psi4 1.0.54 Driver

  ==> Input File <==

--------------------------------------------------------------------------
set {
	reference rhf
	basis cc-pvtz
}

set_num_threads( 4 )
memory 2 gb

molecule MOL {
0 1

H	 -2.338376	 -0.001812	 -0.100213
N	 -1.364403	 -0.001055	 -0.310259
C	 -0.734046	 1.203330	 0.197366
C	 -0.732297	 -1.204517	 0.197262
H	 -0.802396	 1.280098	 1.284042
H	 -1.229204	 2.066468	 -0.230642
C	 0.732297	 1.204517	 -0.197262
H	 -0.800495	 -1.281538	 1.283937
H	 -1.226194	 -2.068356	 -0.230833
C	 0.734046	 -1.203330	 -0.197366
H	 0.800495	 1.281538	 -1.283937
H	 1.226194	 2.068356	 0.230833
N	 1.364403	 0.001055	 0.310259
H	 1.229204	 -2.066468	 0.230642
H	 0.802396	 -1.280098	 -1.284042
H	 2.338376	 0.001812	 0.100213

	symmetry c1
}
ee,wfn = energy('scf', return_wfn=True)
oeprop( wfn, 'DIPOLE', 'QUADRUPOLE', 'MULLIKEN_CHARGES')
oeprop( wfn, 'GRID_ESP')
f=open( 'psi4out.xyz', 'w' )
f.write( "16  " )
f.write( str(ee) + "\n" )
f.write( MOL.save_string_xyz() )
f.close()
--------------------------------------------------------------------------

    Molecular point group: c1

    Geometry (in Angstrom), charge = 0, multiplicity = 1:

       Center              X                  Y                   Z               Mass
    ------------   -----------------  -----------------  -----------------  -----------------
           H         -2.338376000000    -0.001812000000    -0.100213000000     1.007825032070
           N         -1.364403000000    -0.001055000000    -0.310259000000    14.003074004780
           C         -0.734046000000     1.203330000000     0.197366000000    12.000000000000
           C         -0.732297000000    -1.204517000000     0.197262000000    12.000000000000
           H         -0.802396000000     1.280098000000     1.284042000000     1.007825032070
           H         -1.229204000000     2.066468000000    -0.230642000000     1.007825032070
           C          0.732297000000     1.204517000000    -0.197262000000    12.000000000000
           H         -0.800495000000    -1.281538000000     1.283937000000     1.007825032070
           H         -1.226194000000    -2.068356000000    -0.230833000000     1.007825032070
           C          0.734046000000    -1.203330000000    -0.197366000000    12.000000000000
           H          0.800495000000     1.281538000000    -1.283937000000     1.007825032070
           H          1.226194000000     2.068356000000     0.230833000000     1.007825032070
           N          1.364403000000     0.001055000000     0.310259000000    14.003074004780
           H          1.229204000000    -2.066468000000     0.230642000000     1.007825032070
           H          0.802396000000    -1.280098000000    -1.284042000000     1.007825032070
           H          2.338376000000     0.001812000000     0.100213000000     1.007825032070

  Charge       = 0
  Multiplicity = 1
  Basis Set: CC-PVTZ
  Basis Set:

    Orbital Energies (a.u.)
    -----------------------

    Doubly Occupied:

       1A    -15.529956     2A    -15.529953     3A    -11.236053
       4A    -11.236035     5A    -11.235404     6A    -11.235393
       7A     -1.237895     8A     -1.170679     9A     -1.022046
      10A     -0.910096    11A     -0.855026    12A     -0.759907
      13A     -0.705596    14A     -0.642829    15A     -0.619333
      16A     -0.600602    17A     -0.577031    18A     -0.572253
      19A     -0.533919    20A     -0.489503    21A     -0.470989
      22A     -0.459283    23A     -0.369924    24A     -0.357866

  @DF-RHF Final Energy:  -266.26752295756842

   => Energetics <=

    Nuclear Repulsion Energy =            264.1372768851427963
    One-Electron Energy =                -884.0944461251978055
    Two-Electron Energy =                 353.6896462824864784
    DFT Exchange-Correlation Energy =       0.0000000000000000
    Empirical Dispersion Energy =           0.0000000000000000
    PCM Polarization Energy =               0.0000000000000000
    EFP Energy =                            0.0000000000000000
    Total Energy =                       -266.2675229575685307

  Mulliken Charges: (a.u.)
   Center  Symbol    Alpha    Beta     Spin     Total
       1     H     0.44002  0.44002  0.00000  0.11995
       2     N     3.64493  3.64493  0.00000 -0.28986
       3     C     3.03851  3.03851  0.00000 -0.07703
       4     C     3.03851  3.03851  0.00000 -0.07703
       5     H     0.46612  0.46612  0.00000  0.06777
       6     H     0.45289  0.45289  0.00000  0.09422
       7     C     3.03851  3.03851  0.00000 -0.07703
       8     H     0.46612  0.46612  0.00000  0.06776
       9     H     0.45289  0.45289  0.00000  0.09422
      10     C     3.03851  3.03851  0.00000 -0.07703
      11     H     0.46612  0.46612  0.00000  0.06776
      12     H     0.45289  0.45289  0.00000  0.09422
      13     N     3.64493  3.64493  0.00000 -0.28986
      14     H     0.45289  0.45289  0.00000  0.09422
      15     H     0.46612  0.46612  0.00000  0.06777
      16     H     0.44002  0.44002  0.00000  0.11995

   Total alpha = 24.00000, Total beta = 24.00000, Total charge = -0.00000

*** Psi4 exiting successfully. Buy a developer a beer!
