                              Psi4 1.0.54 Driver

  ==> Input File <==

--------------------------------------------------------------------------
set {
	reference rhf
	basis cc-pvtz
}

set_num_threads( 4 )
memory 2 gb

molecule MOL {
0 1

O	 3.219313	 0.959291	 -0.614106
C	 2.698710	 0.058177	 -0.050237
C	 1.246364	 -0.005813	 0.348416
O	 3.344101	 -1.038700	 0.312317
C	 0.453207	 1.232821	 -0.049003
H	 0.839270	 -0.907818	 -0.092281
H	 1.216683	 -0.160521	 1.422434
C	 -0.998367	 1.217982	 0.432195
H	 0.481498	 1.345443	 -1.127236
H	 0.951413	 2.105557	 0.354893
C	 -1.882951	 0.151251	 -0.211235
H	 -1.429490	 2.193659	 0.228843
H	 -1.019755	 1.099323	 1.513279
C	 -3.342450	 0.243269	 0.226009
H	 -1.826223	 0.246578	 -1.293162
H	 -1.508033	 -0.839650	 0.027695
C	 -4.198158	 1.112015	 -0.691498
H	 -3.389636	 0.637682	 1.238210
H	 -3.767820	 -0.756714	 0.270283
C	 -5.654354	 1.200497	 -0.247155
H	 -3.774473	 2.111604	 -0.736583
H	 -4.154314	 0.717507	 -1.703080
H	 -6.233292	 1.823525	 -0.919205
H	 -5.734626	 1.624601	 0.748235
H	 -6.117093	 0.219382	 -0.224948
C	 4.720529	 -1.114346	 0.001449
H	 4.874321	 -1.055557	 -1.065852
H	 5.057824	 -2.067950	 0.373977
H	 5.264321	 -0.313596	 0.480350

	symmetry c1
}
set optking {
	frozen_dihedral = ("
		17 14 11 15
	")
}

ee,wfn = optimize('scf', return_wfn=True)
oeprop( wfn, 'DIPOLE', 'QUADRUPOLE', 'MULLIKEN_CHARGES')
f=open( 'psi4out.xyz', 'w' )
f.write( "29  " )
f.write( str(ee) + "\n" )
f.write( MOL.save_string_xyz() )
f.close()
--------------------------------------------------------------------------

    Molecular point group: c1
  Charge       = 0
  Multiplicity = 1
  Basis Set: CC-PVTZ
  Basis Set:
  @DF-RHF Final Energy:  -501.22138738066280
    Total Energy =                       -501.2213873806616675
    Molecular point group: c1
  Basis Set: CC-PVTZ
  Basis Set:
  Basis Set: CC-PVTZ
  Basis Set:
  @DF-RHF Final Energy:  -501.22160911156379
    Total Energy =                       -501.2216091115637937
  Basis Set: CC-PVTZ
  Basis Set:
  Basis Set: CC-PVTZ
  Basis Set:
  @DF-RHF Final Energy:  -501.22165159591611
    Total Energy =                       -501.2216515959164553
  Basis Set: CC-PVTZ
  Basis Set:
  Basis Set: CC-PVTZ
  Basis Set:
  @DF-RHF Final Energy:  -501.22152221926706
    Total Energy =                       -501.2215222192671717
  Basis Set: CC-PVTZ
  Basis Set:
  Basis Set: CC-PVTZ
  Basis Set:
  @DF-RHF Final Energy:  -501.22166766163627
    Total Energy =                       -501.2216676616358200
  Basis Set: CC-PVTZ
  Basis Set:
  Charge       = 0
  Multiplicity = 1
  Basis Set: CC-PVTZ
  Basis Set:

    Orbital Energies (a.u.)
    -----------------------

    Doubly Occupied:

       1A    -20.595949     2A    -20.533801     3A    -11.364202
       4A    -11.278215     5A    -11.232872     6A    -11.216860
       7A    -11.215433     8A    -11.213846     9A    -11.213713
      10A    -11.212281    11A    -11.206826    12A     -1.471840
      13A     -1.365443    14A     -1.099015    15A     -1.067151
      16A     -1.019314    17A     -0.977612    18A     -0.928937
      19A     -0.862841    20A     -0.807944    21A     -0.784474
      22A     -0.765405    23A     -0.703135    24A     -0.685341
      25A     -0.675786    26A     -0.638363    27A     -0.628722
      28A     -0.617051    29A     -0.597145    30A     -0.580995
      31A     -0.562078    32A     -0.557565    33A     -0.537966
      34A     -0.529008    35A     -0.523650    36A     -0.501639
      37A     -0.496466    38A     -0.482506    39A     -0.473052
      40A     -0.463409    41A     -0.459230    42A     -0.447315
      43A     -0.444673    44A     -0.439386

  @DF-RHF Final Energy:  -501.22166775631649

   => Energetics <=

    Nuclear Repulsion Energy =            613.3047217606197137
    One-Electron Energy =               -1898.0958667266845623
    Two-Electron Energy =                 783.5694772097489249
    DFT Exchange-Correlation Energy =       0.0000000000000000
    Empirical Dispersion Energy =           0.0000000000000000
    PCM Polarization Energy =               0.0000000000000000
    EFP Energy =                            0.0000000000000000
    Total Energy =                       -501.2216677563159237
    Molecular point group: c1
  Basis Set: CC-PVTZ
  Basis Set:

  -Total Gradient:
     Atom            X                  Y                   Z
    ------   -----------------  -----------------  -----------------
       1       -0.000052612198    -0.000036798929    -0.000044405266
       2        0.000061592795     0.000095068164     0.000144605204
       3       -0.000008471273    -0.000031880370    -0.000069227884
       4       -0.000027544978    -0.000041249361    -0.000033907949
       5        0.000030395250     0.000022421394     0.000038572683
       6       -0.000009484881    -0.000000159122     0.000008521065
       7        0.000015632444     0.000011360280    -0.000015193611
       8       -0.000022889619    -0.000021964181    -0.000055328882
       9       -0.000001297374     0.000000856983     0.000011346475
      10        0.000004699789    -0.000016750303    -0.000004849581
      11       -0.000466480575    -0.004155405542    -0.000706948510
      12       -0.000013552627    -0.000005632934    -0.000010084881
      13       -0.000005030266    -0.000005290372    -0.000019766913
      14        0.000671270190     0.003095204742     0.001666229778
      15        0.000239822186     0.002879442028     0.000282809066
      16        0.000020366703    -0.000033374764    -0.000016406019
      17       -0.000440947720    -0.001786807307    -0.001187884353
      18        0.000001214681     0.000014279003    -0.000014093337
      19       -0.000006211844    -0.000000096181    -0.000000761273
      20       -0.000013719533     0.000039515976     0.000014826741
      21       -0.000008764631    -0.000033023376     0.000017818289
      22        0.000010717335    -0.000004626571    -0.000003814519
      23        0.000004738400     0.000003404199     0.000015654607
      24       -0.000013731316    -0.000011299613     0.000006447068
      25        0.000026003395     0.000022560280    -0.000016882088
      26        0.000008582367     0.000011665577    -0.000012590276
      27        0.000008614025    -0.000005407775     0.000014112381
      28       -0.000008336760     0.000006198282    -0.000003163382
      29       -0.000004573956    -0.000012210209    -0.000005634634

  **** Optimization is complete! (in 6 steps) ****
    Final optimized geometry and variables:
    Molecular point group: c1

    Geometry (in Angstrom), charge = 0, multiplicity = 1:

    O            3.186393242027     0.688672504313    -0.557813063344
    C            2.694800680054    -0.235264345330    -0.004968190908
    C            1.247912166265    -0.345186435327     0.403347964207
    O            3.372117901179    -1.320672077725     0.333097538510
    C            0.418884605138     0.878800135406     0.034636311819
    H            0.861342248537    -1.249425709162    -0.051119891566
    H            1.230742900592    -0.520472006751     1.474467234593
    C           -1.026980833136     0.816450185730     0.528317736235
    H            0.434010320163     1.009989652696    -1.041786893304
    H            0.897672069807     1.757649243101     0.448738713631
    C           -1.882958086667    -0.281223868362    -0.108435601325
    H           -1.488757236730     1.779403853391     0.333152697290
    H           -1.035233400680     0.692816731076     1.608884713457
    C           -3.364467697964    -0.191498949788     0.285798954749
    H           -1.793927915498    -0.196568853155    -1.188471101830
    H           -1.493167639055    -1.254599772977     0.165899666216
    C           -4.204611589766     0.662897096661    -0.661816888448
    H           -3.449368519185     0.193619029224     1.298501609469
    H           -3.792876278366    -1.189393368739     0.308608959333
    C           -5.659625781289     0.787898613300    -0.223057646043
    H           -3.770205333287     1.655130012587    -0.746430349622
    H           -4.163797543486     0.227741775554    -1.656203818703
    H           -6.231170446837     1.386868071650    -0.922725023642
    H           -5.735706890814     1.256493438945     0.752498679202
    H           -6.133265303904    -0.186135756110    -0.157804506484
    C            4.747317398021    -1.354374574114     0.009655705574
    H            4.890306974043    -1.273147758333    -1.057661710207
    H            5.112912730363    -2.304963528565     0.362671099539
    H            5.273938582341    -0.547880674183     0.497986847785

  Mulliken Charges: (a.u.)
   Center  Symbol    Alpha    Beta     Spin     Total
       1     O     4.19696  4.19696  0.00000 -0.39393
       2     C     2.80519  2.80519  0.00000  0.38963
       3     C     3.10186  3.10186  0.00000 -0.20371
       4     O     4.14718  4.14718  0.00000 -0.29436
       5     C     3.09275  3.09275  0.00000 -0.18551
       6     H     0.43915  0.43915  0.00000  0.12171
       7     H     0.43980  0.43980  0.00000  0.12040
       8     C     3.10222  3.10222  0.00000 -0.20445
       9     H     0.44590  0.44590  0.00000  0.10821
      10     H     0.43973  0.43973  0.00000  0.12053
      11     C     3.10530  3.10530  0.00000 -0.21061
      12     H     0.44422  0.44422  0.00000  0.11157
      13     H     0.45376  0.45376  0.00000  0.09248
      14     C     3.09490  3.09490  0.00000 -0.18981
      15     H     0.45356  0.45356  0.00000  0.09289
      16     H     0.44466  0.44466  0.00000  0.11068
      17     C     3.08074  3.08074  0.00000 -0.16148
      18     H     0.45450  0.45450  0.00000  0.09100
      19     H     0.44815  0.44815  0.00000  0.10370
      20     C     3.15093  3.15093  0.00000 -0.30186
      21     H     0.45447  0.45447  0.00000  0.09105
      22     H     0.45408  0.45408  0.00000  0.09184
      23     H     0.44822  0.44822  0.00000  0.10357
      24     H     0.45478  0.45478  0.00000  0.09044
      25     H     0.45502  0.45502  0.00000  0.08996
      26     C     3.03810  3.03810  0.00000 -0.07619
      27     H     0.45436  0.45436  0.00000  0.09129
      28     H     0.44527  0.44527  0.00000  0.10945
      29     H     0.45425  0.45425  0.00000  0.09151

   Total alpha = 44.00000, Total beta = 44.00000, Total charge =  0.00000

*** Psi4 exiting successfully. Buy a developer a beer!
