  ==> Input File <==

--------------------------------------------------------------------------
set {
	reference rhf
	basis 6-31G*
}

set_num_threads( 4 )
memory 2 gb

molecule MOL {
0 1

H	 2.118796	 0.281122	 -0.982680
O	 2.064459	 -0.086912	 -0.111827
C	 0.745630	 0.005118	 0.354752
H	 0.739005	 0.037656	 1.444976
C	 -0.064159	 -1.194875	 -0.122754
C	 -0.046302	 1.193543	 -0.190431
H	 0.197384	 -1.376065	 -1.160690
H	 0.162855	 -2.097978	 0.431858
C	 -1.535782	 -0.752177	 0.006642
H	 0.154512	 1.271315	 -1.255561
H	 0.226209	 2.140461	 0.267302
C	 -1.509193	 0.801505	 0.065617
H	 -2.127797	 -1.112194	 -0.826847
H	 -1.986849	 -1.158408	 0.905561
H	 -2.183670	 1.254107	 -0.651985
H	 -1.821727	 1.144320	 1.047089

	symmetry c1
}
set optking {
	frozen_dihedral = ("
		1 2 3 6
	")
}

ee = optimize('scf')
oeprop('DIPOLE', 'QUADRUPOLE', 'MULLIKEN_CHARGES')
f=open( 'psi4out.xyz', 'w' )
f.write( "16  " )
f.write( str(ee) + "\n" )
f.write( MOL.save_string_xyz() )
f.close()
--------------------------------------------------------------------------

    Molecular point group: c1
  Charge       = 0
  Multiplicity = 1
  Basis Set: 6-31G*
  Basis Set:
  @DF-RHF Final Energy:  -270.01159443621003
    Total Energy =                       -270.0115944362099754
    Molecular point group: c1
  Basis Set: 6-31G*
  Basis Set:
  Basis Set: 6-31G*
  Basis Set:
  @DF-RHF Final Energy:  -270.01290667326691
    Total Energy =                       -270.0129066732670253
  Basis Set: 6-31G*
  Basis Set:
  Basis Set: 6-31G*
  Basis Set:
  @DF-RHF Final Energy:  -270.01315222828811
    Total Energy =                       -270.0131522282881633
  Basis Set: 6-31G*
  Basis Set:
  Basis Set: 6-31G*
  Basis Set:
  @DF-RHF Final Energy:  -270.01316059412346
    Total Energy =                       -270.0131605941233488
  Basis Set: 6-31G*
  Basis Set:
  Basis Set: 6-31G*
  Basis Set:
  @DF-RHF Final Energy:  -270.01316415399356
    Total Energy =                       -270.0131641539935572
  Basis Set: 6-31G*
  Basis Set:
  Charge       = 0
  Multiplicity = 1
  Basis Set: 6-31G*
  Basis Set:

    Orbital Energies (a.u.)
    -----------------------

    Doubly Occupied:

       1A    -20.550980     2A    -11.268893     3A    -11.220433
       4A    -11.219007     5A    -11.217527     6A    -11.209665
       7A     -1.360646     8A     -1.115484     9A     -0.968999
      10A     -0.948879    11A     -0.803478    12A     -0.781855
      13A     -0.680535    14A     -0.663653    15A     -0.607103
      16A     -0.591262    17A     -0.577465    18A     -0.542454
      19A     -0.503816    20A     -0.484992    21A     -0.473277
      22A     -0.460914    23A     -0.452561    24A     -0.412317

  @DF-RHF Final Energy:  -270.01316493991783

   => Energetics <=

    Nuclear Repulsion Energy =            255.0175620723695431
    One-Electron Energy =                -871.8290626412410802
    Two-Electron Energy =                 346.7983356289536232
    DFT Exchange-Correlation Energy =       0.0000000000000000
    Empirical Dispersion Energy =           0.0000000000000000
    PCM Polarization Energy =               0.0000000000000000
    EFP Energy =                            0.0000000000000000
    Total Energy =                       -270.0131649399179423
    Molecular point group: c1
  Basis Set: 6-31G*
  Basis Set:

  -Total Gradient:
     Atom            X                  Y                   Z
    ------   -----------------  -----------------  -----------------
       1        0.000315749747     0.001790458713     0.000899741268
       2       -0.000618320033    -0.002538121585    -0.001623998834
       3        0.000600549799     0.001441124570     0.001729520374
       4       -0.000016480853    -0.000003161521     0.000027428133
       5        0.000068931072     0.000026481370     0.000005604930
       6       -0.000344895546    -0.000700085883    -0.001071696636
       7       -0.000004144896    -0.000026899839     0.000012687056
       8        0.000001863890     0.000009766122     0.000024350082
       9       -0.000022738516     0.000004090342     0.000020387133
      10        0.000022132779    -0.000011884925     0.000007129125
      11       -0.000001063318     0.000011775810    -0.000005167876
      12        0.000011244876     0.000011186094    -0.000013201869
      13        0.000015730247     0.000011725611    -0.000033409808
      14       -0.000030966758    -0.000022863189    -0.000030985800
      15       -0.000019287776    -0.000000423830     0.000034721299
      16        0.000021695284    -0.000003167860     0.000016891424

  **** Optimization is complete! (in 6 steps) ****
    Final optimized geometry and variables:
    Molecular point group: c1

    Geometry (in Angstrom), charge = 0, multiplicity = 1:

    H            2.196438881773     0.351526565834    -0.898514899577
    O            2.096154158520    -0.053216815109    -0.048508533207
    C            0.750635754989    -0.004193597312     0.341926879312
    H            0.756694595170     0.026375637070     1.426676988387
    C           -0.077759812425    -1.201256627468    -0.130664852966
    C           -0.042559892910     1.187469668354    -0.193965329306
    H            0.155406453981    -1.383382103801    -1.177123427918
    H            0.156690182091    -2.109575380228     0.412453475507
    C           -1.542860370896    -0.751349081434     0.031351899156
    H            0.135480130924     1.271446370968    -1.266368485882
    H            0.245664396066     2.129770293837     0.259259013383
    C           -1.505559610406     0.803473435754     0.072377916984
    H           -2.161473252335    -1.117260611965    -0.780043587613
    H           -1.970210608013    -1.143464632508     0.947850097501
    H           -2.181239020858     1.251985826036    -0.646528087557
    H           -1.808990142583     1.160623156889     1.051162578915

  Mulliken Charges: (a.u.)
   Center  Symbol    Alpha    Beta     Spin     Total
       1     H     0.28249  0.28249  0.00000  0.43502
       2     O     4.37878  4.37878  0.00000 -0.75757
       3     C     2.90235  2.90235  0.00000  0.19529
       4     H     0.41837  0.41837  0.00000  0.16325
       5     C     3.16681  3.16681  0.00000 -0.33362
       6     C     3.17965  3.17965  0.00000 -0.35929
       7     H     0.42320  0.42320  0.00000  0.15360
       8     H     0.41166  0.41166  0.00000  0.17668
       9     C     3.16987  3.16987  0.00000 -0.33974
      10     H     0.42788  0.42788  0.00000  0.14423
      11     H     0.41075  0.41075  0.00000  0.17851
      12     C     3.16812  3.16812  0.00000 -0.33625
      13     H     0.41486  0.41486  0.00000  0.17029
      14     H     0.41564  0.41564  0.00000  0.16872
      15     H     0.41401  0.41401  0.00000  0.17199
      16     H     0.41556  0.41556  0.00000  0.16888

   Total alpha = 24.00000, Total beta = 24.00000, Total charge = -0.00000
