  ==> Input File <==

--------------------------------------------------------------------------
set {
	reference rhf
	basis 6-31G*
}

set_num_threads( 4 )
memory 2 gb

molecule MOL {
0 1

H	 -3.650283	 0.221984	 0.000000
C	 -2.577024	 0.154109	 0.000000
C	 -1.960329	 -1.089307	 0.000000
C	 -1.811733	 1.307557	 0.000000
H	 -2.554473	 -1.985285	 0.000000
C	 -0.581547	 -1.175855	 0.000000
H	 -2.287118	 2.271701	 0.000000
C	 -0.428719	 1.219221	 0.000000
H	 -0.090826	 -2.129898	 0.000000
C	 0.198341	 -0.021559	 0.000000
H	 0.149947	 2.124040	 0.000000
C	 1.691355	 -0.173192	 0.000000
C	 2.357215	 -0.905874	 1.146015
O	 2.347841	 0.277619	 -0.891723
H	 2.149550	 -0.416066	 2.091924
H	 3.423941	 -0.914520	 0.974226
H	 1.996102	 -1.926952	 1.215126

	symmetry c1
}
set optking {
	frozen_dihedral = ("
		13 12 10 8
	")
}

ee = optimize('scf')
oeprop('DIPOLE', 'QUADRUPOLE', 'MULLIKEN_CHARGES')
f=open( 'psi4out.xyz', 'w' )
f.write( "17  " )
f.write( str(ee) + "\n" )
f.write( MOL.save_string_xyz() )
f.close()
--------------------------------------------------------------------------

    Molecular point group: c1
  Charge       = 0
  Multiplicity = 1
  Basis Set: 6-31G*
  Basis Set:
  @DF-RHF Final Energy:  -382.46769622616989
    Total Energy =                       -382.4676962261703466
    Molecular point group: c1
  Basis Set: 6-31G*
  Basis Set:
  Basis Set: 6-31G*
  Basis Set:
  @DF-RHF Final Energy:  -382.46744656774456
    Total Energy =                       -382.4674465677442186
  Basis Set: 6-31G*
  Basis Set:
  Basis Set: 6-31G*
  Basis Set:
  @DF-RHF Final Energy:  -382.46861115204308
    Total Energy =                       -382.4686111520435361
  Basis Set: 6-31G*
  Basis Set:
  Basis Set: 6-31G*
  Basis Set:
  @DF-RHF Final Energy:  -382.46925159216363
    Total Energy =                       -382.4692515921635732
  Basis Set: 6-31G*
  Basis Set:
  Basis Set: 6-31G*
  Basis Set:
  @DF-RHF Final Energy:  -382.46926908628859
    Total Energy =                       -382.4692690862884774
  Basis Set: 6-31G*
  Basis Set:
  Basis Set: 6-31G*
  Basis Set:
  @DF-RHF Final Energy:  -382.46927766733211
    Total Energy =                       -382.4692776673325625
  Basis Set: 6-31G*
  Basis Set:
  Charge       = 0
  Multiplicity = 1
  Basis Set: 6-31G*
  Basis Set:

    Orbital Energies (a.u.)
    -----------------------

    Doubly Occupied:

       1A    -20.554709     2A    -11.333055     3A    -11.246850
       4A    -11.245659     5A    -11.242565     6A    -11.242302
       7A    -11.241037     8A    -11.239702     9A    -11.230981
      10A     -1.400041    11A     -1.166092    12A     -1.050486
      13A     -1.026293    14A     -0.997661    15A     -0.859900
      16A     -0.837150    17A     -0.761180    18A     -0.704148
      19A     -0.660912    20A     -0.644717    21A     -0.624018
      22A     -0.619203    23A     -0.599817    24A     -0.589420
      25A     -0.559939    26A     -0.524445    27A     -0.513810
      28A     -0.503469    29A     -0.490898    30A     -0.409918
      31A     -0.344177    32A     -0.342042

  @DF-RHF Final Energy:  -382.46927923864399

   => Energetics <=

    Nuclear Repulsion Energy =            402.9979213461619452
    One-Electron Energy =               -1317.3212086802084286
    Two-Electron Energy =                 531.8540080954028326
    DFT Exchange-Correlation Energy =       0.0000000000000000
    Empirical Dispersion Energy =           0.0000000000000000
    PCM Polarization Energy =               0.0000000000000000
    EFP Energy =                            0.0000000000000000
    Total Energy =                       -382.4692792386435940
    Molecular point group: c1
  Basis Set: 6-31G*
  Basis Set:

  -Total Gradient:
     Atom            X                  Y                   Z
    ------   -----------------  -----------------  -----------------
       1       -0.000005830150    -0.000012004016    -0.000002316096
       2        0.000005938268    -0.000098042503     0.000045273738
       3       -0.000055886218     0.000063430820    -0.000065499451
       4        0.000092777184     0.000083279917    -0.000004446506
       5       -0.000005232140     0.000002760594     0.000001189817
       6       -0.000018565084     0.000042914332     0.000069300135
       7       -0.000002663353    -0.000009061556    -0.000011978385
       8       -0.000142940350     0.000003666504     0.004202599104
       9        0.000026553418     0.000025156632    -0.000022857697
      10        0.000212306634     0.001396745949    -0.005133004619
      11       -0.000010017233    -0.000000156678     0.000002506983
      12       -0.000268953463    -0.004811173991    -0.001098360026
      13        0.000126948569     0.003365459438     0.002047966014
      14        0.000013876385     0.000001790376     0.000014375057
      15        0.000023017900    -0.000027014732    -0.000012349772
      16        0.000010125844    -0.000009123244     0.000003520259
      17       -0.000001456215    -0.000018627840    -0.000035918555

  **** Optimization is complete! (in 7 steps) ****
    Final optimized geometry and variables:
    Molecular point group: c1

    Geometry (in Angstrom), charge = 0, multiplicity = 1:

    H           -3.639455813320     0.286791216529     0.006901214881
    C           -2.567955379606     0.199206813686    -0.013162832125
    C           -1.975262668090    -1.052608310317    -0.031643573221
    C           -1.778239828001     1.338596127792    -0.018744273706
    H           -2.584680062603    -1.938363227404    -0.030747412193
    C           -0.594555103256    -1.165572855542    -0.042180350754
    H           -2.235497991465     2.311468773989    -0.000046480261
    C           -0.399252745700     1.226238774557    -0.054071868589
    H           -0.143132050785    -2.142077380427    -0.046204688130
    C            0.200650533264    -0.027252614439    -0.072455116318
    H            0.216423195605     2.106782838575    -0.077451302340
    C            1.702983818584    -0.107674653502    -0.054996724489
    C            2.345445327215    -0.839921840339     1.102430374701
    O            2.356887107710     0.473568910263    -0.866348596331
    H            2.101980697565    -0.320521669879     2.024594300926
    H            3.418179889596    -0.859152425409     0.968431642957
    H            1.969225342385    -1.852917123720     1.197947002621

  Mulliken Charges: (a.u.)
   Center  Symbol    Alpha    Beta     Spin     Total
       1     H     0.39625  0.39625  0.00000  0.20751
       2     C     3.09681  3.09681  0.00000 -0.19361
       3     C     3.10037  3.10037  0.00000 -0.20074
       4     C     3.10018  3.10018  0.00000 -0.20035
       5     H     0.39629  0.39629  0.00000  0.20743
       6     C     3.10455  3.10455  0.00000 -0.20909
       7     H     0.39562  0.39562  0.00000  0.20876
       8     C     3.09871  3.09871  0.00000 -0.19741
       9     H     0.39555  0.39555  0.00000  0.20890
      10     C     3.03373  3.03373  0.00000 -0.06747
      11     H     0.38614  0.38614  0.00000  0.22773
      12     C     2.74626  2.74626  0.00000  0.50748
      13     C     3.28631  3.28631  0.00000 -0.57262
      14     O     4.25490  4.25490  0.00000 -0.50981
      15     H     0.40231  0.40231  0.00000  0.19537
      16     H     0.39714  0.39714  0.00000  0.20572
      17     H     0.40889  0.40889  0.00000  0.18222

   Total alpha = 32.00000, Total beta = 32.00000, Total charge =  0.00000
