  ==> Input File <==

--------------------------------------------------------------------------
set {
	reference rhf
	basis 6-31G*
}

set_num_threads( 4 )
memory 2 gb

molecule MOL {
0 1

H	 2.332609	 0.878551	 -1.051851
C	 2.357710	 0.000000	 -0.417167
C	 1.175432	 0.000000	 0.532082
H	 3.291263	 0.000000	 0.136880
H	 2.332609	 -0.878551	 -1.051851
O	 0.000000	 0.000000	 -0.221444
H	 1.206604	 0.877321	 1.177902
H	 1.206604	 -0.877321	 1.177902
C	 -1.175432	 0.000000	 0.532082
C	 -1.093802	 1.116705	 1.554413
H	 -1.302052	 -0.961652	 1.029012
H	 -2.037839	 0.142897	 -0.118750
H	 -0.242314	 0.968295	 2.208819
H	 -1.994469	 1.145761	 2.159760
H	 -0.979133	 2.074393	 1.059448

	symmetry c1
}
set optking {
	frozen_dihedral = ("
		11 9 6 3
	")
}

ee = optimize('scf')
oeprop('DIPOLE', 'QUADRUPOLE', 'MULLIKEN_CHARGES')
f=open( 'psi4out.xyz', 'w' )
f.write( "15  " )
f.write( str(ee) + "\n" )
f.write( MOL.save_string_xyz() )
f.close()
--------------------------------------------------------------------------

    Molecular point group: c1
  Charge       = 0
  Multiplicity = 1
  Basis Set: 6-31G*
  Basis Set:
  @DF-RHF Final Energy:  -232.13223247940874
    Total Energy =                       -232.1322324794087422
    Molecular point group: c1
  Basis Set: 6-31G*
  Basis Set:
  Basis Set: 6-31G*
  Basis Set:
  @DF-RHF Final Energy:  -232.13276899851633
    Total Energy =                       -232.1327689985163261
  Basis Set: 6-31G*
  Basis Set:
  Basis Set: 6-31G*
  Basis Set:
  @DF-RHF Final Energy:  -232.13864365302987
    Total Energy =                       -232.1386436530298170
  Basis Set: 6-31G*
  Basis Set:
  Basis Set: 6-31G*
  Basis Set:
  @DF-RHF Final Energy:  -232.14045650219074
    Total Energy =                       -232.1404565021908866
  Basis Set: 6-31G*
  Basis Set:
  Basis Set: 6-31G*
  Basis Set:
  @DF-RHF Final Energy:  -232.14080361734065
    Total Energy =                       -232.1408036173406231
  Basis Set: 6-31G*
  Basis Set:
  Basis Set: 6-31G*
  Basis Set:
  @DF-RHF Final Energy:  -232.14087600805075
    Total Energy =                       -232.1408760080507818
  Basis Set: 6-31G*
  Basis Set:
  Basis Set: 6-31G*
  Basis Set:
  @DF-RHF Final Energy:  -232.14088207792798
    Total Energy =                       -232.1408820779279836
  Basis Set: 6-31G*
  Basis Set:
  Charge       = 0
  Multiplicity = 1
  Basis Set: 6-31G*
  Basis Set:

    Orbital Energies (a.u.)
    -----------------------

    Doubly Occupied:

       1A    -20.549489     2A    -11.268347     3A    -11.267041
       4A    -11.213833     5A    -11.207800     6A     -1.373650
       7A     -1.040006     8A     -0.988689     9A     -0.868021
      10A     -0.804847    11A     -0.673991    12A     -0.655136
      13A     -0.630709    14A     -0.587410    15A     -0.547569
      16A     -0.539330    17A     -0.524752    18A     -0.504122
      19A     -0.489473    20A     -0.452427    21A     -0.408021

  @DF-RHF Final Energy:  -232.14088295679045

   => Energetics <=

    Nuclear Repulsion Energy =            193.1053957484830903
    One-Electron Energy =                -697.3032346393731586
    Two-Electron Energy =                 272.0569559340997330
    DFT Exchange-Correlation Energy =       0.0000000000000000
    Empirical Dispersion Energy =           0.0000000000000000
    PCM Polarization Energy =               0.0000000000000000
    EFP Energy =                            0.0000000000000000
    Total Energy =                       -232.1408829567903354
    Molecular point group: c1
  Basis Set: 6-31G*
  Basis Set:

  -Total Gradient:
     Atom            X                  Y                   Z
    ------   -----------------  -----------------  -----------------
       1       -0.000003873661    -0.000000617514     0.000003997376
       2        0.000006965735    -0.000008028627     0.000012171949
       3       -0.000000762807     0.002715264803     0.000199479344
       4        0.000008008005    -0.000001947982    -0.000003045231
       5        0.000000939904     0.000001243125    -0.000000340492
       6       -0.000362785272    -0.004126648828    -0.001028236635
       7        0.000010179832    -0.000003253195     0.000008786763
       8       -0.000009450488    -0.000002645192    -0.000006288022
       9        0.002059870730     0.002338142586     0.003433922082
      10       -0.000012587006    -0.000015309434     0.000006898972
      11       -0.001682669607    -0.000888838486    -0.002647433209
      12       -0.000024567344     0.000002701190     0.000040527967
      13        0.000007881201    -0.000008820092     0.000001627618
      14        0.000006457831     0.000000549882    -0.000008961451
      15       -0.000003607052    -0.000001792236    -0.000013107031

  **** Optimization is complete! (in 8 steps) ****
    Final optimized geometry and variables:
    Molecular point group: c1

    Geometry (in Angstrom), charge = 0, multiplicity = 1:

    H            2.124523363430     0.481069363697    -1.601424474200
    C            2.119658043372    -0.348098647841    -0.902823603588
    C            0.994503279353    -0.183025174379     0.100751188994
    H            3.080313256728    -0.379614148679    -0.397715380836
    H            1.993590719724    -1.265696054676    -1.466139667913
    O           -0.212076204582    -0.131621524497    -0.603646082184
    H            1.142485749060     0.724761398724     0.679611039594
    H            0.987463391336    -1.018707056916     0.801088342948
    C           -1.389323057466    -0.200604191556     0.150164070543
    C           -1.520610055162     0.853876644807     1.241620804778
    H           -1.504535305524    -1.202536589528     0.563637304459
    H           -2.189272029748    -0.069236968130    -0.568093456209
    H           -0.815761012532     0.704221076783     2.051977287229
    H           -2.519743446635     0.814025409546     1.664735439972
    H           -1.364971729216     1.846239854695     0.831019701870

  Mulliken Charges: (a.u.)
   Center  Symbol    Alpha    Beta     Spin     Total
       1     H     0.41330  0.41330  0.00000  0.17340
       2     C     3.24299  3.24299  0.00000 -0.48598
       3     C     2.98995  2.98995  0.00000  0.02010
       4     H     0.42325  0.42325  0.00000  0.15351
       5     H     0.41412  0.41412  0.00000  0.17176
       6     O     4.31080  4.31080  0.00000 -0.62160
       7     H     0.42909  0.42909  0.00000  0.14183
       8     H     0.43391  0.43391  0.00000  0.13217
       9     C     2.98696  2.98696  0.00000  0.02607
      10     C     3.26017  3.26017  0.00000 -0.52034
      11     H     0.43107  0.43107  0.00000  0.13785
      12     H     0.41556  0.41556  0.00000  0.16888
      13     H     0.41798  0.41798  0.00000  0.16404
      14     H     0.41784  0.41784  0.00000  0.16433
      15     H     0.41301  0.41301  0.00000  0.17398

   Total alpha = 21.00000, Total beta = 21.00000, Total charge =  0.00000
