  ==> Input File <==

--------------------------------------------------------------------------
set {
	reference rhf
	basis 6-31G*
}

set_num_threads( 1 )
memory 2 gb

molecule MOL {
0 1

O	 1.214711	 1.306902	 -0.000018
C	 1.122059	 0.121804	 -0.000188
C	 -0.170150	 -0.657997	 -0.000612
O	 2.172624	 -0.688929	 0.000216
C	 -1.412532	 0.227344	 -0.000452
H	 -0.153702	 -1.313099	 -0.867402
H	 -0.153924	 -1.313811	 0.865644
C	 -2.376576	 -0.123876	 1.133845
H	 -1.919071	 0.134240	 -0.956095
H	 -1.111547	 1.267182	 0.081091
C	 -3.623590	 0.759238	 1.142206
H	 -2.674360	 -1.166952	 1.047869
H	 -1.863234	 -0.031461	 2.088838
H	 -4.177835	 0.662754	 0.213143
H	 -4.290159	 0.489487	 1.955345
H	 -3.360956	 1.806269	 1.262169
C	 3.452279	 -0.082609	 0.000533
H	 3.583069	 0.529321	 -0.880332
H	 4.163299	 -0.894027	 0.001117
H	 3.582335	 0.529955	 0.881077

	symmetry c1
}
set optking {
	frozen_dihedral = ("
		9 5 8 12,
		1 2 3 6,
		1 2 4 17
	")
}

ee = energy('scf')
oeprop('DIPOLE', 'QUADRUPOLE', 'MULLIKEN_CHARGES')
f=open( 'psi4out.xyz', 'w' )
f.write( "20  " )
f.write( str(ee) + "\n" )
f.write( MOL.save_string_xyz() )
f.close()
--------------------------------------------------------------------------

    Molecular point group: c1

    Geometry (in Angstrom), charge = 0, multiplicity = 1:

       Center              X                  Y                   Z               Mass
    ------------   -----------------  -----------------  -----------------  -----------------
           O          1.131698625998     1.190463565197    -0.284675968981    15.994914619560
           C          1.039046625998     0.005365565197    -0.284845968981    12.000000000000
           C         -0.253162374002    -0.774435434803    -0.285269968981    12.000000000000
           O          2.089611625998    -0.805367434803    -0.284441968981    15.994914619560
           C         -1.495544374002     0.110905565197    -0.285109968981    12.000000000000
           H         -0.236714374002    -1.429537434803    -1.152059968981     1.007825032070
           H         -0.236936374002    -1.430249434803     0.580986031019     1.007825032070
           C         -2.459588374002    -0.240314434803     0.849187031019    12.000000000000
           H         -2.002083374002     0.017801565197    -1.240752968981     1.007825032070
           H         -1.194559374002     1.150743565197    -0.203566968981     1.007825032070
           C         -3.706602374002     0.642799565197     0.857548031019    12.000000000000
           H         -2.757372374002    -1.283390434803     0.763211031019     1.007825032070
           H         -1.946246374002    -0.147899434803     1.804180031019     1.007825032070
           H         -4.260847374002     0.546315565197    -0.071514968981     1.007825032070
           H         -4.373171374002     0.373048565197     1.670687031019     1.007825032070
           H         -3.443968374002     1.689830565197     0.977511031019     1.007825032070
           C          3.369266625998    -0.199047434803    -0.284124968981    12.000000000000
           H          3.500056625998     0.412882565197    -1.164989968981     1.007825032070
           H          4.080286625998    -1.010465434803    -0.283540968981     1.007825032070
           H          3.499322625998     0.413516565197     0.596419031019     1.007825032070

  Charge       = 0
  Multiplicity = 1
  Basis Set: 6-31G*
  Basis Set:

    Orbital Energies (a.u.)
    -----------------------

    Doubly Occupied:

       1A    -20.604487     2A    -20.546537     3A    -11.373149
       4A    -11.281317     5A    -11.234199     6A    -11.218589
       7A    -11.215025     8A    -11.208705     9A     -1.470229
      10A     -1.364061    11A     -1.087526    12A     -1.023276
      13A     -0.968911    14A     -0.884503    15A     -0.804656
      16A     -0.767023    17A     -0.702526    18A     -0.681481
      19A     -0.673280    20A     -0.636397    21A     -0.602949
      22A     -0.591422    23A     -0.578726    24A     -0.545195
      25A     -0.529317    26A     -0.519017    27A     -0.505896
      28A     -0.478481    29A     -0.466491    30A     -0.463696
      31A     -0.457689    32A     -0.439943

  @DF-RHF Final Energy:  -383.93681940634985

   => Energetics <=

    Nuclear Repulsion Energy =            383.2886785688471036
    One-Electron Energy =               -1282.6016528382981505
    Two-Electron Energy =                 515.3761548631014193
    DFT Exchange-Correlation Energy =       0.0000000000000000
    Empirical Dispersion Energy =           0.0000000000000000
    PCM Polarization Energy =               0.0000000000000000
    EFP Energy =                            0.0000000000000000
    Total Energy =                       -383.9368194063496276

  Mulliken Charges: (a.u.)
   Center  Symbol    Alpha    Beta     Spin     Total
       1     O     4.28455  4.28455  0.00000 -0.56910
       2     C     2.61126  2.61126  0.00000  0.77748
       3     C     3.21060  3.21060  0.00000 -0.42120
       4     O     4.30569  4.30569  0.00000 -0.61137
       5     C     3.16126  3.16126  0.00000 -0.32251
       6     H     0.39751  0.39751  0.00000  0.20499
       7     H     0.39785  0.39785  0.00000  0.20429
       8     C     3.15616  3.15616  0.00000 -0.31232
       9     H     0.41917  0.41917  0.00000  0.16165
      10     H     0.39293  0.39293  0.00000  0.21414
      11     C     3.24031  3.24031  0.00000 -0.48063
      12     H     0.42357  0.42357  0.00000  0.15286
      13     H     0.42122  0.42122  0.00000  0.15757
      14     H     0.42147  0.42147  0.00000  0.15706
      15     H     0.41916  0.41916  0.00000  0.16168
      16     H     0.41866  0.41866  0.00000  0.16268
      17     C     3.09227  3.09227  0.00000 -0.18454
      18     H     0.40897  0.40897  0.00000  0.18206
      19     H     0.40836  0.40836  0.00000  0.18327
      20     H     0.40903  0.40903  0.00000  0.18194

   Total alpha = 32.00000, Total beta = 32.00000, Total charge = -0.00000
