  ==> Input File <==

--------------------------------------------------------------------------
set {
	reference rhf
	basis 6-31G*
}

set_num_threads( 4 )
memory 2 gb

molecule MOL {
0 1

O	 3.417126	 0.446047	 -1.007450
C	 2.843464	 0.164689	 -0.000222
C	 1.546494	 -0.624492	 -0.000609
C	 3.377908	 0.581019	 1.354840
C	 0.291004	 0.242674	 0.000989
H	 1.557904	 -1.283758	 -0.867573
H	 1.558622	 -1.285963	 0.864672
C	 -0.994322	 -0.586602	 0.000262
H	 0.309117	 0.896430	 -0.865270
H	 0.309661	 0.894078	 0.869017
C	 -2.259874	 0.272531	 0.000494
H	 -1.004862	 -1.240012	 -0.870939
H	 -1.005220	 -1.241071	 0.870675
C	 -3.549786	 -0.549746	 -0.000374
H	 -2.250389	 0.926680	 -0.869574
H	 -2.250838	 0.925513	 0.871430
C	 -4.809590	 0.315458	 -0.000369
H	 -3.560515	 -1.202009	 -0.871156
H	 -3.561123	 -1.202955	 0.869711
H	 -4.844746	 0.956611	 -0.876632
H	 -5.706986	 -0.295590	 -0.001609
H	 -4.845960	 0.954827	 0.877144
H	 3.557943	 -0.291748	 1.975714
H	 4.299948	 1.131535	 1.229909
H	 2.652831	 1.201356	 1.873568

	symmetry c1
}
set optking {
	frozen_dihedral = ("
		1 2 3 6
	")
}

ee = optimize('scf')
oeprop('DIPOLE', 'QUADRUPOLE', 'MULLIKEN_CHARGES')
f=open( 'psi4out.xyz', 'w' )
f.write( "25  " )
f.write( str(ee) + "\n" )
f.write( MOL.save_string_xyz() )
f.close()
--------------------------------------------------------------------------

    Molecular point group: c1
  Charge       = 0
  Multiplicity = 1
  Basis Set: 6-31G*
  Basis Set:
  @DF-RHF Final Energy:  -387.13362191452029
    Total Energy =                       -387.1336219145205177
    Molecular point group: c1
  Basis Set: 6-31G*
  Basis Set:
  Basis Set: 6-31G*
  Basis Set:
  @DF-RHF Final Energy:  -387.13396263359823
    Total Energy =                       -387.1339626335985713
  Basis Set: 6-31G*
  Basis Set:
  Basis Set: 6-31G*
  Basis Set:
  @DF-RHF Final Energy:  -387.13315850842861
    Total Energy =                       -387.1331585084282096
  Basis Set: 6-31G*
  Basis Set:
  Basis Set: 6-31G*
  Basis Set:
  @DF-RHF Final Energy:  -387.13448435259426
    Total Energy =                       -387.1344843525939723
  Basis Set: 6-31G*
  Basis Set:
  Basis Set: 6-31G*
  Basis Set:
  @DF-RHF Final Energy:  -387.13451213044635
    Total Energy =                       -387.1345121304466375
  Basis Set: 6-31G*
  Basis Set:
  Basis Set: 6-31G*
  Basis Set:
  @DF-RHF Final Energy:  -387.13452480258724
    Total Energy =                       -387.1345248025867249
  Basis Set: 6-31G*
  Basis Set:
  Basis Set: 6-31G*
  Basis Set:
  @DF-RHF Final Energy:  -387.13452676796715
    Total Energy =                       -387.1345267679675999
  Basis Set: 6-31G*
  Basis Set:
  Charge       = 0
  Multiplicity = 1
  Basis Set: 6-31G*
  Basis Set:

    Orbital Energies (a.u.)
    -----------------------

    Doubly Occupied:

       1A    -20.547310     2A    -11.324117     3A    -11.231220
       4A    -11.229068     5A    -11.227785     6A    -11.222846
       7A    -11.219204     8A    -11.218599     9A    -11.211371
      10A     -1.392870    11A     -1.099677    12A     -1.059754
      13A     -1.012474    14A     -0.970849    15A     -0.894624
      16A     -0.818643    17A     -0.796120    18A     -0.732556
      19A     -0.668249    20A     -0.647092    21A     -0.638230
      22A     -0.609430    23A     -0.605743    24A     -0.587700
      25A     -0.567722    26A     -0.557454    27A     -0.541898
      28A     -0.539847    29A     -0.509333    30A     -0.500689
      31A     -0.488661    32A     -0.478093    33A     -0.468527
      34A     -0.467478    35A     -0.453434    36A     -0.395547

  @DF-RHF Final Energy:  -387.13452757366542

   => Energetics <=

    Nuclear Repulsion Energy =            438.9894588075907222
    One-Electron Energy =               -1394.3795439031500791
    Two-Electron Energy =                 568.2555575218938202
    DFT Exchange-Correlation Energy =       0.0000000000000000
    Empirical Dispersion Energy =           0.0000000000000000
    PCM Polarization Energy =               0.0000000000000000
    EFP Energy =                            0.0000000000000000
    Total Energy =                       -387.1345275736655367
    Molecular point group: c1
  Basis Set: 6-31G*
  Basis Set:

  -Total Gradient:
     Atom            X                  Y                   Z
    ------   -----------------  -----------------  -----------------
       1        0.000168637178    -0.000340893168     0.000043040699
       2       -0.000298189685     0.000525847384    -0.000043880458
       3        0.000326404166    -0.000461662483     0.000180393179
       4        0.000003799606     0.000029022323    -0.000001996526
       5       -0.000016314792    -0.000000794401     0.000004158103
       6       -0.000209146068     0.000242813320    -0.000228496387
       7       -0.000002778338     0.000032904977     0.000013765751
       8       -0.000005008360     0.000002546458     0.000038070877
       9       -0.000003457532     0.000006642201    -0.000010787218
      10        0.000020962375    -0.000011169906     0.000012766454
      11        0.000004261237    -0.000007763370    -0.000027723795
      12       -0.000005540081    -0.000000096025     0.000011218743
      13       -0.000017051242    -0.000005074331     0.000015964613
      14        0.000004939886    -0.000004077390    -0.000023806229
      15        0.000005441876     0.000003088727    -0.000008369537
      16       -0.000000366406    -0.000004477406    -0.000003979332
      17        0.000002080304     0.000001986617     0.000017185761
      18       -0.000005322948     0.000004712950    -0.000005551076
      19        0.000005988500    -0.000003965723    -0.000006664006
      20        0.000001438597    -0.000006389608    -0.000000167221
      21        0.000000593699    -0.000000318972     0.000006411884
      22       -0.000001881623     0.000006283203    -0.000000038840
      23        0.000005874101    -0.000009055893    -0.000006147225
      24        0.000009374745     0.000000264336     0.000016145494
      25        0.000005260809    -0.000000373820     0.000008486292

  **** Optimization is complete! (in 8 steps) ****
    Final optimized geometry and variables:
    Molecular point group: c1

    Geometry (in Angstrom), charge = 0, multiplicity = 1:

    O            3.352462017562     0.453990194077    -1.067352104585
    C            2.848751316442     0.131855880104    -0.034592745553
    C            1.584409407503    -0.707465882546    -0.007830262376
    C            3.435425623096     0.550427669911     1.296384744833
    C            0.327999240335     0.178830630048    -0.014276083519
    H            1.588883637475    -1.335197186025    -0.891404987032
    H            1.576824351088    -1.349057845320     0.869394995487
    C           -0.965378116447    -0.637770763343    -0.018935377420
    H            0.359909582289     0.819912458946    -0.890672680176
    H            0.334265006398     0.835814386768     0.853087494324
    C           -2.222998980295     0.232633042189    -0.042280140248
    H           -0.967723030577    -1.298326815977    -0.883626032729
    H           -0.988385048675    -1.281835413787     0.858419095481
    C           -3.519102227483    -0.579964254255    -0.052176602941
    H           -2.197401647693     0.878255301235    -0.918280240179
    H           -2.220651195329     0.893272430054     0.823216711744
    C           -4.771811570762     0.295172904947    -0.071532041909
    H           -3.524886398452    -1.237293274218    -0.918945770746
    H           -3.544872075722    -1.227432415908     0.821788055466
    H           -4.792957667813     0.929920368859    -0.952826579050
    H           -5.673577238172    -0.309149398848    -0.077757338666
    H           -4.812593849053     0.941089924028     0.801022106703
    H            3.853278099155    -0.320223080975     1.795325120123
    H            4.217748064988     1.280264758413     1.140960945068
    H            2.672744086395     0.960235260012     1.951087188368

  Mulliken Charges: (a.u.)
   Center  Symbol    Alpha    Beta     Spin     Total
       1     O     4.26142  4.26142  0.00000 -0.52285
       2     C     2.73718  2.73718  0.00000  0.52564
       3     C     3.20031  3.20031  0.00000 -0.40063
       4     C     3.28960  3.28960  0.00000 -0.57921
       5     C     3.16338  3.16338  0.00000 -0.32676
       6     H     0.40058  0.40058  0.00000  0.19885
       7     H     0.41655  0.41655  0.00000  0.16690
       8     C     3.15179  3.15179  0.00000 -0.30357
       9     H     0.40780  0.40780  0.00000  0.18440
      10     H     0.42041  0.42041  0.00000  0.15918
      11     C     3.15168  3.15168  0.00000 -0.30336
      12     H     0.41974  0.41974  0.00000  0.16052
      13     H     0.42296  0.42296  0.00000  0.15408
      14     C     3.15195  3.15195  0.00000 -0.30390
      15     H     0.42149  0.42149  0.00000  0.15702
      16     H     0.42380  0.42380  0.00000  0.15240
      17     C     3.23955  3.23955  0.00000 -0.47911
      18     H     0.42202  0.42202  0.00000  0.15596
      19     H     0.42306  0.42306  0.00000  0.15388
      20     H     0.42092  0.42092  0.00000  0.15816
      21     H     0.41865  0.41865  0.00000  0.16270
      22     H     0.42169  0.42169  0.00000  0.15662
      23     H     0.40645  0.40645  0.00000  0.18711
      24     H     0.39695  0.39695  0.00000  0.20611
      25     H     0.41007  0.41007  0.00000  0.17986

   Total alpha = 36.00000, Total beta = 36.00000, Total charge =  0.00000
