                              Psi4 1.0.54 Driver

  ==> Input File <==

--------------------------------------------------------------------------
set {
	reference rhf
	basis cc-pvtz
}

set_num_threads( 4 )
memory 2 gb

molecule MOL {
0 1

O	 -1.347808	 -0.041314	 -1.019441
C	 -1.081510	 0.147522	 0.122720
C	 0.327029	 -0.064006	 0.641890
C	 -2.128432	 0.587590	 1.117991
C	 1.349460	 -0.017068	 -0.500215
H	 0.399029	 -1.014606	 1.159950
H	 0.538021	 0.726928	 1.350471
C	 2.779782	 -0.209014	 -0.009215
H	 1.115007	 -0.782959	 -1.233891
H	 1.259071	 0.936707	 -1.006644
H	 3.481860	 -0.160270	 -0.833072
H	 2.903471	 -1.171535	 0.475559
H	 3.052569	 0.559584	 0.705428
H	 -2.109002	 -0.044730	 1.998644
H	 -3.107250	 0.560613	 0.664466
H	 -1.907904	 1.598757	 1.444734

	symmetry c1
}
set optking {
	frozen_dihedral = ("
		4 2 3 5
	")
}

ee,wfn = optimize('scf', return_wfn=True)
oeprop( wfn, 'DIPOLE', 'QUADRUPOLE', 'MULLIKEN_CHARGES')
f=open( 'psi4out.xyz', 'w' )
f.write( "16  " )
f.write( str(ee) + "\n" )
f.write( MOL.save_string_xyz() )
f.close()
--------------------------------------------------------------------------

    Molecular point group: c1
  Charge       = 0
  Multiplicity = 1
  Basis Set: CC-PVTZ
  Basis Set:
  @DF-RHF Final Energy:  -270.12968927639190
    Total Energy =                       -270.1296892763920710
    Molecular point group: c1
  Basis Set: CC-PVTZ
  Basis Set:
  Basis Set: CC-PVTZ
  Basis Set:
  @DF-RHF Final Energy:  -270.13013211189417
    Total Energy =                       -270.1301321118942269
  Basis Set: CC-PVTZ
  Basis Set:
  Basis Set: CC-PVTZ
  Basis Set:
  @DF-RHF Final Energy:  -270.13070464128543
    Total Energy =                       -270.1307046412852060
  Basis Set: CC-PVTZ
  Basis Set:
  Basis Set: CC-PVTZ
  Basis Set:
  @DF-RHF Final Energy:  -270.13085864036128
    Total Energy =                       -270.1308586403611116
  Basis Set: CC-PVTZ
  Basis Set:
  @DF-RHF Final Energy:  -270.13086224373245
    Total Energy =                       -270.1308622437323379
  Basis Set: CC-PVTZ
  Basis Set:
  @DF-RHF Final Energy:  -270.13086745175502
    Total Energy =                       -270.1308674517548525
  Basis Set: CC-PVTZ
  Basis Set:
  Basis Set: CC-PVTZ
  Basis Set:
  @DF-RHF Final Energy:  -270.13087304726400
    Total Energy =                       -270.1308730472640036
  Basis Set: CC-PVTZ
  Basis Set:
  Basis Set: CC-PVTZ
  Basis Set:
  @DF-RHF Final Energy:  -270.13087426207665
    Total Energy =                       -270.1308742620763610
  Basis Set: CC-PVTZ
  Basis Set:
  Charge       = 0
  Multiplicity = 1
  Basis Set: CC-PVTZ
  Basis Set:

    Orbital Energies (a.u.)
    -----------------------

    Doubly Occupied:

       1A    -20.538668     2A    -11.321107     3A    -11.230798
       4A    -11.227346     5A    -11.219038     6A    -11.212443
       7A     -1.399098     8A     -1.078831     9A     -1.016867
      10A     -0.947973    11A     -0.825505    12A     -0.733363
      13A     -0.657665    14A     -0.651264    15A     -0.626455
      16A     -0.600293    17A     -0.568337    18A     -0.561201
      19A     -0.546824    20A     -0.503928    21A     -0.494711
      22A     -0.483650    23A     -0.477259    24A     -0.402704

  @DF-RHF Final Energy:  -270.13087447952051

   => Energetics <=

    Nuclear Repulsion Energy =            237.2211948422730643
    One-Electron Energy =                -836.0534793735441781
    Two-Electron Energy =                 328.7014100517503721
    DFT Exchange-Correlation Energy =       0.0000000000000000
    Empirical Dispersion Energy =           0.0000000000000000
    PCM Polarization Energy =               0.0000000000000000
    EFP Energy =                            0.0000000000000000
    Total Energy =                       -270.1308744795207986
    Molecular point group: c1
  Basis Set: CC-PVTZ
  Basis Set:

  -Total Gradient:
     Atom            X                  Y                   Z
    ------   -----------------  -----------------  -----------------
       1        0.000010895617    -0.000005146712     0.000025201721
       2       -0.000258327514    -0.000909820883     0.000270031381
       3       -0.000018379259    -0.000823837953    -0.000232053115
       4        0.000186461370     0.000909480543    -0.000194482445
       5        0.000080114616     0.000878177248     0.000123109897
       6       -0.000002623476    -0.000008918205     0.000005266007
       7       -0.000003965046    -0.000011812820    -0.000006934783
       8       -0.000000058972    -0.000009160030    -0.000006967996
       9        0.000006455950     0.000004017789     0.000003621537
      10        0.000003652026     0.000004776420    -0.000005411328
      11       -0.000000252271    -0.000000502405    -0.000000519715
      12        0.000001718096     0.000000792108     0.000002983423
      13       -0.000005826983    -0.000000570076    -0.000004690709
      14       -0.000000115055    -0.000015445436     0.000007771122
      15       -0.000003623328    -0.000008128269     0.000000619997
      16        0.000003874230    -0.000003901319     0.000012455007

  **** Optimization is complete! (in 9 steps) ****
    Final optimized geometry and variables:
    Molecular point group: c1

    Geometry (in Angstrom), charge = 0, multiplicity = 1:

    O           -1.381932334617    -0.090117089262    -1.094600459541
    C           -1.082448337787     0.077554059068     0.042130075183
    C            0.335905529882    -0.118557120600     0.540055311257
    C           -2.102203655252     0.503239659986     1.072511055933
    C            1.395949434258    -0.070605230308    -0.552832221223
    H            0.354866866440    -1.081597724938     1.047879620033
    H            0.541392438480     0.621102628504     1.308662836098
    C            2.801700061133    -0.304012560433    -0.010176385258
    H            1.161497156748    -0.809844092418    -1.307423911837
    H            1.349750467186     0.892529573788    -1.049580503850
    H            3.535964715835    -0.259459290208    -0.805635697628
    H            2.884856660791    -1.277909237731     0.461152824359
    H            3.070664999625     0.443642568696     0.728991565560
    H           -2.026268436074    -0.105147582267     1.966691067021
    H           -3.096856127141     0.433681059590     0.659588156382
    H           -1.904757063653     1.529963567026     1.363237630736

  Mulliken Charges: (a.u.)
   Center  Symbol    Alpha    Beta     Spin     Total
       1     O     4.17199  4.17199  0.00000 -0.34397
       2     C     2.86143  2.86143  0.00000  0.27713
       3     C     3.10687  3.10687  0.00000 -0.21374
       4     C     3.15213  3.15213  0.00000 -0.30427
       5     C     3.08046  3.08046  0.00000 -0.16093
       6     H     0.44487  0.44487  0.00000  0.11026
       7     H     0.44652  0.44652  0.00000  0.10696
       8     C     3.14987  3.14987  0.00000 -0.29974
       9     H     0.44183  0.44183  0.00000  0.11634
      10     H     0.45049  0.45049  0.00000  0.09901
      11     H     0.44578  0.44578  0.00000  0.10844
      12     H     0.45554  0.45554  0.00000  0.08892
      13     H     0.45683  0.45683  0.00000  0.08633
      14     H     0.45063  0.45063  0.00000  0.09873
      15     H     0.43593  0.43593  0.00000  0.12813
      16     H     0.44881  0.44881  0.00000  0.10239

   Total alpha = 24.00000, Total beta = 24.00000, Total charge = -0.00000

*** Psi4 exiting successfully. Buy a developer a beer!
