  ==> Input File <==

--------------------------------------------------------------------------
set {
	reference rhf
	basis cc-pvtz
}

set_num_threads( 4 )
memory 2 gb

molecule MOL {
0 1

H	 -3.401682	 -1.036167	 0.000000
O	 -3.113760	 -0.140926	 0.000000
C	 -1.775087	 -0.058754	 0.000000
C	 -1.025922	 -0.217567	 -1.159295
C	 -1.149292	 0.193337	 1.209551
H	 -1.518634	 -0.412919	 -2.093907
C	 0.344367	 -0.123527	 -1.103099
H	 -1.745598	 0.312577	 2.091719
C	 0.223722	 0.284550	 1.248793
H	 0.933657	 -0.244105	 -1.990402
C	 0.986332	 0.128659	 0.101374
H	 0.710271	 0.480094	 2.186637
C	 2.456036	 0.230637	 0.167955
O	 3.188507	 0.112190	 -0.757038
H	 2.856554	 0.431786	 1.167418

	symmetry c1
}
set optking {
	frozen_dihedral = ("
		5 3 2 1
	")
}

ee = optimize('scf')
oeprop('DIPOLE', 'QUADRUPOLE', 'MULLIKEN_CHARGES')
f=open( 'psi4out.xyz', 'w' )
f.write( "15  " )
f.write( str(ee) + "\n" )
f.write( MOL.save_string_xyz() )
f.close()
--------------------------------------------------------------------------

    Molecular point group: c1
  Charge       = 0
  Multiplicity = 1
  Basis Set: CC-PVTZ
  Basis Set:
  @DF-RHF Final Energy:  -418.43608651227953
    Total Energy =                       -418.4360865122791893
    Molecular point group: c1
  Basis Set: CC-PVTZ
  Basis Set:
  Basis Set: CC-PVTZ
  Basis Set:
  @DF-RHF Final Energy:  -418.43683864886350
    Total Energy =                       -418.4368386488638407
  Basis Set: CC-PVTZ
  Basis Set:
  Basis Set: CC-PVTZ
  Basis Set:
  @DF-RHF Final Energy:  -418.43679651006380
    Total Energy =                       -418.4367965100640276
  Basis Set: CC-PVTZ
  Basis Set:
  Basis Set: CC-PVTZ
  Basis Set:
  @DF-RHF Final Energy:  -418.43667191176689
    Total Energy =                       -418.4366719117668936
  Basis Set: CC-PVTZ
  Basis Set:
  Basis Set: CC-PVTZ
  Basis Set:
  @DF-RHF Final Energy:  -418.43691480289164
    Total Energy =                       -418.4369148028910104
  Basis Set: CC-PVTZ
  Basis Set:
  Charge       = 0
  Multiplicity = 1
  Basis Set: CC-PVTZ
  Basis Set:

    Orbital Energies (a.u.)
    -----------------------

    Doubly Occupied:

       1A    -20.587635     2A    -20.550866     3A    -11.326474
       4A    -11.312467     5A    -11.257916     6A    -11.251859
       7A    -11.243465     8A    -11.241007     9A    -11.240914
      10A     -1.416775    11A     -1.406991    12A     -1.175734
      13A     -1.045193    14A     -1.040855    15A     -0.890558
      16A     -0.862022    17A     -0.799917    18A     -0.755931
      19A     -0.711454    20A     -0.676167    21A     -0.651342
      22A     -0.636496    23A     -0.622493    24A     -0.609956
      25A     -0.564958    26A     -0.558640    27A     -0.540962
      28A     -0.502422    29A     -0.487574    30A     -0.425361
      31A     -0.359954    32A     -0.346127

  @DF-RHF Final Energy:  -418.43691585389064

   => Energetics <=

    Nuclear Repulsion Energy =            401.6995689859310801
    One-Electron Energy =               -1366.0720006196715985
    Two-Electron Energy =                 545.9355157798499931
    DFT Exchange-Correlation Energy =       0.0000000000000000
    Empirical Dispersion Energy =           0.0000000000000000
    PCM Polarization Energy =               0.0000000000000000
    EFP Energy =                            0.0000000000000000
    Total Energy =                       -418.4369158538904685
    Molecular point group: c1
  Basis Set: CC-PVTZ
  Basis Set:

  -Total Gradient:
     Atom            X                  Y                   Z
    ------   -----------------  -----------------  -----------------
       1       -0.000069781675     0.000000821238     0.001090782112
       2        0.000013759240    -0.000452022362    -0.001277706261
       3        0.000010142672     0.001252602605    -0.000203823222
       4       -0.000194090485    -0.000046916578     0.000102799431
       5        0.000194490694    -0.000746679488     0.000256177887
       6        0.000003238953     0.000009178693    -0.000005112256
       7        0.000169202045     0.000026093304     0.000124056904
       8        0.000000972084     0.000005224694    -0.000019402400
       9       -0.000124487479    -0.000084059702     0.000106214028
      10       -0.000014626199     0.000001808334    -0.000005297839
      11       -0.000001483754    -0.000003299333    -0.000182258414
      12        0.000021140058     0.000017312442    -0.000007528944
      13        0.000017042781     0.000055429345     0.000019957602
      14       -0.000017178557    -0.000021596931    -0.000003630993
      15       -0.000008340389    -0.000013896262     0.000004772363

  **** Optimization is complete! (in 6 steps) ****
    Final optimized geometry and variables:
    Molecular point group: c1

    Geometry (in Angstrom), charge = 0, multiplicity = 1:

    H           -3.420984269115    -1.062559160018     0.010450784226
    O           -3.126469706232    -0.168135941671     0.008696807093
    C           -1.766694673490    -0.104651085277     0.056313560914
    C           -1.025101286123    -0.259240470309    -1.106138942536
    C           -1.141196718609     0.151588434878     1.259350068734
    H           -1.535099523671    -0.442703849587    -2.031608134258
    C            0.345499618296    -0.162583538835    -1.058013984312
    H           -1.734229989233     0.278030957162     2.143261853004
    C            0.236226555324     0.251767396614     1.297599007352
    H            0.933797159946    -0.278851001261    -1.946436101623
    C            0.987636282268     0.093875830010     0.147247578592
    H            0.727051918129     0.453462286963     2.231786027895
    C            2.461562755568     0.202588383732     0.210420077463
    O            3.189495736887     0.078371034210    -0.715717977841
    H            2.863129964789     0.413266356408     1.207324737847

  Mulliken Charges: (a.u.)
   Center  Symbol    Alpha    Beta     Spin     Total
       1     H     0.38623  0.38623  0.00000  0.22754
       2     O     4.18634  4.18634  0.00000 -0.37267
       3     C     2.86511  2.86511  0.00000  0.26978
       4     C     3.11146  3.11146  0.00000 -0.22293
       5     C     3.10732  3.10732  0.00000 -0.21463
       6     H     0.41401  0.41401  0.00000  0.17197
       7     C     3.07110  3.07110  0.00000 -0.14221
       8     H     0.41374  0.41374  0.00000  0.17252
       9     C     3.07764  3.07764  0.00000 -0.15528
      10     H     0.40674  0.40674  0.00000  0.18651
      11     C     2.99543  2.99543  0.00000  0.00913
      12     H     0.42073  0.42073  0.00000  0.15853
      13     C     2.91008  2.91008  0.00000  0.17985
      14     O     4.17496  4.17496  0.00000 -0.34992
      15     H     0.45910  0.45910  0.00000  0.08180

   Total alpha = 32.00000, Total beta = 32.00000, Total charge =  0.00000
