                              Psi4 1.0.54 Driver

  ==> Input File <==

--------------------------------------------------------------------------
set {
	reference rhf
	basis cc-pvtz
}

set_num_threads( 4 )
memory 2 gb

molecule MOL {
0 1

H	 -3.962769	 -0.414093	 0.841125
C	 -2.913189	 -0.265435	 0.672426
C	 -2.420067	 1.011950	 0.475555
C	 -2.058257	 -1.351106	 0.652549
H	 -3.084250	 1.854160	 0.491118
C	 -1.071237	 1.202179	 0.258837
H	 -2.441669	 -2.341320	 0.805329
C	 -0.707408	 -1.162253	 0.435667
H	 -0.672591	 2.184195	 0.104616
C	 -0.209983	 0.116042	 0.238076
H	 -0.042606	 -2.000890	 0.419665
C	 1.238974	 0.374429	 0.000004
O	 1.968286	 -0.725612	 -0.000027
O	 1.696610	 1.454250	 -0.172443
C	 3.373556	 -0.568203	 0.000011
H	 3.695416	 -0.031588	 -0.879663
H	 3.782700	 -1.565294	 -0.000152
H	 3.695405	 -0.031851	 0.879862

	symmetry c1
}
set optking {
	frozen_dihedral = ("
		10 12 13 15
	")
}

ee,wfn = optimize('scf', return_wfn=True)
oeprop( wfn, 'DIPOLE', 'QUADRUPOLE', 'MULLIKEN_CHARGES')
f=open( 'psi4out.xyz', 'w' )
f.write( "18  " )
f.write( str(ee) + "\n" )
f.write( MOL.save_string_xyz() )
f.close()
--------------------------------------------------------------------------

    Molecular point group: c1
  Charge       = 0
  Multiplicity = 1
  Basis Set: CC-PVTZ
  Basis Set:
  @DF-RHF Final Energy:  -457.50964100807067
    Total Energy =                       -457.5096410080706164
    Molecular point group: c1
  Basis Set: CC-PVTZ
  Basis Set:
  Basis Set: CC-PVTZ
  Basis Set:
  @DF-RHF Final Energy:  -457.50859913259217
    Total Energy =                       -457.5085991325921668
  Basis Set: CC-PVTZ
  Basis Set:
  Basis Set: CC-PVTZ
  Basis Set:
  @DF-RHF Final Energy:  -457.50969198585750
    Total Energy =                       -457.5096919858567617
  Basis Set: CC-PVTZ
  Basis Set:
  Basis Set: CC-PVTZ
  Basis Set:
  @DF-RHF Final Energy:  -457.50970594988559
    Total Energy =                       -457.5097059498858698
  Basis Set: CC-PVTZ
  Basis Set:
  Charge       = 0
  Multiplicity = 1
  Basis Set: CC-PVTZ
  Basis Set:

    Orbital Energies (a.u.)
    -----------------------

    Doubly Occupied:

       1A    -20.600410     2A    -20.534697     3A    -11.371821
       4A    -11.281420     5A    -11.245106     6A    -11.243639
       7A    -11.242838     8A    -11.240192     9A    -11.236179
      10A    -11.235425    11A     -1.476729    12A     -1.368477
      13A     -1.170901    14A     -1.051814    15A     -1.029178
      16A     -0.980395    17A     -0.863474    18A     -0.838613
      19A     -0.781242    20A     -0.745011    21A     -0.687870
      22A     -0.681523    23A     -0.676340    24A     -0.634229
      25A     -0.630193    26A     -0.601452    27A     -0.588265
      28A     -0.564489    29A     -0.532005    30A     -0.520381
      31A     -0.509461    32A     -0.502358    33A     -0.464091
      34A     -0.449402    35A     -0.350341    36A     -0.346375

  @DF-RHF Final Energy:  -457.50970685044820

   => Energetics <=

    Nuclear Repulsion Energy =            494.0652361946141582
    One-Electron Energy =               -1602.5972170703894335
    Two-Electron Energy =                 651.0222740253275333
    DFT Exchange-Correlation Energy =       0.0000000000000000
    Empirical Dispersion Energy =           0.0000000000000000
    PCM Polarization Energy =               0.0000000000000000
    EFP Energy =                            0.0000000000000000
    Total Energy =                       -457.5097068504478557
    Molecular point group: c1
  Basis Set: CC-PVTZ
  Basis Set:

  -Total Gradient:
     Atom            X                  Y                   Z
    ------   -----------------  -----------------  -----------------
       1        0.000000437333    -0.000000287740     0.000000596999
       2       -0.000001338174     0.000022721449    -0.000005787043
       3       -0.000020657256    -0.000017112026     0.000007980231
       4        0.000014151385    -0.000009415835    -0.000001167372
       5       -0.000001633003    -0.000001167417     0.000004388712
       6        0.000005607363    -0.000004099732    -0.000004887117
       7       -0.000005997834     0.000002068745    -0.000001261319
       8       -0.000028819973    -0.000031495127    -0.000004394355
       9       -0.000000243039    -0.000007701254    -0.000000321669
      10        0.000370626574     0.000230051451     0.002327245643
      11       -0.000005604758     0.000012733387     0.000004294859
      12       -0.000534141611    -0.000291347577    -0.002099432862
      13        0.000189853700     0.000189911018    -0.002788746366
      14        0.000034373674    -0.000062386355    -0.000004691089
      15        0.000003475339    -0.000027322653     0.002567283815
      16       -0.000013404107     0.000003039132    -0.000001730617
      17        0.000002367605    -0.000006471415     0.000001655845
      18       -0.000009053212    -0.000001718044    -0.000001026295

  **** Optimization is complete! (in 5 steps) ****
    Final optimized geometry and variables:
    Molecular point group: c1

    Geometry (in Angstrom), charge = 0, multiplicity = 1:

    H           -3.980188774678    -0.427370623861     0.602606119649
    C           -2.930997036694    -0.278507175208     0.431473017557
    C           -2.438314801573     0.999339859602     0.235556010699
    C           -2.076124083540    -1.364052906551     0.407567367667
    H           -3.102519850373     1.841538722640     0.254145534570
    C           -1.090106161209     1.189935545904     0.015762828112
    H           -2.459047692863    -2.354627701077     0.559433450582
    C           -0.725596297011    -1.174749572553     0.188007842994
    H           -0.691907685637     2.172343799627    -0.137456253547
    C           -0.228579205747     0.103890510675    -0.007651257549
    H           -0.060848110419    -2.013407128242     0.169196766568
    C            1.221252799643     0.363578531165    -0.240546909153
    O            1.950447588385    -0.736952329175    -0.253821076009
    O            1.683321864175     1.446600074555    -0.375971960403
    C            3.355580534862    -0.579948560159    -0.250012642769
    H            3.687146951840    -0.077889053317    -1.146193547557
    H            3.764931890362    -1.576109308183    -0.207696066086
    H            3.668746220820    -0.009932842370     0.612049607991

  Mulliken Charges: (a.u.)
   Center  Symbol    Alpha    Beta     Spin     Total
       1     H     0.42027  0.42027  0.00000  0.15947
       2     C     3.06964  3.06964  0.00000 -0.13929
       3     C     3.07555  3.07555  0.00000 -0.15111
       4     C     3.07504  3.07504  0.00000 -0.15008
       5     H     0.42039  0.42039  0.00000  0.15923
       6     C     3.07594  3.07594  0.00000 -0.15187
       7     H     0.42186  0.42186  0.00000  0.15629
       8     C     3.08251  3.08251  0.00000 -0.16501
       9     H     0.40668  0.40668  0.00000  0.18663
      10     C     3.01212  3.01212  0.00000 -0.02425
      11     H     0.41100  0.41100  0.00000  0.17801
      12     C     2.78247  2.78247  0.00000  0.43507
      13     O     4.14900  4.14900  0.00000 -0.29801
      14     O     4.21041  4.21041  0.00000 -0.42081
      15     C     3.03652  3.03652  0.00000 -0.07304
      16     H     0.45066  0.45066  0.00000  0.09868
      17     H     0.44537  0.44537  0.00000  0.10927
      18     H     0.45458  0.45458  0.00000  0.09084

   Total alpha = 36.00000, Total beta = 36.00000, Total charge = -0.00000

*** Psi4 exiting successfully. Buy a developer a beer!
