                              Psi4 1.0.54 Driver

  ==> Input File <==

--------------------------------------------------------------------------
set {
	reference rhf
	basis cc-pvtz
}

set_num_threads( 4 )
memory 2 gb

molecule MOL {
0 1

H	 -2.698799	 -0.000846	 0.036018
C	 -1.694291	 -0.000483	 0.434279
O	 -0.828718	 -0.000608	 -0.655022
H	 -1.576855	 0.881100	 1.056504
H	 -1.576401	 -0.881658	 1.057001
C	 0.557892	 0.000078	 -0.420099
C	 0.900735	 0.101667	 1.061930
C	 1.267640	 -1.165412	 -1.099909
H	 0.889530	 0.912988	 -0.898880
H	 0.351606	 0.914535	 1.521015
H	 1.960215	 0.296492	 1.181478
H	 0.674508	 -0.812327	 1.598604
H	 0.973027	 -1.231216	 -2.140062
H	 2.340477	 -1.016722	 -1.058862
H	 1.051059	 -2.113019	 -0.620666

	symmetry c1
}
set optking {
	frozen_dihedral = ("
		9 6 3 2
	")
}

ee,wfn = optimize('scf', return_wfn=True)
oeprop( wfn, 'DIPOLE', 'QUADRUPOLE', 'MULLIKEN_CHARGES')
f=open( 'psi4out.xyz', 'w' )
f.write( "15  " )
f.write( str(ee) + "\n" )
f.write( MOL.save_string_xyz() )
f.close()
--------------------------------------------------------------------------

    Molecular point group: c1
  Charge       = 0
  Multiplicity = 1
  Basis Set: CC-PVTZ
  Basis Set:
  @DF-RHF Final Energy:  -232.21779081754309
    Total Energy =                       -232.2177908175432322
    Molecular point group: c1
  Basis Set: CC-PVTZ
  Basis Set:
  Basis Set: CC-PVTZ
  Basis Set:
  @DF-RHF Final Energy:  -231.27737371888398
    Total Energy =                       -231.2773737188841210
  Basis Set: CC-PVTZ
  Basis Set:
  Basis Set: CC-PVTZ
  Basis Set:
  @DF-RHF Final Energy:  -231.47218362643247
    Total Energy =                       -231.4721836264324963
  Basis Set: CC-PVTZ
  Basis Set:
  Basis Set: CC-PVTZ
  Basis Set:
  @DF-RHF Final Energy:  -231.80767292340309
    Total Energy =                       -231.8076729234029187
  Basis Set: CC-PVTZ
  Basis Set:
  @DF-RHF Final Energy:  -232.07363396081544
    Total Energy =                       -232.0736339608155845
  @DF-RHF Final Energy:  -232.20095989852763
    Total Energy =                       -232.2009598985275147
  @DF-RHF Final Energy:  -232.21896948576315
    Total Energy =                       -232.2189694857632958
  @DF-RHF Final Energy:  -232.22146813616050
    Total Energy =                       -232.2214681361605244
  Basis Set: CC-PVTZ
  Basis Set:
  @DF-RHF Final Energy:  -232.22172436509803
    Total Energy =                       -232.2217243650981686
  Basis Set: CC-PVTZ
  Basis Set:
  Basis Set: CC-PVTZ
  Basis Set:
  @DF-RHF Final Energy:  -232.22183346242929
    Total Energy =                       -232.2218334624292879
  Basis Set: CC-PVTZ
  Basis Set:
  Basis Set: CC-PVTZ
  Basis Set:
  @DF-RHF Final Energy:  -232.22183850587356
    Total Energy =                       -232.2218385058737908
  Basis Set: CC-PVTZ
  Basis Set:
  Charge       = 0
  Multiplicity = 1
  Basis Set: CC-PVTZ
  Basis Set:

    Orbital Energies (a.u.)
    -----------------------

    Doubly Occupied:

       1A    -20.538646     2A    -11.273258     3A    -11.259837
       4A    -11.213524     5A    -11.203482     6A     -1.369371
       7A     -1.054014     8A     -0.949449     9A     -0.917268
      10A     -0.782459    11A     -0.676768    12A     -0.643785
      13A     -0.632000    14A     -0.585865    15A     -0.554086
      16A     -0.541717    17A     -0.533644    18A     -0.507833
      19A     -0.493207    20A     -0.448717    21A     -0.400653

  @DF-RHF Final Energy:  -232.22183943364340

   => Energetics <=

    Nuclear Repulsion Energy =            198.1225642761793040
    One-Electron Energy =                -707.5296356692131212
    Two-Electron Energy =                 277.1852319593904213
    DFT Exchange-Correlation Energy =       0.0000000000000000
    Empirical Dispersion Energy =           0.0000000000000000
    PCM Polarization Energy =               0.0000000000000000
    EFP Energy =                            0.0000000000000000
    Total Energy =                       -232.2218394336433676
    Molecular point group: c1
  Basis Set: CC-PVTZ
  Basis Set:

  -Total Gradient:
     Atom            X                  Y                   Z
    ------   -----------------  -----------------  -----------------
       1       -0.000002799256     0.000021332907     0.000004424797
       2        0.000350543937    -0.000320969473     0.000139955651
       3       -0.000461314998     0.000397519504    -0.000238172304
       4        0.000035053959     0.000001459669    -0.000022135482
       5       -0.000002996452     0.000010286706    -0.000026306591
       6       -0.000343662787     0.000031538857     0.000450861703
       7        0.000071969863     0.000002994656     0.000012596358
       8        0.000003749140     0.000013681137     0.000060582692
       9        0.000393881318    -0.000146492967    -0.000323149038
      10       -0.000006799748    -0.000013416780    -0.000021193508
      11       -0.000012945650    -0.000011528661    -0.000011912213
      12        0.000009811672     0.000025390636    -0.000016724115
      13       -0.000024799085    -0.000015748822    -0.000027817638
      14       -0.000009971233     0.000011709784     0.000006448241
      15        0.000000279320    -0.000007757152     0.000012541442

  **** Optimization is complete! (in 12 steps) ****
    Final optimized geometry and variables:
    Molecular point group: c1

    Geometry (in Angstrom), charge = 0, multiplicity = 1:

    H           -1.755911759863    -2.104639142708    -0.040224934907
    C           -1.338702735832    -1.209096803048     0.397992003042
    O           -0.527392307043    -0.634960527053    -0.573377550959
    H           -2.160453185941    -0.562705830691     0.690856313623
    H           -0.787979623186    -1.494536110742     1.288624711794
    C            0.213035533065     0.541983108217    -0.323753917776
    C            0.046265077718     1.145520819712     1.065437413443
    C            1.672143818949     0.238983722714    -0.628493597594
    H           -0.138059763207     1.275314868714    -1.044347482112
    H           -0.985736306099     1.386411314689     1.284148933979
    H            0.613545466094     2.067168482657     1.110621218490
    H            0.420515961742     0.490040906312     1.842566964543
    H            1.763343502175    -0.184236568156    -1.620359765527
    H            2.273796380075     1.140142455944    -0.581082664246
    H            2.069364157195    -0.477525953749     0.082559205142

  Mulliken Charges: (a.u.)
   Center  Symbol    Alpha    Beta     Spin     Total
       1     H     0.44194  0.44194  0.00000  0.11612
       2     C     3.03695  3.03695  0.00000 -0.07390
       3     O     4.18957  4.18957  0.00000 -0.37914
       4     H     0.46963  0.46963  0.00000  0.06075
       5     H     0.47107  0.47107  0.00000  0.05785
       6     C     2.92231  2.92231  0.00000  0.15538
       7     C     3.17214  3.17214  0.00000 -0.34428
       8     C     3.13893  3.13893  0.00000 -0.27785
       9     H     0.45552  0.45552  0.00000  0.08897
      10     H     0.44480  0.44480  0.00000  0.11040
      11     H     0.44315  0.44315  0.00000  0.11370
      12     H     0.45068  0.45068  0.00000  0.09863
      13     H     0.44603  0.44603  0.00000  0.10793
      14     H     0.45932  0.45932  0.00000  0.08137
      15     H     0.45796  0.45796  0.00000  0.08408

   Total alpha = 21.00000, Total beta = 21.00000, Total charge =  0.00000

*** Psi4 exiting successfully. Buy a developer a beer!
