                              Psi4 1.0.54 Driver

  ==> Input File <==

--------------------------------------------------------------------------
set {
	reference rhf
	basis cc-pvtz
}

set_num_threads( 4 )
memory 2 gb

molecule MOL {
0 1

H	 2.341977	 -1.816528	 -1.560757
O	 2.686225	 -1.027477	 -1.181793
C	 1.715972	 -0.290286	 -0.612810
C	 2.087879	 0.904787	 -0.013974
C	 0.394147	 -0.681595	 -0.609243
H	 3.121091	 1.190146	 -0.028102
C	 1.138014	 1.700683	 0.584072
H	 0.079239	 -1.597994	 -1.063493
C	 -0.532034	 0.141680	 0.000000
H	 1.434694	 2.622553	 1.044380
C	 -0.195975	 1.329000	 0.600514
N	 -1.937041	 -0.281114	 0.000000
H	 -0.944126	 1.936518	 1.060855
O	 -2.159542	 -1.446261	 0.000000
O	 -2.764978	 0.565773	 0.000000

	symmetry c1
}
set optking {
	frozen_dihedral = ("
		11 9 12 14
	")
}

ee,wfn = optimize('scf', return_wfn=True)
oeprop( wfn, 'DIPOLE', 'QUADRUPOLE', 'MULLIKEN_CHARGES')
f=open( 'psi4out.xyz', 'w' )
f.write( "15  " )
f.write( str(ee) + "\n" )
f.write( MOL.save_string_xyz() )
f.close()
--------------------------------------------------------------------------

    Molecular point group: c1
  Charge       = 0
  Multiplicity = 1
  Basis Set: CC-PVTZ
  Basis Set:
  @DF-RHF Final Energy:  -509.21742777418314
    Total Energy =                       -509.2174277741827382
    Molecular point group: c1
  Basis Set: CC-PVTZ
  Basis Set:
  Basis Set: CC-PVTZ
  Basis Set:
  @DF-RHF Final Energy:  -509.20981517900691
    Total Energy =                       -509.2098151790071370
  Basis Set: CC-PVTZ
  Basis Set:
  Basis Set: CC-PVTZ
  Basis Set:
  @DF-RHF Final Energy:  -509.21652849022570
    Total Energy =                       -509.2165284902257554
  Basis Set: CC-PVTZ
  Basis Set:
  Basis Set: CC-PVTZ
  Basis Set:
  @DF-RHF Final Energy:  -509.21758894251195
    Total Energy =                       -509.2175889425110427
  Basis Set: CC-PVTZ
  Basis Set:
  Basis Set: CC-PVTZ
  Basis Set:
  @DF-RHF Final Energy:  -509.21759197400991
    Total Energy =                       -509.2175919740099062
  Basis Set: CC-PVTZ
  Basis Set:
  Basis Set: CC-PVTZ
  Basis Set:
  @DF-RHF Final Energy:  -509.21762674418966
    Total Energy =                       -509.2176267441894879
  Basis Set: CC-PVTZ
  Basis Set:
  Charge       = 0
  Multiplicity = 1
  Basis Set: CC-PVTZ
  Basis Set:

    Orbital Energies (a.u.)
    -----------------------

    Doubly Occupied:

       1A    -20.609043     2A    -20.596245     3A    -20.595763
       4A    -15.850303     5A    -11.328545     6A    -11.309956
       7A    -11.263772     8A    -11.263345     9A    -11.258797
      10A    -11.255417    11A     -1.644654    12A     -1.441733
      13A     -1.427517    14A     -1.203308    15A     -1.096126
      16A     -1.048697    17A     -0.966959    18A     -0.883042
      19A     -0.832258    20A     -0.794663    21A     -0.760462
      22A     -0.741588    23A     -0.727038    24A     -0.711025
      25A     -0.676112    26A     -0.636177    27A     -0.622279
      28A     -0.598161    29A     -0.562270    30A     -0.547755
      31A     -0.525147    32A     -0.494864    33A     -0.492723
      34A     -0.459488    35A     -0.379138    36A     -0.346463

  @DF-RHF Final Energy:  -509.21762786773706

   => Energetics <=

    Nuclear Repulsion Energy =            504.6871676011509180
    One-Electron Energy =               -1695.9079258159713390
    Two-Electron Energy =                 682.0031303470834700
    DFT Exchange-Correlation Energy =       0.0000000000000000
    Empirical Dispersion Energy =           0.0000000000000000
    PCM Polarization Energy =               0.0000000000000000
    EFP Energy =                            0.0000000000000000
    Total Energy =                       -509.2176278677368373
    Molecular point group: c1
  Basis Set: CC-PVTZ
  Basis Set:

  -Total Gradient:
     Atom            X                  Y                   Z
    ------   -----------------  -----------------  -----------------
       1        0.000000053101     0.000003719076    -0.000012545870
       2       -0.000000902690    -0.000010497996     0.000003364636
       3       -0.000001510161    -0.000009191665     0.000030690573
       4       -0.000004380252    -0.000000356863    -0.000020394383
       5       -0.000019348247     0.000003798411    -0.000008103474
       6       -0.000000214064    -0.000003785333     0.000007266235
       7       -0.000019514984     0.000019294992    -0.000027269388
       8       -0.000003911450    -0.000002940387    -0.000000664482
       9       -0.000702952068     0.001846368687    -0.002231469471
      10       -0.000004562108    -0.000000881899    -0.000002372349
      11        0.000518471634    -0.001336629609     0.002408377980
      12       -0.000143810277    -0.000600400113    -0.003306607579
      13        0.000006262527    -0.000004344552    -0.000004432142
      14        0.000355459825    -0.000078795844     0.003148482594
      15        0.000020859226     0.000174643090     0.000015677116

  **** Optimization is complete! (in 7 steps) ****
    Final optimized geometry and variables:
    Molecular point group: c1

    Geometry (in Angstrom), charge = 0, multiplicity = 1:

    H            2.343836127867    -1.829944069815    -1.463872266896
    O            2.684166917622    -1.032517782704    -1.099249463062
    C            1.717543939592    -0.307335170181    -0.510174659395
    C            2.088230457904     0.889773861500     0.086037081663
    C            0.400547518544    -0.714857612106    -0.477486386526
    H            3.118737224004     1.183400865221     0.057202225216
    C            1.142020037292     1.674762088436     0.703825461786
    H            0.088871484216    -1.644867925953    -0.907568449533
    C           -0.522688891919     0.108763541883     0.132918091044
    H            1.440075803881     2.593610843706     1.169324608455
    C           -0.190120496830     1.295937181033     0.732930478960
    N           -1.915439911640    -0.340685674630     0.185056692605
    H           -0.939088496358     1.899377204830     1.199062938176
    O           -2.110744936183    -1.510709025198     0.181269394099
    O           -2.755624099427     0.491782015542     0.251359683726

  Mulliken Charges: (a.u.)
   Center  Symbol    Alpha    Beta     Spin     Total
       1     H     0.38428  0.38428  0.00000  0.23143
       2     O     4.16810  4.16810  0.00000 -0.33621
       3     C     2.84471  2.84471  0.00000  0.31059
       4     C     3.09877  3.09877  0.00000 -0.19753
       5     C     3.13726  3.13726  0.00000 -0.27451
       6     H     0.41336  0.41336  0.00000  0.17328
       7     C     3.05581  3.05581  0.00000 -0.11162
       8     H     0.41215  0.41215  0.00000  0.17569
       9     C     2.95707  2.95707  0.00000  0.08587
      10     H     0.41603  0.41603  0.00000  0.16793
      11     C     3.10160  3.10160  0.00000 -0.20320
      12     N     3.26225  3.26225  0.00000  0.47550
      13     H     0.40325  0.40325  0.00000  0.19349
      14     O     4.17394  4.17394  0.00000 -0.34787
      15     O     4.17142  4.17142  0.00000 -0.34283

   Total alpha = 36.00000, Total beta = 36.00000, Total charge = -0.00000

*** Psi4 exiting successfully. Buy a developer a beer!
