                              Psi4 1.0.54 Driver

  ==> Input File <==

--------------------------------------------------------------------------
set {
	reference rhf
	basis cc-pvtz
}

set_num_threads( 4 )
memory 2 gb

molecule MOL {
0 1

H	 -2.149496	 -2.244167	 0.000000
O	 -2.454378	 -1.354528	 0.000000
C	 -1.430628	 -0.482077	 0.000000
C	 -1.555715	 0.650496	 0.791393
C	 -0.288134	 -0.677720	 -0.746761
H	 -2.451668	 0.784267	 1.364457
C	 -0.539240	 1.577367	 0.830107
H	 -0.178183	 -1.549367	 -1.363277
C	 0.728059	 0.266978	 -0.696509
H	 -0.643882	 2.450233	 1.444512
C	 0.614702	 1.397600	 0.087254
C	 1.919935	 0.054271	 -1.481044
H	 1.407316	 2.117281	 0.115487
N	 2.850563	 -0.115196	 -2.095778

	symmetry c1
}
set optking {
	frozen_dihedral = ("
		5 3 2 1
	")
}

ee,wfn = optimize('scf', return_wfn=True)
oeprop( wfn, 'DIPOLE', 'QUADRUPOLE', 'MULLIKEN_CHARGES')
f=open( 'psi4out.xyz', 'w' )
f.write( "14  " )
f.write( str(ee) + "\n" )
f.write( MOL.save_string_xyz() )
f.close()
--------------------------------------------------------------------------

    Molecular point group: c1
  Charge       = 0
  Multiplicity = 1
  Basis Set: CC-PVTZ
  Basis Set:
  @DF-RHF Final Energy:  -397.43090443479628
    Total Energy =                       -397.4309044347959343
    Molecular point group: c1
  Basis Set: CC-PVTZ
  Basis Set:
  Basis Set: CC-PVTZ
  Basis Set:
  @DF-RHF Final Energy:  -397.43106472389638
    Total Energy =                       -397.4310647238967249
  Basis Set: CC-PVTZ
  Basis Set:
  Basis Set: CC-PVTZ
  Basis Set:
  @DF-RHF Final Energy:  -397.43118603133217
    Total Energy =                       -397.4311860313321176
  Basis Set: CC-PVTZ
  Basis Set:
  Basis Set: CC-PVTZ
  Basis Set:
  @DF-RHF Final Energy:  -397.43118899694440
    Total Energy =                       -397.4311889969447975
  Basis Set: CC-PVTZ
  Basis Set:
  Charge       = 0
  Multiplicity = 1
  Basis Set: CC-PVTZ
  Basis Set:

    Orbital Energies (a.u.)
    -----------------------

    Doubly Occupied:

       1A    -20.601394     2A    -15.565598     3A    -11.321568
       4A    -11.292541     5A    -11.269109     6A    -11.261649
       7A    -11.260257     8A    -11.258093     9A    -11.253090
      10A     -1.432223    11A     -1.238619    12A     -1.187264
      13A     -1.066907    14A     -1.042718    15A     -0.897823
      16A     -0.870090    17A     -0.783129    18A     -0.726574
      19A     -0.702717    20A     -0.673159    21A     -0.633551
      22A     -0.626187    23A     -0.579625    24A     -0.565115
      25A     -0.554376    26A     -0.547399    27A     -0.521575
      28A     -0.481246    29A     -0.479311    30A     -0.367659
      31A     -0.347052

  @DF-RHF Final Energy:  -397.43118982597008

   => Energetics <=

    Nuclear Repulsion Energy =            380.3057518149868770
    One-Electron Energy =               -1292.6586457882867762
    Two-Electron Energy =                 514.9217041473298195
    DFT Exchange-Correlation Energy =       0.0000000000000000
    Empirical Dispersion Energy =           0.0000000000000000
    PCM Polarization Energy =               0.0000000000000000
    EFP Energy =                            0.0000000000000000
    Total Energy =                       -397.4311898259700229
    Molecular point group: c1
  Basis Set: CC-PVTZ
  Basis Set:

  -Total Gradient:
     Atom            X                  Y                   Z
    ------   -----------------  -----------------  -----------------
       1       -0.000022947604     0.000001248406     0.002541438254
       2       -0.000481917581     0.000492650228    -0.003946173061
       3        0.001399522085    -0.001436818135     0.002809238015
       4       -0.000014136293     0.000002983607     0.000005307936
       5       -0.000904756895     0.000943675403    -0.001423246554
       6       -0.000004003881    -0.000003667568    -0.000007986012
       7       -0.000051000157    -0.000021923378     0.000032863083
       8       -0.000006386057    -0.000000426731    -0.000003910687
       9        0.000086485677     0.000063113390     0.000063837224
      10        0.000014099480    -0.000003097455    -0.000009699080
      11        0.000005638374    -0.000057502838    -0.000079673455
      12        0.000010117711     0.000013446308     0.000019732498
      13       -0.000003416097     0.000011093876     0.000003162728
      14       -0.000027298762    -0.000004775115    -0.000004890889

  **** Optimization is complete! (in 5 steps) ****
    Final optimized geometry and variables:
    Molecular point group: c1

    Geometry (in Angstrom), charge = 0, multiplicity = 1:

    H           -2.072304844161    -2.346621284923     0.311625613987
    O           -2.373252834472    -1.455999503729     0.345248513012
    C           -1.337470645279    -0.586994804162     0.377896451879
    C           -1.467546666711     0.551527822053     1.154475485853
    C           -0.202839697391    -0.778024008804    -0.383318583037
    H           -2.362250559158     0.685988057324     1.729392309669
    C           -0.456762830484     1.489095865496     1.177638865765
    H           -0.106322919478    -1.645458766553    -1.007027720046
    C            0.812546745646     0.165393099152    -0.338940144067
    H           -0.563947553669     2.368507053073     1.782068229148
    C            0.694726492653     1.303888177716     0.436696756632
    C            2.002476705627    -0.045670819646    -1.126427240546
    H            1.485092521469     2.026635713224     0.456306372481
    N            2.932675573937    -0.214207884763    -1.742221083339

  Mulliken Charges: (a.u.)
   Center  Symbol    Alpha    Beta     Spin     Total
       1     H     0.38320  0.38320  0.00000  0.23361
       2     O     4.17668  4.17668  0.00000 -0.35335
       3     C     2.85357  2.85357  0.00000  0.29287
       4     C     3.10544  3.10544  0.00000 -0.21088
       5     C     3.13741  3.13741  0.00000 -0.27482
       6     H     0.41228  0.41228  0.00000  0.17543
       7     C     3.05328  3.05328  0.00000 -0.10655
       8     H     0.41660  0.41660  0.00000  0.16681
       9     C     2.92941  2.92941  0.00000  0.14117
      10     H     0.41655  0.41655  0.00000  0.16690
      11     C     3.10108  3.10108  0.00000 -0.20216
      12     C     3.02558  3.02558  0.00000 -0.05116
      13     H     0.41414  0.41414  0.00000  0.17173
      14     N     3.57480  3.57480  0.00000 -0.14959

   Total alpha = 31.00000, Total beta = 31.00000, Total charge =  0.00000

*** Psi4 exiting successfully. Buy a developer a beer!
