  ==> Input File <==

--------------------------------------------------------------------------
set {
	reference rhf
	basis 6-31G*
}

set_num_threads( 4 )
memory 2 gb

molecule MOL {
0 1

H	 -3.207494	 1.480749	 -0.284087
C	 -2.613793	 2.131402	 0.354906
O	 -1.258435	 2.040619	 0.054742
H	 -2.916619	 3.156055	 0.189000
H	 -2.812626	 1.869901	 1.393420
C	 -0.719715	 0.768384	 0.229244
C	 0.719720	 0.768376	 -0.229267
H	 -0.760989	 0.481268	 1.280698
H	 -1.278110	 0.029832	 -0.342368
O	 1.392611	 -0.295398	 0.366430
H	 0.750534	 0.687200	 -1.313918
H	 1.185043	 1.714359	 0.050526
C	 2.706965	 -0.449871	 -0.062409
H	 2.756559	 -0.644779	 -1.131878
H	 3.305899	 0.433456	 0.155466
H	 3.125548	 -1.294566	 0.467107

	symmetry c1
}
set optking {
	frozen_dihedral = ("
		3 6 7 11
	")
}

ee = optimize('scf')
oeprop('DIPOLE', 'QUADRUPOLE', 'MULLIKEN_CHARGES')
f=open( 'psi4out.xyz', 'w' )
f.write( "16  " )
f.write( str(ee) + "\n" )
f.write( MOL.save_string_xyz() )
f.close()
--------------------------------------------------------------------------

    Molecular point group: c1
  Charge       = 0
  Multiplicity = 1
  Basis Set: 6-31G*
  Basis Set:
  @DF-RHF Final Energy:  -306.97797715955852
    Total Energy =                       -306.9779771595587476
    Molecular point group: c1
  Basis Set: 6-31G*
  Basis Set:
  Basis Set: 6-31G*
  Basis Set:
  @DF-RHF Final Energy:  -306.97844466267850
    Total Energy =                       -306.9784446626784415
  Basis Set: 6-31G*
  Basis Set:
  Basis Set: 6-31G*
  Basis Set:
  @DF-RHF Final Energy:  -306.97850120222756
    Total Energy =                       -306.9785012022275623
  Basis Set: 6-31G*
  Basis Set:
  Charge       = 0
  Multiplicity = 1
  Basis Set: 6-31G*
  Basis Set:

    Orbital Energies (a.u.)
    -----------------------

    Doubly Occupied:

       1A    -20.558357     2A    -20.557895     3A    -11.267335
       4A    -11.266796     5A    -11.266661     6A    -11.266644
       7A     -1.388319     8A     -1.376854     9A     -1.029676
      10A     -0.941020    11A     -0.883291    12A     -0.831237
      13A     -0.691186    14A     -0.674044    15A     -0.658765
      16A     -0.647045    17A     -0.620123    18A     -0.599820
      19A     -0.573805    20A     -0.519715    21A     -0.507911
      22A     -0.482317    23A     -0.466332    24A     -0.418303
      25A     -0.417277

  @DF-RHF Final Energy:  -306.97850371003165

   => Energetics <=

    Nuclear Repulsion Energy =            254.7365788626860024
    One-Electron Energy =                -923.6087104570414112
    Two-Electron Energy =                 361.8936278843238483
    DFT Exchange-Correlation Energy =       0.0000000000000000
    Empirical Dispersion Energy =           0.0000000000000000
    PCM Polarization Energy =               0.0000000000000000
    EFP Energy =                            0.0000000000000000
    Total Energy =                       -306.9785037100315890
    Molecular point group: c1
  Basis Set: 6-31G*
  Basis Set:

  -Total Gradient:
     Atom            X                  Y                   Z
    ------   -----------------  -----------------  -----------------
       1       -0.000020432427     0.000009147013    -0.000007349590
       2        0.000020069771    -0.000100252669     0.000020661539
       3        0.000864434966     0.000795496854     0.002675631946
       4        0.000065106450    -0.000009023475    -0.000015589484
       5       -0.000011965990     0.000013024637     0.000010886246
       6       -0.001123541546    -0.001897568993    -0.003369532937
       7        0.000207427615     0.004896013341     0.000478391866
       8        0.000035634223    -0.000011587431    -0.000008544277
       9       -0.000017661179     0.000013168104    -0.000011829891
      10       -0.000067549451     0.000052069879    -0.000015594472
      11        0.000143777099    -0.003818363178     0.000280860777
      12       -0.000057650370     0.000005431540     0.000000264687
      13        0.000014783464     0.000055481837    -0.000054545102
      14        0.000017572970    -0.000012706914    -0.000011201044
      15       -0.000000226545    -0.000007846161     0.000012435167
      16       -0.000069779051     0.000017515614     0.000015054567

  **** Optimization is complete! (in 4 steps) ****
    Final optimized geometry and variables:
    Molecular point group: c1

    Geometry (in Angstrom), charge = 0, multiplicity = 1:

    H           -3.265951701689     0.647016958303    -0.326151574300
    C           -2.639607193141     1.311720399028     0.265731374375
    O           -1.298540649173     1.200927636089    -0.090823551112
    H           -2.942525880609     2.333512417250     0.083020414727
    H           -2.790904122553     1.081627182981     1.318635587818
    C           -0.757996944246    -0.070610937200     0.103181822788
    C            0.685947087010    -0.043432680530    -0.362427999056
    H           -0.778483478983    -0.337992400116     1.157276703184
    H           -1.323947838360    -0.823148758880    -0.442081066611
    O            1.337403251011    -1.130119211697     0.226078023009
    H            0.739453804259    -0.131088900498    -1.445851292233
    H            1.143403481457     0.896081421771    -0.064168701014
    C            2.670620711177    -1.268394827601    -0.149249213920
    H            2.768837333302    -1.424846147880    -1.221911768727
    H            3.254289259393    -0.392123171411     0.126212663799
    H            3.067664111384    -2.130792018851     0.368299091075

  Mulliken Charges: (a.u.)
   Center  Symbol    Alpha    Beta     Spin     Total
       1     H     0.42901  0.42901  0.00000  0.14198
       2     C     3.07978  3.07978  0.00000 -0.15956
       3     O     4.30966  4.30966  0.00000 -0.61932
       4     H     0.41159  0.41159  0.00000  0.17682
       5     H     0.42835  0.42835  0.00000  0.14329
       6     C     2.99488  2.99488  0.00000  0.01025
       7     C     2.99490  2.99490  0.00000  0.01021
       8     H     0.42014  0.42014  0.00000  0.15972
       9     H     0.42633  0.42633  0.00000  0.14733
      10     O     4.31025  4.31025  0.00000 -0.62051
      11     H     0.42678  0.42678  0.00000  0.14643
      12     H     0.41933  0.41933  0.00000  0.16134
      13     C     3.07957  3.07957  0.00000 -0.15914
      14     H     0.42930  0.42930  0.00000  0.14140
      15     H     0.42846  0.42846  0.00000  0.14307
      16     H     0.41165  0.41165  0.00000  0.17669

   Total alpha = 25.00000, Total beta = 25.00000, Total charge =  0.00000
