                              Psi4 1.0.54 Driver

  ==> Input File <==

--------------------------------------------------------------------------
set {
	reference rhf
	basis cc-pvtz
}

set_num_threads( 4 )
memory 2 gb

molecule MOL {
0 1

H	 -3.258660	 -0.290394	 1.471450
C	 -3.307964	 -0.275695	 0.374072
C	 -2.653809	 0.914422	 -0.273689
O	 -3.855140	 -1.148880	 -0.205112
C	 -2.982156	 2.230959	 0.436659
H	 -1.586600	 0.739708	 -0.316995
H	 -3.027384	 0.956373	 -1.294466
C	 -2.381650	 2.338178	 1.836688
H	 -2.619510	 3.050118	 -0.174737
H	 -4.061429	 2.350599	 0.491890
C	 -2.708167	 3.659552	 2.527441
H	 -1.303177	 2.221792	 1.769924
H	 -2.734597	 1.515091	 2.452629
C	 -2.096209	 3.768876	 3.922720
H	 -2.361006	 4.477461	 1.903863
H	 -3.787970	 3.768391	 2.601448
C	 -2.463619	 5.041893	 4.687140
H	 -1.013675	 3.697858	 3.846161
H	 -2.414281	 2.911419	 4.509151
C	 -1.912985	 6.331247	 4.082615
H	 -2.093551	 4.949199	 5.703432
H	 -3.545321	 5.113590	 4.765146
H	 -0.832867	 6.285792	 3.986301
H	 -2.324596	 6.527490	 3.099889
H	 -2.151798	 7.182155	 4.710221

	symmetry c1
}
set optking {
	frozen_dihedral = ("
		6 3 2 4
	")
}

ee,wfn = optimize('scf', return_wfn=True)
oeprop( wfn, 'DIPOLE', 'QUADRUPOLE', 'MULLIKEN_CHARGES')
f=open( 'psi4out.xyz', 'w' )
f.write( "25  " )
f.write( str(ee) + "\n" )
f.write( MOL.save_string_xyz() )
f.close()
--------------------------------------------------------------------------

    Molecular point group: c1
  Charge       = 0
  Multiplicity = 1
  Basis Set: CC-PVTZ
  Basis Set:
  @DF-RHF Final Energy:  -387.25734135329731
    Total Energy =                       -387.2573413532974200
    Molecular point group: c1
  Basis Set: CC-PVTZ
  Basis Set:
  Basis Set: CC-PVTZ
  Basis Set:
  @DF-RHF Final Energy:  -387.25794347181568
    Total Energy =                       -387.2579434718155653
  Basis Set: CC-PVTZ
  Basis Set:
  Basis Set: CC-PVTZ
  Basis Set:
  @DF-RHF Final Energy:  -387.25712143138816
    Total Energy =                       -387.2571214313884411
  Basis Set: CC-PVTZ
  Basis Set:
  Basis Set: CC-PVTZ
  Basis Set:
  @DF-RHF Final Energy:  -387.25838189184327
    Total Energy =                       -387.2583818918429870
  Basis Set: CC-PVTZ
  Basis Set:
  Basis Set: CC-PVTZ
  Basis Set:
  @DF-RHF Final Energy:  -387.25837787402287
    Total Energy =                       -387.2583778740234948
  Basis Set: CC-PVTZ
  Basis Set:
  Basis Set: CC-PVTZ
  Basis Set:
  @DF-RHF Final Energy:  -387.25845965424986
    Total Energy =                       -387.2584596542500321
  Basis Set: CC-PVTZ
  Basis Set:
  Charge       = 0
  Multiplicity = 1
  Basis Set: CC-PVTZ
  Basis Set:

    Orbital Energies (a.u.)
    -----------------------

    Doubly Occupied:

       1A    -20.550449     2A    -11.320155     3A    -11.233590
       4A    -11.232812     5A    -11.225736     6A    -11.220162
       7A    -11.218523     8A    -11.217870     9A    -11.210555
      10A     -1.405356    11A     -1.106634    12A     -1.071739
      13A     -1.015706    14A     -0.944759    15A     -0.877557
      16A     -0.826503    17A     -0.786095    18A     -0.784490
      19A     -0.673525    20A     -0.664365    21A     -0.635845
      22A     -0.620487    23A     -0.607111    24A     -0.598908
      25A     -0.566258    26A     -0.563139    27A     -0.544116
      28A     -0.521984    29A     -0.510908    30A     -0.504120
      31A     -0.488127    32A     -0.481375    33A     -0.467825
      34A     -0.462030    35A     -0.446644    36A     -0.409812

  @DF-RHF Final Energy:  -387.25845988997605

   => Energetics <=

    Nuclear Repulsion Energy =            436.1542970634367293
    One-Electron Energy =               -1388.7949760975061508
    Two-Electron Energy =                 565.3822191440934830
    DFT Exchange-Correlation Energy =       0.0000000000000000
    Empirical Dispersion Energy =           0.0000000000000000
    PCM Polarization Energy =               0.0000000000000000
    EFP Energy =                            0.0000000000000000
    Total Energy =                       -387.2584598899759385
    Molecular point group: c1
  Basis Set: CC-PVTZ
  Basis Set:

  -Total Gradient:
     Atom            X                  Y                   Z
    ------   -----------------  -----------------  -----------------
       1       -0.000023079560     0.000013724006    -0.000229123147
       2       -0.000404804613     0.000096132117     0.000126724985
       3        0.000019791223     0.000078210676     0.000204382873
       4        0.000311394936    -0.000094316337     0.000073039009
       5        0.000036452576    -0.000011714098     0.000049245289
       6        0.000006430937    -0.000098473252    -0.000287565092
       7        0.000022217648    -0.000040455565     0.000003708496
       8       -0.000012973497     0.000041446826    -0.000000346590
       9        0.000005858363    -0.000011737591     0.000027080682
      10        0.000004790331    -0.000008928517    -0.000042096900
      11        0.000035494317    -0.000001184679     0.000044593771
      12       -0.000006793104     0.000012342156     0.000012836535
      13        0.000013929862     0.000019189331    -0.000003162187
      14       -0.000027248381     0.000014999834     0.000012794716
      15        0.000005650627    -0.000003878986    -0.000007652699
      16        0.000006999894    -0.000004694687    -0.000001669571
      17        0.000013550238    -0.000000177515     0.000019646974
      18       -0.000004246178     0.000005221200    -0.000000245681
      19       -0.000000877840    -0.000006288381     0.000001114918
      20       -0.000003311231    -0.000006803013    -0.000003025165
      21        0.000000285048     0.000006840686     0.000003879273
      22        0.000001816221    -0.000002962812     0.000002292307
      23       -0.000001808338     0.000001960703     0.000001975801
      24        0.000001598744     0.000000963342    -0.000006480208
      25       -0.000001118228     0.000000584553    -0.000001948396

  **** Optimization is complete! (in 7 steps) ****
    Final optimized geometry and variables:
    Molecular point group: c1

    Geometry (in Angstrom), charge = 0, multiplicity = 1:

    H           -0.704060934678    -2.948282543405    -0.522450871702
    C           -0.649848046142    -2.867466512787    -1.613552204935
    C            0.052213232722    -1.650851675802    -2.158310109546
    O           -1.121325820806    -3.717165035978    -2.288075329994
    C           -0.289490796635    -0.348427851606    -1.424676632378
    H            1.121494641481    -1.841107997816    -2.089663219667
    H           -0.193287794362    -1.583891170626    -3.209754937886
    C            0.354886922774    -0.201992183526    -0.046559953671
    H            0.030330270226     0.479613651178    -2.047930789052
    H           -1.369034594002    -0.256817780662    -1.336868140230
    C            0.002168980359     1.116449631441     0.637635646431
    H            1.434582606737    -0.274170056436    -0.152454731876
    H            0.058379644593    -1.024177507575     0.598031158103
    C            0.660189886225     1.271949319685     2.007322503915
    H            0.293354203423     1.936875391831    -0.010534818372
    H           -1.077463848342     1.183711920819     0.750053695431
    C            0.269294557431     2.540849254462     2.766943424429
    H            1.741307857470     1.243907537528     1.891530554660
    H            0.399072358524     0.411755675066     2.617747552670
    C            0.742298778436     3.841705229983     2.122717877595
    H            0.681204566909     2.479797024066     3.769443920606
    H           -0.810659819129     2.569008974650     2.885389739900
    H            1.818885470651     3.839042531845     1.984984563375
    H            0.285318923320     4.005280829245     1.154209946386
    H            0.492643718479     4.691917843815     2.746939644093

  Mulliken Charges: (a.u.)
   Center  Symbol    Alpha    Beta     Spin     Total
       1     H     0.46326  0.46326  0.00000  0.07349
       2     C     2.90256  2.90256  0.00000  0.19488
       3     C     3.09056  3.09056  0.00000 -0.18113
       4     O     4.16658  4.16658  0.00000 -0.33316
       5     C     3.11153  3.11153  0.00000 -0.22306
       6     H     0.44853  0.44853  0.00000  0.10295
       7     H     0.43521  0.43521  0.00000  0.12958
       8     C     3.09436  3.09436  0.00000 -0.18872
       9     H     0.44339  0.44339  0.00000  0.11322
      10     H     0.44659  0.44659  0.00000  0.10683
      11     C     3.09234  3.09234  0.00000 -0.18469
      12     H     0.45203  0.45203  0.00000  0.09593
      13     H     0.45213  0.45213  0.00000  0.09573
      14     C     3.09534  3.09534  0.00000 -0.19068
      15     H     0.45084  0.45084  0.00000  0.09832
      16     H     0.45281  0.45281  0.00000  0.09439
      17     C     3.09069  3.09069  0.00000 -0.18138
      18     H     0.45345  0.45345  0.00000  0.09310
      19     H     0.44906  0.44906  0.00000  0.10187
      20     C     3.15271  3.15271  0.00000 -0.30541
      21     H     0.44769  0.44769  0.00000  0.10463
      22     H     0.45416  0.45416  0.00000  0.09167
      23     H     0.45468  0.45468  0.00000  0.09063
      24     H     0.45394  0.45394  0.00000  0.09212
      25     H     0.44556  0.44556  0.00000  0.10889

   Total alpha = 36.00000, Total beta = 36.00000, Total charge = -0.00000

*** Psi4 exiting successfully. Buy a developer a beer!
