                              Psi4 1.0.54 Driver

  ==> Input File <==

--------------------------------------------------------------------------
set {
	reference rhf
	basis cc-pvtz
}

set_num_threads( 4 )
memory 2 gb

molecule MOL {
0 1

H	 3.854202	 0.329324	 -0.362242
N	 3.091268	 -0.241216	 -0.065538
C	 1.860978	 0.530248	 0.016256
H	 3.335176	 -0.618582	 0.826343
C	 0.644130	 -0.381765	 -0.031064
H	 1.835721	 1.204666	 -0.833114
H	 1.808789	 1.151975	 0.911067
C	 -0.678115	 0.376691	 0.025731
H	 0.693998	 -0.977147	 -0.936845
H	 0.693309	 -1.082142	 0.800523
C	 -1.900706	 -0.535531	 -0.022488
H	 -0.725296	 1.079516	 -0.802982
H	 -0.715474	 0.974884	 0.933278
C	 -3.220513	 0.226854	 0.028039
H	 -1.865036	 -1.134397	 -0.928236
H	 -1.857948	 -1.236381	 0.806820
H	 -3.309098	 0.911849	 -0.808725
H	 -4.066838	 -0.449485	 -0.008086
H	 -3.301685	 0.809374	 0.939860

	symmetry c1
}
set optking {
	frozen_dihedral = ("
		1 2 3 6
	")
}

ee,wfn = optimize('scf', return_wfn=True)
oeprop( wfn, 'DIPOLE', 'QUADRUPOLE', 'MULLIKEN_CHARGES')
f=open( 'psi4out.xyz', 'w' )
f.write( "19  " )
f.write( str(ee) + "\n" )
f.write( MOL.save_string_xyz() )
f.close()
--------------------------------------------------------------------------

    Molecular point group: c1
  Charge       = 0
  Multiplicity = 1
  Basis Set: CC-PVTZ
  Basis Set:
  @DF-RHF Final Energy:  -251.44750227484994
    Total Energy =                       -251.4475022748499669
    Molecular point group: c1
  Basis Set: CC-PVTZ
  Basis Set:
  Basis Set: CC-PVTZ
  Basis Set:
  @DF-RHF Final Energy:  -251.44758359351587
    Total Energy =                       -251.4475835935157306
  Basis Set: CC-PVTZ
  Basis Set:
  Basis Set: CC-PVTZ
  Basis Set:
  @DF-RHF Final Energy:  -251.44759752415158
    Total Energy =                       -251.4475975241515471
  Basis Set: CC-PVTZ
  Basis Set:
  Charge       = 0
  Multiplicity = 1
  Basis Set: CC-PVTZ
  Basis Set:

    Orbital Energies (a.u.)
    -----------------------

    Doubly Occupied:

       1A    -15.525617     2A    -11.238173     3A    -11.211014
       4A    -11.209301     5A    -11.205213     6A    -11.204835
       7A     -1.176941     8A     -1.073319     9A     -0.998948
      10A     -0.900695    11A     -0.812253    12A     -0.788058
      13A     -0.671690    14A     -0.639926    15A     -0.617076
      16A     -0.586053    17A     -0.566372    18A     -0.552470
      19A     -0.525479    20A     -0.501130    21A     -0.477475
      22A     -0.464070    23A     -0.460086    24A     -0.453261
      25A     -0.380992

  @DF-RHF Final Energy:  -251.44759819250351

   => Energetics <=

    Nuclear Repulsion Energy =            245.8835980150154228
    One-Electron Energy =                -826.1815034502732260
    Two-Electron Energy =                 328.8503072427544680
    DFT Exchange-Correlation Energy =       0.0000000000000000
    Empirical Dispersion Energy =           0.0000000000000000
    PCM Polarization Energy =               0.0000000000000000
    EFP Energy =                            0.0000000000000000
    Total Energy =                       -251.4475981925033352
    Molecular point group: c1
  Basis Set: CC-PVTZ
  Basis Set:

  -Total Gradient:
     Atom            X                  Y                   Z
    ------   -----------------  -----------------  -----------------
       1       -0.000398866819    -0.000425248195    -0.001860262184
       2        0.000721606119     0.000750954649     0.002563094080
       3       -0.001190481478    -0.001572009598    -0.001629534838
       4       -0.000023497510     0.000009842384    -0.000020274656
       5        0.000042490786    -0.000002171085    -0.000007848502
       6        0.000810519270     0.001211769023     0.000956499761
       7       -0.000003261545    -0.000001503259    -0.000008094525
       8        0.000029277533     0.000010204923     0.000010750859
       9        0.000018297667     0.000013720277    -0.000006237666
      10       -0.000001655371     0.000011683623    -0.000011072715
      11       -0.000002401279    -0.000003408473     0.000012438284
      12        0.000010678555    -0.000010291261    -0.000000532258
      13       -0.000004129756     0.000007394746    -0.000004310756
      14       -0.000005782651    -0.000004275696     0.000004784348
      15        0.000002749350     0.000007725429     0.000001984455
      16       -0.000002285923    -0.000004537403    -0.000001026887
      17        0.000001483675    -0.000001190180     0.000000183300
      18       -0.000004055293     0.000001608597    -0.000000026053
      19       -0.000000685335    -0.000000268502    -0.000000514048

  **** Optimization is complete! (in 4 steps) ****
    Final optimized geometry and variables:
    Molecular point group: c1

    Geometry (in Angstrom), charge = 0, multiplicity = 1:

    H            3.860866990240     0.361811526311    -0.335970672061
    N            3.096912250423    -0.212654217413    -0.054250574807
    C            1.854601682165     0.541759779559     0.007833082451
    H            3.325690840597    -0.621423964216     0.826210993086
    C            0.644771917809    -0.379624052340    -0.037790688226
    H            1.833149609405     1.217873613458    -0.840083111002
    H            1.792072263354     1.171708067152     0.896115965086
    C           -0.683250245005     0.367939851558     0.025885778962
    H            0.697575852547    -0.972863800985    -0.944654233665
    H            0.705286586455    -1.081621316214     0.791126055398
    C           -1.898849625596    -0.553622277357    -0.021047385967
    H           -0.739304913328     1.073428647757    -0.800299196839
    H           -0.722510626423     0.963049401129     0.935512148793
    C           -3.224539170551     0.197639126595     0.040483688574
    H           -1.863071824345    -1.147253823548    -0.930203950939
    H           -1.846002158368    -1.258549207916     0.804169839696
    H           -3.323044299461     0.886420667816    -0.792078987781
    H           -4.065622863603    -0.485331049273     0.005100254325
    H           -3.305625995132     0.774554705794     0.955889203433

  Mulliken Charges: (a.u.)
   Center  Symbol    Alpha    Beta     Spin     Total
       1     H     0.42735  0.42735  0.00000  0.14530
       2     N     3.69299  3.69299  0.00000 -0.38598
       3     C     3.03353  3.03353  0.00000 -0.06706
       4     H     0.42968  0.42968  0.00000  0.14065
       5     C     3.07410  3.07410  0.00000 -0.14821
       6     H     0.45666  0.45666  0.00000  0.08668
       7     H     0.46667  0.46667  0.00000  0.06666
       8     C     3.09431  3.09431  0.00000 -0.18862
       9     H     0.45066  0.45066  0.00000  0.09868
      10     H     0.45974  0.45974  0.00000  0.08051
      11     C     3.08329  3.08329  0.00000 -0.16657
      12     H     0.45588  0.45588  0.00000  0.08824
      13     H     0.45699  0.45699  0.00000  0.08602
      14     C     3.14971  3.14971  0.00000 -0.29942
      15     H     0.45387  0.45387  0.00000  0.09227
      16     H     0.45486  0.45486  0.00000  0.09027
      17     H     0.45537  0.45537  0.00000  0.08925
      18     H     0.44862  0.44862  0.00000  0.10277
      19     H     0.45573  0.45573  0.00000  0.08855

   Total alpha = 25.00000, Total beta = 25.00000, Total charge = -0.00000

*** Psi4 exiting successfully. Buy a developer a beer!
