                              Psi4 1.0.54 Driver

  ==> Input File <==

--------------------------------------------------------------------------
set {
	reference rhf
	basis cc-pvtz
}

set_num_threads( 4 )
memory 2 gb

molecule MOL {
0 1

H	 -1.067497	 -0.931713	 -0.125981
N	 -0.712187	 0.000026	 -0.093397
C	 0.734067	 -0.000020	 0.038424
H	 -1.141472	 0.451232	 0.686071
H	 1.140372	 -0.872115	 -0.458226
H	 1.140363	 0.872301	 -0.457869
H	 1.095085	 -0.000244	 1.065614

	symmetry c1
}
set optking {
	frozen_dihedral = ("
		1 2 3 7
	")
}

ee,wfn = optimize('scf', return_wfn=True)
oeprop( wfn, 'DIPOLE', 'QUADRUPOLE', 'MULLIKEN_CHARGES')
f=open( 'psi4out.xyz', 'w' )
f.write( "7  " )
f.write( str(ee) + "\n" )
f.write( MOL.save_string_xyz() )
f.close()
--------------------------------------------------------------------------

    Molecular point group: c1
  Charge       = 0
  Multiplicity = 1
  Basis Set: CC-PVTZ
  Basis Set:
  @DF-RHF Final Energy:   -95.25195312256756
    Total Energy =                        -95.2519531225675138
    Molecular point group: c1
  Basis Set: CC-PVTZ
  Basis Set:
  Basis Set: CC-PVTZ
  Basis Set:
  @DF-RHF Final Energy:   -95.25210142701508
    Total Energy =                        -95.2521014270151056
  Basis Set: CC-PVTZ
  Basis Set:
  Basis Set: CC-PVTZ
  Basis Set:
  @DF-RHF Final Energy:   -95.25213467345407
    Total Energy =                        -95.2521346734540515
  Basis Set: CC-PVTZ
  Basis Set:
  Charge       = 0
  Multiplicity = 1
  Basis Set: CC-PVTZ
  Basis Set:

    Orbital Energies (a.u.)
    -----------------------

    Doubly Occupied:

       1A    -15.526379     2A    -11.235418     3A     -1.169865
       4A     -0.897405     5A     -0.667837     6A     -0.600397
       7A     -0.560017     8A     -0.519235     9A     -0.382393

  @DF-RHF Final Energy:   -95.25213611192298

   => Energetics <=

    Nuclear Repulsion Energy =             42.3608100961889846
    One-Electron Energy =                -212.1080032038818786
    Two-Electron Energy =                  74.4950569957698576
    DFT Exchange-Correlation Energy =       0.0000000000000000
    Empirical Dispersion Energy =           0.0000000000000000
    PCM Polarization Energy =               0.0000000000000000
    EFP Energy =                            0.0000000000000000
    Total Energy =                        -95.2521361119230505
    Molecular point group: c1
  Basis Set: CC-PVTZ
  Basis Set:

  -Total Gradient:
     Atom            X                  Y                   Z
    ------   -----------------  -----------------  -----------------
       1        0.000264150849     0.000017914926    -0.002795049146
       2       -0.000466807926     0.000824334392     0.003493256363
       3        0.000285798347    -0.003476634492    -0.000692297457
       4        0.000011748224    -0.000005276142    -0.000002368671
       5       -0.000010961799     0.000016851135     0.000000214301
       6       -0.000041848523    -0.000003082246     0.000002666456
       7       -0.000042079172     0.002625892427    -0.000006421846

  **** Optimization is complete! (in 4 steps) ****
    Final optimized geometry and variables:
    Molecular point group: c1

    Geometry (in Angstrom), charge = 0, multiplicity = 1:

    H           -1.076003060066    -0.916661888462    -0.114180818279
    N           -0.713568884435     0.009966563218    -0.080625600018
    C            0.735514712785     0.017826105755     0.035305549893
    H           -1.154233248948     0.494361412094     0.669520792923
    H            1.149369056891    -0.844125810260    -0.471259206103
    H            1.141897081237     0.900369423079    -0.445533280391
    H            1.095898512350     0.015325555906     1.061315704942

  Mulliken Charges: (a.u.)
   Center  Symbol    Alpha    Beta     Spin     Total
       1     H     0.42632  0.42632  0.00000  0.14736
       2     N     3.69026  3.69026  0.00000 -0.38052
       3     C     3.06896  3.06896  0.00000 -0.13792
       4     H     0.42722  0.42722  0.00000  0.14557
       5     H     0.45817  0.45817  0.00000  0.08367
       6     H     0.45914  0.45914  0.00000  0.08173
       7     H     0.46994  0.46994  0.00000  0.06011

   Total alpha =  9.00000, Total beta =  9.00000, Total charge = -0.00000

*** Psi4 exiting successfully. Buy a developer a beer!
