  ==> Input File <==

--------------------------------------------------------------------------
set {
	reference rhf
	basis 6-31G*
}

set_num_threads( 4 )
memory 2 gb

molecule MOL {
0 1

O	 -0.291628	 1.323815	 -0.000732
C	 -0.449655	 0.146360	 0.000961
C	 -1.783294	 -0.549321	 -0.000296
O	 0.550821	 -0.724572	 0.000672
H	 -1.863538	 -1.185371	 -0.874187
H	 -2.574672	 0.185258	 -0.002793
H	 -1.866414	 -1.182381	 0.875436
C	 0.255208	 -2.041446	 -0.429140
H	 -0.494060	 -2.489261	 0.207582
H	 1.181842	 -2.589353	 -0.359181
H	 -0.101406	 -2.036556	 -1.449016

	symmetry c1
}
set optking {
	frozen_dihedral = ("
		8 4 2 1
	")
}

ee = optimize('scf')
oeprop('DIPOLE', 'QUADRUPOLE', 'MULLIKEN_CHARGES')
f=open( 'psi4out.xyz', 'w' )
f.write( "11  " )
f.write( str(ee) + "\n" )
f.write( MOL.save_string_xyz() )
f.close()
--------------------------------------------------------------------------

    Molecular point group: c1
  Charge       = 0
  Multiplicity = 1
  Basis Set: 6-31G*
  Basis Set:
  @DF-RHF Final Energy:  -266.81138962861155
    Total Energy =                       -266.8113896286116642
    Molecular point group: c1
  Basis Set: 6-31G*
  Basis Set:
  Basis Set: 6-31G*
  Basis Set:
  @DF-RHF Final Energy:  -266.81085361522543
    Total Energy =                       -266.8108536152253691
  Basis Set: 6-31G*
  Basis Set:
  Basis Set: 6-31G*
  Basis Set:
  @DF-RHF Final Energy:  -266.81862774418795
    Total Energy =                       -266.8186277441879497
  Basis Set: 6-31G*
  Basis Set:
  Basis Set: 6-31G*
  Basis Set:
  @DF-RHF Final Energy:  -266.82021131459669
    Total Energy =                       -266.8202113145969179
  Basis Set: 6-31G*
  Basis Set:
  @DF-RHF Final Energy:  -266.81934063958988
    Total Energy =                       -266.8193406395898819
  Basis Set: 6-31G*
  Basis Set:
  @DF-RHF Final Energy:  -266.82056857234795
    Total Energy =                       -266.8205685723481224
  Basis Set: 6-31G*
  Basis Set:
  Basis Set: 6-31G*
  Basis Set:
  @DF-RHF Final Energy:  -266.82071708844722
    Total Energy =                       -266.8207170884472816
  Basis Set: 6-31G*
  Basis Set:
  Basis Set: 6-31G*
  Basis Set:
  @DF-RHF Final Energy:  -266.82071831371093
    Total Energy =                       -266.8207183137109269
  Basis Set: 6-31G*
  Basis Set:
  Charge       = 0
  Multiplicity = 1
  Basis Set: 6-31G*
  Basis Set:

    Orbital Energies (a.u.)
    -----------------------

    Doubly Occupied:

       1A    -20.603259     2A    -20.542515     3A    -11.378338
       4A    -11.298553     5A    -11.244585     6A     -1.465119
       7A     -1.367679     8A     -1.022932     9A     -0.984840
      10A     -0.784390    11A     -0.698750    12A     -0.686294
      13A     -0.678570    14A     -0.604791    15A     -0.594260
      16A     -0.578165    17A     -0.546880    18A     -0.513738
      19A     -0.450095    20A     -0.436545

  @DF-RHF Final Energy:  -266.82071845850862

   => Energetics <=

    Nuclear Repulsion Energy =            182.8271157557155107
    One-Electron Energy =                -726.3350691435466615
    Two-Electron Energy =                 276.6872349293224715
    DFT Exchange-Correlation Energy =       0.0000000000000000
    Empirical Dispersion Energy =           0.0000000000000000
    PCM Polarization Energy =               0.0000000000000000
    EFP Energy =                            0.0000000000000000
    Total Energy =                       -266.8207184585086225
    Molecular point group: c1
  Basis Set: 6-31G*
  Basis Set:

  -Total Gradient:
     Atom            X                  Y                   Z
    ------   -----------------  -----------------  -----------------
       1       -0.000017306688    -0.000017733084    -0.002204697695
       2        0.000252215005     0.000275608447     0.002164586479
       3        0.000000334054     0.000011588684    -0.000032848401
       4       -0.000667696448    -0.000762814860     0.001829209984
       5        0.000008671037     0.000001258687     0.000015819794
       6       -0.000006515052     0.000000462804     0.000003486511
       7        0.000005483667     0.000005158526     0.000010500597
       8        0.000428703691     0.000498102105    -0.001768185123
       9        0.000009305880    -0.000009140160    -0.000013392738
      10       -0.000006646139    -0.000012842867    -0.000003049865
      11       -0.000006549008     0.000010351717    -0.000001429543

  **** Optimization is complete! (in 9 steps) ****
    Final optimized geometry and variables:
    Molecular point group: c1

    Geometry (in Angstrom), charge = 0, multiplicity = 1:

    O            0.077772234334     1.678958447536     0.089677579836
    C           -0.144415017430     0.517169975568     0.084267334826
    C           -1.545925782685    -0.049165918529     0.107956188237
    O            0.874654699980    -0.347426587714     0.079162282203
    H           -1.760020737369    -0.612326341123    -0.793565959751
    H           -2.239306686396     0.774198554804     0.183438945752
    H           -1.678163378851    -0.713231554831     0.955066441623
    C            0.719870393807    -1.684187453708    -0.335072024967
    H            0.050978784837    -2.234684837306     0.314589755693
    H            1.702915676755    -2.124960679641    -0.281881495489
    H            0.363114604767    -1.740484674026    -1.356386182569

  Mulliken Charges: (a.u.)
   Center  Symbol    Alpha    Beta     Spin     Total
       1     O     4.26221  4.26221  0.00000 -0.52442
       2     C     2.61631  2.61631  0.00000  0.76739
       3     C     3.30820  3.30820  0.00000 -0.61641
       4     O     4.29600  4.29600  0.00000 -0.59199
       5     H     0.40362  0.40362  0.00000  0.19277
       6     H     0.38735  0.38735  0.00000  0.22529
       7     H     0.40177  0.40177  0.00000  0.19646
       8     C     3.09382  3.09382  0.00000 -0.18764
       9     H     0.41747  0.41747  0.00000  0.16505
      10     H     0.39761  0.39761  0.00000  0.20477
      11     H     0.41564  0.41564  0.00000  0.16872

   Total alpha = 20.00000, Total beta = 20.00000, Total charge = -0.00000
