  ==> Input File <==

--------------------------------------------------------------------------
set {
	reference rhf
	basis 6-31G*
}

set_num_threads( 4 )
memory 2 gb

molecule MOL {
0 1

H	 -2.655347	 0.009537	 0.052973
C	 -1.668525	 -0.438574	 0.054828
C	 -0.603454	 0.661669	 0.000000
H	 -1.590315	 -1.097310	 -0.801554
H	 -1.565018	 -1.034334	 0.953604
C	 0.763625	 0.112519	 0.000000
H	 -0.719923	 1.264234	 -0.893264
H	 -0.694786	 1.326811	 0.850773
N	 1.813038	 -0.320305	 0.000000

	symmetry c1
}
set optking {
	frozen_dihedral = ("
		7 3 6 9
	")
}

ee = optimize('scf')
oeprop('DIPOLE', 'QUADRUPOLE', 'MULLIKEN_CHARGES')
f=open( 'psi4out.xyz', 'w' )
f.write( "9  " )
f.write( str(ee) + "\n" )
f.write( MOL.save_string_xyz() )
f.close()
--------------------------------------------------------------------------

    Molecular point group: c1
  Charge       = 0
  Multiplicity = 1
  Basis Set: 6-31G*
  Basis Set:
  @DF-RHF Final Energy:  -170.96243235755611
    Total Energy =                       -170.9624323575561391
    Molecular point group: c1
  Basis Set: 6-31G*
  Basis Set:
  Basis Set: 6-31G*
  Basis Set:
  @DF-RHF Final Energy:  -170.96181292876977
    Total Energy =                       -170.9618129287698025
  Basis Set: 6-31G*
  Basis Set:
  Basis Set: 6-31G*
  Basis Set:
  @DF-RHF Final Energy:  -170.96237918687800
    Total Energy =                       -170.9623791868779676
  Basis Set: 6-31G*
  Basis Set:
  Basis Set: 6-31G*
  Basis Set:
  @DF-RHF Final Energy:  -170.95859984551174
    Total Energy =                       -170.9585998455116851
  Basis Set: 6-31G*
  Basis Set:
  @DF-RHF Final Energy:  -170.95988559372006
    Total Energy =                       -170.9598855937200028
  @DF-RHF Final Energy:  -170.96082708477243
    Total Energy =                       -170.9608270847724896
  @DF-RHF Final Energy:  -170.96141293826048
    Total Energy =                       -170.9614129382605086
  @DF-RHF Final Energy:  -170.96228519973903
    Total Energy =                       -170.9622851997390001
  @DF-RHF Final Energy:  -170.96240046740473
    Total Energy =                       -170.9624004674047058
  @DF-RHF Final Energy:  -170.96023935470498
    Total Energy =                       -170.9602393547048962
  @DF-RHF Final Energy:  -170.96187710199666
    Total Energy =                       -170.9618771019966914
  @DF-RHF Final Energy:  -170.96233366563558
    Total Energy =                       -170.9623336656356116
  @DF-RHF Final Energy:  -170.96100436104425
    Total Energy =                       -170.9610043610441892
  @DF-RHF Final Energy:  -170.96225029803986
    Total Energy =                       -170.9622502980399474
  @DF-RHF Final Energy:  -170.96217278480714
    Total Energy =                       -170.9621727848071089
  @DF-RHF Final Energy:  -170.96230028412216
    Total Energy =                       -170.9623002841221933
  @DF-RHF Final Energy:  -170.93918091604445
    Total Energy =                       -170.9391809160444495
  @DF-RHF Final Energy:  -170.95150685833579
    Total Energy =                       -170.9515068583359323
  @DF-RHF Final Energy:  -170.95915116147796
    Total Energy =                       -170.9591511614779620
  @DF-RHF Final Energy:  -170.96229992289830
    Total Energy =                       -170.9622999228982110
  @DF-RHF Final Energy:  -170.95954846657008
    Total Energy =                       -170.9595484665700269
  @DF-RHF Final Energy:  -170.96224529328526
    Total Energy =                       -170.9622452932852923
  @DF-RHF Final Energy:  -170.86854015984673
    Total Energy =                       -170.8685401598466740
  @DF-RHF Final Energy:  -170.92261317184284
    Total Energy =                       -170.9226131718428690
  @DF-RHF Final Energy:  -170.95010245479281
    Total Energy =                       -170.9501024547928409
  @DF-RHF Final Energy:  -170.95831433220343
    Total Energy =                       -170.9583143322033152
  @DF-RHF Final Energy:  -170.96021820059880
    Total Energy =                       -170.9602182005988595
  @DF-RHF Final Energy:  -170.96199980724919
    Total Energy =                       -170.9619998072491853
  @DF-RHF Final Energy:  -170.96236494109650
    Total Energy =                       -170.9623649410965243
  @DF-RHF Final Energy:  -170.95128246133345
    Total Energy =                       -170.9512824613333350
  @DF-RHF Final Energy:  -170.95918821610979
    Total Energy =                       -170.9591882161097374
  @DF-RHF Final Energy:  -170.96155921939879
    Total Energy =                       -170.9615592193988221
  @DF-RHF Final Energy:  -170.96232047265516
    Total Energy =                       -170.9623204726553070
  @DF-RHF Final Energy:  -170.95079313388982
    Total Energy =                       -170.9507931338898175
  @DF-RHF Final Energy:  -170.96033270980291
    Total Energy =                       -170.9603327098029126
  @DF-RHF Final Energy:  -170.96171164382037
    Total Energy =                       -170.9617116438204221
  Basis Set: 6-31G*
  Basis Set:
  @DF-RHF Final Energy:  -170.96016737169373
    Total Energy =                       -170.9601673716938137
  Basis Set: 6-31G*
  Basis Set:
  Basis Set: 6-31G*
  Basis Set:
  @DF-RHF Final Energy:  -170.96203465924967
    Total Energy =                       -170.9620346592496958
  Basis Set: 6-31G*
  Basis Set:
  Basis Set: 6-31G*
  Basis Set:
  @DF-RHF Final Energy:  -170.96097105373553
    Total Energy =                       -170.9609710537355056
  Basis Set: 6-31G*
  Basis Set:
  Charge       = 0
  Multiplicity = 1
  Basis Set: 6-31G*
  Basis Set:

    Orbital Energies (a.u.)
    -----------------------

    Doubly Occupied:

       1A    -15.569819     2A    -11.284171     3A    -11.272276
       4A    -11.246013     5A     -1.220322     6A     -1.082399
       7A     -0.911646     8A     -0.700875     9A     -0.659388
      10A     -0.587568    11A     -0.560983    12A     -0.543645
      13A     -0.536682    14A     -0.456170    15A     -0.455952

  @DF-RHF Final Energy:  -170.96217556316134

   => Energetics <=

    Nuclear Repulsion Energy =            103.2046341434074606
    One-Electron Energy =                -434.1577971878637072
    Two-Electron Energy =                 159.9909874812950079
    DFT Exchange-Correlation Energy =       0.0000000000000000
    Empirical Dispersion Energy =           0.0000000000000000
    PCM Polarization Energy =               0.0000000000000000
    EFP Energy =                            0.0000000000000000
    Total Energy =                       -170.9621755631612245
    Molecular point group: c1
  Basis Set: 6-31G*
  Basis Set:

  -Total Gradient:
     Atom            X                  Y                   Z
    ------   -----------------  -----------------  -----------------
       1       -0.000101082106     0.000198236427    -0.000010137919
       2        0.000514307437    -0.000414335728    -0.000152263041
       3        0.000668675567     0.001129512118    -0.001072072034
       4       -0.000032697283    -0.000148749584    -0.000099106229
       5        0.000162968391     0.000095515473    -0.000034887957
       6       -0.024144742387     0.008150637192     0.002634507612
       7       -0.001181965839     0.000406433514     0.000176390188
       8        0.000102224343     0.000147760137    -0.000181237160
       9        0.024012311875    -0.009565009550    -0.001261193460

    Molecular point group: c1

    Geometry (in Angstrom), charge = 0, multiplicity = 1:

    H           -2.650506344182     0.033670564977     0.040393850981
    C           -1.664638993410    -0.417668422780     0.045464873327
    C           -0.595503232617     0.679283379244     0.000463192933
    H           -1.584049823948    -1.073298897202    -0.813284201857
    H           -1.566454092118    -1.016953708594     0.942510163878
    C            0.765217272942     0.114719388082     0.015582527599
    H           -0.706881173193     1.286848752776    -0.890477937093
    H           -0.686404463778     1.341526602304     0.853835738304
    N            1.798868657107    -0.363654419600    -0.062282417012

  Mulliken Charges: (a.u.)
   Center  Symbol    Alpha    Beta     Spin     Total
       1     H     0.40907  0.40907  0.00000  0.18185
       2     C     3.24325  3.24325  0.00000 -0.48649
       3     C     3.18174  3.18174  0.00000 -0.36348
       4     H     0.40522  0.40522  0.00000  0.18956
       5     H     0.40534  0.40534  0.00000  0.18933
       6     C     2.84759  2.84759  0.00000  0.30482
       7     H     0.38803  0.38803  0.00000  0.22393
       8     H     0.38847  0.38847  0.00000  0.22306
       9     N     3.73128  3.73128  0.00000 -0.46257

   Total alpha = 15.00000, Total beta = 15.00000, Total charge = -0.00000
