  ==> Input File <==

--------------------------------------------------------------------------
set {
	reference rhf
	basis 6-31G*
}

set_num_threads( 4 )
memory 2 gb

molecule MOL {
0 1

H	 0.018663	 1.795003	 1.884669
C	 0.870430	 1.205956	 1.523673
C	 0.692068	 0.589600	 0.160137
O	 1.843691	 1.090418	 2.195642
C	 -0.558097	 -0.297372	 0.091132
H	 1.588165	 0.029091	 -0.079282
H	 0.599063	 1.400645	 -0.561241
C	 -1.850991	 0.512573	 -0.019058
H	 -0.476753	 -0.965681	 -0.762987
H	 -0.604799	 -0.930658	 0.975228
C	 -3.096943	 -0.368295	 -0.099594
H	 -1.800724	 1.150330	 -0.898172
H	 -1.931651	 1.177355	 0.838044
H	 -3.060452	 -1.020287	 -0.967456
H	 -3.996858	 0.233488	 -0.175704
H	 -3.191959	 -0.995686	 0.782074

	symmetry c1
}
set optking {
	frozen_dihedral = ("
		6 3 5 9
	")
}

ee = optimize('scf')
oeprop('DIPOLE', 'QUADRUPOLE', 'MULLIKEN_CHARGES')
f=open( 'psi4out.xyz', 'w' )
f.write( "16  " )
f.write( str(ee) + "\n" )
f.write( MOL.save_string_xyz() )
f.close()
--------------------------------------------------------------------------

    Molecular point group: c1
  Charge       = 0
  Multiplicity = 1
  Basis Set: 6-31G*
  Basis Set:
  @DF-RHF Final Energy:  -270.01719803989317
    Total Energy =                       -270.0171980398932874
    Molecular point group: c1
  Basis Set: 6-31G*
  Basis Set:
  Basis Set: 6-31G*
  Basis Set:
  @DF-RHF Final Energy:  -270.01748455458664
    Total Energy =                       -270.0174845545863604
  Basis Set: 6-31G*
  Basis Set:
  Basis Set: 6-31G*
  Basis Set:
  @DF-RHF Final Energy:  -270.01431709192826
    Total Energy =                       -270.0143170919282056
  Basis Set: 6-31G*
  Basis Set:
  Basis Set: 6-31G*
  Basis Set:
  @DF-RHF Final Energy:  -270.01757145221870
    Total Energy =                       -270.0175714522184762
  Basis Set: 6-31G*
  Basis Set:
  @DF-RHF Final Energy:  -270.01761006843856
    Total Energy =                       -270.0176100684386711
  Basis Set: 6-31G*
  Basis Set:
  @DF-RHF Final Energy:  -270.01761374554667
    Total Energy =                       -270.0176137455466687
  Basis Set: 6-31G*
  Basis Set:
  Basis Set: 6-31G*
  Basis Set:
  @DF-RHF Final Energy:  -270.01762052790252
    Total Energy =                       -270.0176205279025226
  Basis Set: 6-31G*
  Basis Set:
  Basis Set: 6-31G*
  Basis Set:
  @DF-RHF Final Energy:  -270.01762485990690
    Total Energy =                       -270.0176248599070163
  Basis Set: 6-31G*
  Basis Set:
  Charge       = 0
  Multiplicity = 1
  Basis Set: 6-31G*
  Basis Set:

    Orbital Energies (a.u.)
    -----------------------

    Doubly Occupied:

       1A    -20.561751     2A    -11.326017     3A    -11.236417
       4A    -11.235164     5A    -11.231482     6A    -11.219954
       7A     -1.401535     8A     -1.096385     9A     -1.017788
      10A     -0.905352    11A     -0.826632    12A     -0.784999
      13A     -0.672408    14A     -0.655442    15A     -0.616700
      16A     -0.605919    17A     -0.581473    18A     -0.557507
      19A     -0.536476    20A     -0.510071    21A     -0.487553
      22A     -0.480667    23A     -0.474293    24A     -0.408522

  @DF-RHF Final Energy:  -270.01762562747876

   => Energetics <=

    Nuclear Repulsion Energy =            231.0846342561425502
    One-Electron Energy =                -823.3435109499239388
    Two-Electron Energy =                 322.2412510663024250
    DFT Exchange-Correlation Energy =       0.0000000000000000
    Empirical Dispersion Energy =           0.0000000000000000
    PCM Polarization Energy =               0.0000000000000000
    EFP Energy =                            0.0000000000000000
    Total Energy =                       -270.0176256274789921
    Molecular point group: c1
  Basis Set: 6-31G*
  Basis Set:

  -Total Gradient:
     Atom            X                  Y                   Z
    ------   -----------------  -----------------  -----------------
       1        0.000004796712    -0.000008895110     0.000007998075
       2       -0.000000107647     0.000009546239    -0.000089891055
       3        0.000173651289    -0.000347977896     0.001067147715
       4        0.000020945385     0.000001240049     0.000047310394
       5       -0.000421863781     0.000669335963    -0.000711653223
       6       -0.000079235709     0.000183707571    -0.000724964489
       7       -0.000004739153     0.000016404487    -0.000009351076
       8        0.000039574755    -0.000015784163    -0.000017837099
       9        0.000321270683    -0.000503909965     0.000424484084
      10       -0.000011332260    -0.000008552343     0.000002980959
      11       -0.000026490604     0.000000654927     0.000007713924
      12       -0.000018790284    -0.000003377932    -0.000003390072
      13       -0.000003079926    -0.000001338365    -0.000002809247
      14        0.000005152029     0.000010795093    -0.000000136510
      15       -0.000007807367    -0.000002809668     0.000005754030
      16        0.000008055875     0.000000961112    -0.000003356413

  **** Optimization is complete! (in 9 steps) ****
    Final optimized geometry and variables:
    Molecular point group: c1

    Geometry (in Angstrom), charge = 0, multiplicity = 1:

    H            0.394187397811     1.262243658849     1.325034306978
    C            1.254865064330     0.741739933120     0.892147765000
    C            1.038550345813     0.113002070395    -0.461386440710
    O            2.282906727349     0.701684454085     1.488024647543
    C           -0.234417747037    -0.747385695852    -0.541830470200
    H            1.921124010713    -0.470644743795    -0.693994160527
    H            0.979508176251     0.916681576622    -1.194822214787
    C           -1.535211981371     0.051100716535    -0.666582187932
    H           -0.141931168797    -1.407920736880    -1.399128965553
    H           -0.286767228699    -1.398630638837     0.328743036509
    C           -2.767748935861    -0.847780439006    -0.756787719966
    H           -1.481482342932     0.681518298351    -1.551370317076
    H           -1.647817915188     0.723848377297     0.180066301641
    H           -2.707226154831    -1.509332616448    -1.616079122629
    H           -3.674699859907    -0.259949855103    -0.854441108046
    H           -2.867795302671    -1.466398998465     0.130264193377

  Mulliken Charges: (a.u.)
   Center  Symbol    Alpha    Beta     Spin     Total
       1     H     0.43058  0.43058  0.00000  0.13883
       2     C     2.83009  2.83009  0.00000  0.33982
       3     C     3.21097  3.21097  0.00000 -0.42194
       4     O     4.23865  4.23865  0.00000 -0.47731
       5     C     3.16578  3.16578  0.00000 -0.33156
       6     H     0.39707  0.39707  0.00000  0.20587
       7     H     0.40771  0.40771  0.00000  0.18458
       8     C     3.15605  3.15605  0.00000 -0.31209
       9     H     0.41196  0.41196  0.00000  0.17608
      10     H     0.41500  0.41500  0.00000  0.16999
      11     C     3.24013  3.24013  0.00000 -0.48026
      12     H     0.41985  0.41985  0.00000  0.16029
      13     H     0.42111  0.42111  0.00000  0.15779
      14     H     0.41954  0.41954  0.00000  0.16093
      15     H     0.41628  0.41628  0.00000  0.16744
      16     H     0.41923  0.41923  0.00000  0.16154

   Total alpha = 24.00000, Total beta = 24.00000, Total charge =  0.00000
