                              Psi4 1.0.54 Driver

  ==> Input File <==

--------------------------------------------------------------------------
set {
	reference rhf
	basis cc-pvtz
}

set_num_threads( 4 )
memory 2 gb

molecule MOL {
0 1

H	 -2.768383	 2.973534	 -1.413602
O	 -2.071028	 2.389108	 -1.646707
C	 -1.555812	 1.769706	 -0.498093
C	 -0.436199	 0.837238	 -0.914137
H	 -1.177845	 2.514616	 0.199061
H	 -2.334742	 1.208040	 0.013405
C	 0.196029	 0.106276	 0.266738
H	 0.316343	 1.416767	 -1.439539
H	 -0.832157	 0.121460	 -1.627436
C	 1.330220	 -0.826136	 -0.155230
H	 0.564048	 0.835939	 0.981488
H	 -0.565691	 -0.472688	 0.784586
C	 2.719700	 -0.407669	 0.328325
H	 1.339388	 -0.911200	 -1.239363
H	 1.119001	 -1.821953	 0.224128
C	 3.241564	 0.893452	 -0.276737
H	 3.418299	 -1.204729	 0.093035
H	 2.711776	 -0.323368	 1.411960
H	 3.254204	 0.841071	 -1.360784
H	 2.634460	 1.745075	 0.005842
H	 4.254264	 1.092401	 0.054971

	symmetry c1
}
set optking {
	frozen_dihedral = ("
		4 7 10 14
	")
}

ee,wfn = optimize('scf', return_wfn=True)
oeprop( wfn, 'DIPOLE', 'QUADRUPOLE', 'MULLIKEN_CHARGES')
f=open( 'psi4out.xyz', 'w' )
f.write( "21  " )
f.write( str(ee) + "\n" )
f.write( MOL.save_string_xyz() )
f.close()
--------------------------------------------------------------------------

    Molecular point group: c1
  Charge       = 0
  Multiplicity = 1
  Basis Set: CC-PVTZ
  Basis Set:
  @DF-RHF Final Energy:  -310.32762788006488
    Total Energy =                       -310.3276278800648242
    Molecular point group: c1
  Basis Set: CC-PVTZ
  Basis Set:
  Basis Set: CC-PVTZ
  Basis Set:
  @DF-RHF Final Energy:  -310.32792644085299
    Total Energy =                       -310.3279264408531049
  Basis Set: CC-PVTZ
  Basis Set:
  Basis Set: CC-PVTZ
  Basis Set:
  @DF-RHF Final Energy:  -310.32798817327676
    Total Energy =                       -310.3279881732772765
  Basis Set: CC-PVTZ
  Basis Set:
  Basis Set: CC-PVTZ
  Basis Set:
  @DF-RHF Final Energy:  -310.32798293026491
    Total Energy =                       -310.3279829302654207
  Basis Set: CC-PVTZ
  Basis Set:
  Basis Set: CC-PVTZ
  Basis Set:
  @DF-RHF Final Energy:  -310.32799722202463
    Total Energy =                       -310.3279972220245782
  Basis Set: CC-PVTZ
  Basis Set:
  Charge       = 0
  Multiplicity = 1
  Basis Set: CC-PVTZ
  Basis Set:

    Orbital Energies (a.u.)
    -----------------------

    Doubly Occupied:

       1A    -20.545357     2A    -11.264743     3A    -11.213375
       4A    -11.212930     5A    -11.211044     6A    -11.208982
       7A    -11.205485     8A     -1.363186     9A     -1.085724
      10A     -1.033013    11A     -0.954901    12A     -0.877008
      13A     -0.807732    14A     -0.779249    15A     -0.695920
      16A     -0.661311    17A     -0.620235    18A     -0.611717
      19A     -0.588708    20A     -0.557193    21A     -0.553402
      22A     -0.520616    23A     -0.500549    24A     -0.496041
      25A     -0.481366    26A     -0.459855    27A     -0.449662
      28A     -0.443394    29A     -0.437486

  @DF-RHF Final Energy:  -310.32799726461280

   => Energetics <=

    Nuclear Repulsion Energy =            317.4905496289602524
    One-Electron Energy =               -1049.9567262897869568
    Two-Electron Energy =                 422.1381793962137863
    DFT Exchange-Correlation Energy =       0.0000000000000000
    Empirical Dispersion Energy =           0.0000000000000000
    PCM Polarization Energy =               0.0000000000000000
    EFP Energy =                            0.0000000000000000
    Total Energy =                       -310.3279972646129181
    Molecular point group: c1
  Basis Set: CC-PVTZ
  Basis Set:

  -Total Gradient:
     Atom            X                  Y                   Z
    ------   -----------------  -----------------  -----------------
       1        0.000001419033    -0.000002307347     0.000003005659
       2        0.000002737605    -0.000001114673    -0.000005955855
       3        0.000001917019    -0.000001519960     0.000010984088
       4       -0.000384209692    -0.000435288676    -0.000076694233
       5        0.000000735025    -0.000000199841    -0.000001181370
       6       -0.000000436512    -0.000000261757    -0.000001619065
       7        0.000660499050     0.000744266700     0.000088875103
       8        0.000003814409     0.000001266424     0.000003094824
       9       -0.000001459870    -0.000000449052    -0.000000970431
      10       -0.000768592195    -0.000911591490     0.000025725768
      11        0.000004073901     0.000004359198    -0.000004434738
      12       -0.000000584888    -0.000009242709    -0.000000304633
      13       -0.000003225007    -0.000003107547    -0.000003719904
      14        0.000492772505     0.000615889927    -0.000039229028
      15       -0.000006843244    -0.000000473414     0.000007119114
      16        0.000004693289     0.000001674108     0.000000475247
      17       -0.000006344304     0.000000108554    -0.000006932861
      18        0.000003020038    -0.000002795581     0.000000609632
      19        0.000007656470    -0.000002163687    -0.000005069753
      20       -0.000010633474     0.000002571818    -0.000001619957
      21       -0.000001009162     0.000000379009     0.000007842391

  **** Optimization is complete! (in 6 steps) ****
    Final optimized geometry and variables:
    Molecular point group: c1

    Geometry (in Angstrom), charge = 0, multiplicity = 1:

    H           -3.208460281643     2.274486447608    -0.928381574746
    O           -2.517212309919     1.688872609265    -1.176031158237
    C           -1.991517794369     1.054501530365    -0.040393443572
    C           -0.881607421192     0.121335034612    -0.479318063426
    H           -1.601749459431     1.790036890252     0.660368516111
    H           -2.767017274546     0.491133020164     0.474528308060
    C           -0.245863674810    -0.632720033663     0.686477048166
    H           -0.131917271636     0.701363277460    -1.007186571297
    H           -1.288804267925    -0.584870114271    -1.195755352094
    C            0.897894286594    -1.580309520958     0.267003406832
    H            0.119437171483     0.079529169872     1.420655126143
    H           -1.018616732744    -1.204717605841     1.190516501521
    C            2.287362856487    -1.161761716391     0.753395855902
    H            0.921092660850    -1.664457718138    -0.815714751475
    H            0.694841992569    -2.577189668913     0.641850038780
    C            2.801983433247     0.141189212634     0.147663789506
    H            2.989686301908    -1.956463398971     0.520311461290
    H            2.275257160864    -1.076345209306     1.836836450905
    H            2.860698651939     0.070946894536    -0.933510079631
    H            2.159815088168     0.980581191335     0.388501515861
    H            3.793940868120     0.373794131675     0.517872932781

  Mulliken Charges: (a.u.)
   Center  Symbol    Alpha    Beta     Spin     Total
       1     H     0.39741  0.39741  0.00000  0.20518
       2     O     4.19507  4.19507  0.00000 -0.39013
       3     C     2.96412  2.96412  0.00000  0.07177
       4     C     3.08476  3.08476  0.00000 -0.16952
       5     H     0.47486  0.47486  0.00000  0.05028
       6     H     0.47451  0.47451  0.00000  0.05098
       7     C     3.11795  3.11795  0.00000 -0.23589
       8     H     0.44894  0.44894  0.00000  0.10211
       9     H     0.44970  0.44970  0.00000  0.10060
      10     C     3.09892  3.09892  0.00000 -0.19784
      11     H     0.45256  0.45256  0.00000  0.09487
      12     H     0.44487  0.44487  0.00000  0.11025
      13     C     3.08689  3.08689  0.00000 -0.17378
      14     H     0.45328  0.45328  0.00000  0.09343
      15     H     0.44412  0.44412  0.00000  0.11177
      16     C     3.15509  3.15509  0.00000 -0.31018
      17     H     0.44938  0.44938  0.00000  0.10125
      18     H     0.45536  0.45536  0.00000  0.08928
      19     H     0.45292  0.45292  0.00000  0.09416
      20     H     0.45425  0.45425  0.00000  0.09150
      21     H     0.44505  0.44505  0.00000  0.10989

   Total alpha = 29.00000, Total beta = 29.00000, Total charge =  0.00000

*** Psi4 exiting successfully. Buy a developer a beer!
