  ==> Input File <==

--------------------------------------------------------------------------
set {
	reference rhf
	basis 6-31G*
}

set_num_threads( 1 )
memory 2 gb

molecule MOL {
0 1

H	 -3.261111	 -0.295142	 1.469456
C	 -3.306842	 -0.277400	 0.373456
C	 -2.660244	 0.921717	 -0.272021
O	 -3.838538	 -1.161155	 -0.216482
C	 -3.675828	 1.825990	 -0.984155
H	 -2.108394	 1.463128	 0.487613
H	 -1.943435	 0.545049	 -1.000692
C	 -4.650675	 2.519385	 -0.029076
H	 -3.131091	 2.575524	 -1.550499
H	 -4.231665	 1.239879	 -1.714412
C	 -5.649317	 3.425946	 -0.751348
H	 -4.085473	 3.104587	 0.693373
H	 -5.195180	 1.774162	 0.547723
C	 -6.612331	 4.130227	 0.208100
H	 -5.099937	 4.161321	 -1.333704
H	 -6.221728	 2.835076	 -1.465212
C	 -7.684830	 4.985769	 -0.475906
H	 -6.043306	 4.751944	 0.897573
H	 -7.108294	 3.377811	 0.817694
C	 -7.143578	 6.205338	 -1.223782
H	 -8.386989	 5.325518	 0.281387
H	 -8.256924	 4.365103	 -1.162494
H	 -6.552962	 6.836568	 -0.565002
H	 -6.515403	 5.922479	 -2.061852
H	 -7.956787	 6.808293	 -1.616376

	symmetry c1
}
set optking {
	frozen_dihedral = ("
		6 3 5 8,
		3 5 8 12,
		12 8 11 14,
		8 11 14 18,
		20 17 14 18
	")
}

ee = energy('scf')
oeprop('DIPOLE', 'QUADRUPOLE', 'MULLIKEN_CHARGES')
f=open( 'psi4out.xyz', 'w' )
f.write( "25  " )
f.write( str(ee) + "\n" )
f.write( MOL.save_string_xyz() )
f.close()
--------------------------------------------------------------------------

    Molecular point group: c1

    Geometry (in Angstrom), charge = 0, multiplicity = 1:

       Center              X                  Y                   Z               Mass
    ------------   -----------------  -----------------  -----------------  -----------------
           H          1.771457311624    -2.804436752519     1.849191449679     1.007825032070
           C          1.725726311624    -2.786694752519     0.753191449679    12.000000000000
           C          2.372324311624    -1.587577752519     0.107714449679    12.000000000000
           O          1.194030311624    -3.670449752519     0.163253449679    15.994914619560
           C          1.356740311624    -0.683304752519    -0.604419550321    12.000000000000
           H          2.924174311624    -1.046166752519     0.867348449679     1.007825032070
           H          3.089133311624    -1.964245752519    -0.620956550321     1.007825032070
           C          0.381893311624     0.010090247481     0.350659449679    12.000000000000
           H          1.901477311624     0.066229247481    -1.170763550321     1.007825032070
           H          0.800903311624    -1.269415752519    -1.334676550321     1.007825032070
           C         -0.616748688376     0.916651247481    -0.371612550321    12.000000000000
           H          0.947095311624     0.595292247481     1.073108449679     1.007825032070
           H         -0.162611688376    -0.735132752519     0.927458449679     1.007825032070
           C         -1.579762688376     1.620932247481     0.587835449679    12.000000000000
           H         -0.067368688376     1.652026247481    -0.953968550321     1.007825032070
           H         -1.189159688376     0.325781247481    -1.085476550321     1.007825032070
           C         -2.652261688376     2.476474247481    -0.096170550321    12.000000000000
           H         -1.010737688376     2.242649247481     1.277308449679     1.007825032070
           H         -2.075725688376     0.868516247481     1.197429449679     1.007825032070
           C         -2.111009688376     3.696043247481    -0.844046550321    12.000000000000
           H         -3.354420688376     2.816223247481     0.661122449679     1.007825032070
           H         -3.224355688376     1.855808247481    -0.782758550321     1.007825032070
           H         -1.520393688376     4.327273247481    -0.185266550321     1.007825032070
           H         -1.482834688376     3.413184247481    -1.682116550321     1.007825032070
           H         -2.924218688376     4.298998247481    -1.236640550321     1.007825032070

  Charge       = 0
  Multiplicity = 1
  Basis Set: 6-31G*
  Basis Set:

    Orbital Energies (a.u.)
    -----------------------

    Doubly Occupied:

       1A    -20.562338     2A    -11.326153     3A    -11.234433
       4A    -11.231054     5A    -11.223564     6A    -11.218524
       7A    -11.217393     8A    -11.216591     9A    -11.210105
      10A     -1.402571    11A     -1.101738    12A     -1.067804
      13A     -1.012405    14A     -0.942949    15A     -0.877534
      16A     -0.824713    17A     -0.781515    18A     -0.768687
      19A     -0.685179    20A     -0.652553    21A     -0.631965
      22A     -0.622396    23A     -0.597434    24A     -0.592605
      25A     -0.578138    26A     -0.549465    27A     -0.535655
      28A     -0.523353    29A     -0.505978    30A     -0.494052
      31A     -0.490423    32A     -0.477706    33A     -0.463987
      34A     -0.458322    35A     -0.439652    36A     -0.408198

  @DF-RHF Final Energy:  -387.11997621356949

   => Energetics <=

    Nuclear Repulsion Energy =            440.6957884895080610
    One-Electron Energy =               -1397.7773951519825459
    Two-Electron Energy =                 569.9616304489061349
    DFT Exchange-Correlation Energy =       0.0000000000000000
    Empirical Dispersion Energy =           0.0000000000000000
    PCM Polarization Energy =               0.0000000000000000
    EFP Energy =                            0.0000000000000000
    Total Energy =                       -387.1199762135684068

  Mulliken Charges: (a.u.)
   Center  Symbol    Alpha    Beta     Spin     Total
       1     H     0.42929  0.42929  0.00000  0.14142
       2     C     2.84178  2.84178  0.00000  0.31643
       3     C     3.20297  3.20297  0.00000 -0.40594
       4     O     4.23753  4.23753  0.00000 -0.47505
       5     C     3.15848  3.15848  0.00000 -0.31696
       6     H     0.41585  0.41585  0.00000  0.16830
       7     H     0.39919  0.39919  0.00000  0.20163
       8     C     3.15720  3.15720  0.00000 -0.31440
       9     H     0.41580  0.41580  0.00000  0.16840
      10     H     0.40614  0.40614  0.00000  0.18773
      11     C     3.15438  3.15438  0.00000 -0.30875
      12     H     0.42311  0.42311  0.00000  0.15377
      13     H     0.41993  0.41993  0.00000  0.16014
      14     C     3.15309  3.15309  0.00000 -0.30618
      15     H     0.42092  0.42092  0.00000  0.15816
      16     H     0.42061  0.42061  0.00000  0.15878
      17     C     3.15275  3.15275  0.00000 -0.30549
      18     H     0.42447  0.42447  0.00000  0.15107
      19     H     0.42116  0.42116  0.00000  0.15768
      20     C     3.24136  3.24136  0.00000 -0.48271
      21     H     0.42047  0.42047  0.00000  0.15906
      22     H     0.42225  0.42225  0.00000  0.15550
      23     H     0.42249  0.42249  0.00000  0.15501
      24     H     0.42018  0.42018  0.00000  0.15964
      25     H     0.41863  0.41863  0.00000  0.16274

   Total alpha = 36.00000, Total beta = 36.00000, Total charge = -0.00000
