  ==> Input File <==

--------------------------------------------------------------------------
set {
	reference rhf
	basis cc-pvtz
}

set_num_threads( 4 )
memory 2 gb

molecule MOL {
0 1

H	 -2.510522	 1.684322	 1.929330
C	 -2.050704	 0.722807	 2.145989
O	 -0.771730	 0.639191	 1.612346
H	 -1.970091	 0.609606	 3.217239
H	 -2.697641	 -0.062592	 1.759330
C	 -0.718530	 0.758693	 0.228682
C	 0.718529	 0.758687	 -0.228709
H	 -1.238809	 -0.075210	 -0.242365
H	 -1.197359	 1.679663	 -0.096844
O	 1.401606	 -0.295166	 0.366636
H	 0.748705	 0.673477	 -1.312803
H	 1.176496	 1.708671	 0.046552
C	 2.714315	 -0.441627	 -0.061017
H	 2.765292	 -0.641548	 -1.128869
H	 3.305661	 0.447341	 0.150952
H	 3.143725	 -1.278506	 0.470147

	symmetry c1
}
set optking {
	frozen_dihedral = ("
		3 6 7 11
	")
}

ee = optimize('scf')
oeprop('DIPOLE', 'QUADRUPOLE', 'MULLIKEN_CHARGES')
f=open( 'psi4out.xyz', 'w' )
f.write( "16  " )
f.write( str(ee) + "\n" )
f.write( MOL.save_string_xyz() )
f.close()
--------------------------------------------------------------------------

    Molecular point group: c1
  Charge       = 0
  Multiplicity = 1
  Basis Set: CC-PVTZ
  Basis Set:
  @DF-RHF Final Energy:  -307.09470893740405
    Total Energy =                       -307.0947089374041639
    Molecular point group: c1
  Basis Set: CC-PVTZ
  Basis Set:
  Basis Set: CC-PVTZ
  Basis Set:
  @DF-RHF Final Energy:  -307.09521244728234
    Total Energy =                       -307.0952124472823925
  Basis Set: CC-PVTZ
  Basis Set:
  Basis Set: CC-PVTZ
  Basis Set:
  @DF-RHF Final Energy:  -307.09534547002943
    Total Energy =                       -307.0953454700296561
  Basis Set: CC-PVTZ
  Basis Set:
  Charge       = 0
  Multiplicity = 1
  Basis Set: CC-PVTZ
  Basis Set:

    Orbital Energies (a.u.)
    -----------------------

    Doubly Occupied:

       1A    -20.546729     2A    -20.545849     3A    -11.268661
       4A    -11.267974     5A    -11.261114     6A    -11.260785
       7A     -1.392325     8A     -1.372693     9A     -1.030953
      10A     -0.935536    11A     -0.894728    12A     -0.821160
      13A     -0.689361    14A     -0.679554    15A     -0.659883
      16A     -0.642229    17A     -0.625097    18A     -0.596070
      19A     -0.562899    20A     -0.527707    21A     -0.509043
      22A     -0.476287    23A     -0.466672    24A     -0.417083
      25A     -0.416109

  @DF-RHF Final Energy:  -307.09534816830393

   => Energetics <=

    Nuclear Repulsion Energy =            259.9242984936295784
    One-Electron Energy =                -934.3062959699557268
    Two-Electron Energy =                 367.2866493080218788
    DFT Exchange-Correlation Energy =       0.0000000000000000
    Empirical Dispersion Energy =           0.0000000000000000
    PCM Polarization Energy =               0.0000000000000000
    EFP Energy =                            0.0000000000000000
    Total Energy =                       -307.0953481683043265
    Molecular point group: c1
  Basis Set: CC-PVTZ
  Basis Set:

  -Total Gradient:
     Atom            X                  Y                   Z
    ------   -----------------  -----------------  -----------------
       1       -0.000017365390    -0.000009305212     0.000014542772
       2        0.000013600863     0.000053335856    -0.000032686600
       3       -0.000243944987    -0.005056688003    -0.000224790859
       4       -0.000003410859    -0.000014471799     0.000000121787
       5       -0.000017670901    -0.000016349938     0.000004079432
       6        0.000332101413     0.005255919000     0.000401829269
       7       -0.000092035437     0.006103790099    -0.000855264661
       8        0.000008922473     0.000011628815    -0.000002517490
       9        0.000000331689     0.000014000682     0.000094634289
      10       -0.000053408478     0.000099683124    -0.000011866872
      11        0.000061787078    -0.006403186294     0.000659797501
      12       -0.000018226561    -0.000027159741     0.000000051477
      13        0.000017738871    -0.000034870911    -0.000068671846
      14        0.000033957984     0.000002296884    -0.000005021363
      15       -0.000010379881    -0.000000698933     0.000012260495
      16       -0.000011997874     0.000022076371     0.000013502672

  **** Optimization is complete! (in 4 steps) ****
    Final optimized geometry and variables:
    Molecular point group: c1

    Geometry (in Angstrom), charge = 0, multiplicity = 1:

    H           -2.807514158534     1.256308331149     1.217072839513
    C           -2.262287316026     0.348933379391     1.470468287281
    O           -0.977221286152     0.359885582790     0.945979777654
    H           -2.179501822018     0.282413209825     2.545393198861
    H           -2.831581775289    -0.505356141503     1.110186867328
    C           -0.928057614622     0.431424056588    -0.438066435080
    C            0.505696068162     0.395605081393    -0.918538122667
    H           -1.467851909830    -0.410142862107    -0.869988787806
    H           -1.396521260076     1.346099033043    -0.801307206941
    O            1.161113387589    -0.693815028586    -0.356854613810
    H            0.492910747493     0.273217509320    -2.001709708330
    H            1.017568272530     1.321648815209    -0.666985145807
    C            2.490962344822    -0.814274604058    -0.734725787566
    H            2.592815328600    -0.941229570929    -1.811230164846
    H            3.070922473520     0.056424313752    -0.436076782406
    H            2.896445190765    -1.686236027144    -0.242700816161

  Mulliken Charges: (a.u.)
   Center  Symbol    Alpha    Beta     Spin     Total
       1     H     0.47352  0.47352  0.00000  0.05297
       2     C     3.03138  3.03138  0.00000 -0.06277
       3     O     4.16484  4.16484  0.00000 -0.32968
       4     H     0.44588  0.44588  0.00000  0.10825
       5     H     0.47161  0.47161  0.00000  0.05678
       6     C     2.96288  2.96288  0.00000  0.07424
       7     C     2.96423  2.96423  0.00000  0.07154
       8     H     0.47366  0.47366  0.00000  0.05268
       9     H     0.47595  0.47595  0.00000  0.04809
      10     O     4.16546  4.16546  0.00000 -0.33093
      11     H     0.47611  0.47611  0.00000  0.04779
      12     H     0.47131  0.47131  0.00000  0.05739
      13     C     3.03125  3.03125  0.00000 -0.06251
      14     H     0.47426  0.47426  0.00000  0.05149
      15     H     0.47164  0.47164  0.00000  0.05671
      16     H     0.44602  0.44602  0.00000  0.10796

   Total alpha = 25.00000, Total beta = 25.00000, Total charge = -0.00000
