                              Psi4 1.0.54 Driver

  ==> Input File <==

--------------------------------------------------------------------------
set {
	reference rhf
	basis cc-pvtz
}

set_num_threads( 4 )
memory 2 gb

molecule MOL {
0 1

H	 -0.000105	 1.988529	 0.748933
O	 -0.000098	 1.879786	 -0.188206
C	 -0.000014	 0.545691	 -0.532416
C	 0.575056	 0.362932	 -1.938002
C	 -1.395196	 -0.050227	 -0.337167
H	 0.660716	 0.027643	 0.147086
F	 1.801563	 0.823015	 -1.967401
F	 0.608373	 -0.893927	 -2.302565
F	 -0.123138	 1.030494	 -2.831457
F	 -1.749397	 0.078366	 0.917769
F	 -1.439299	 -1.323317	 -0.638845
F	 -2.290241	 0.576067	 -1.070670

	symmetry c1
}
set optking {
	frozen_dihedral = ("
		6 3 2 1
	")
}

ee,wfn = optimize('scf', return_wfn=True)
oeprop( wfn, 'DIPOLE', 'QUADRUPOLE', 'MULLIKEN_CHARGES')
f=open( 'psi4out.xyz', 'w' )
f.write( "12  " )
f.write( str(ee) + "\n" )
f.write( MOL.save_string_xyz() )
f.close()
--------------------------------------------------------------------------

    Molecular point group: c1
  Charge       = 0
  Multiplicity = 1
  Basis Set: CC-PVTZ
  Basis Set:
  @DF-RHF Final Energy:  -786.58597134509841
    Total Energy =                       -786.5859713450983008
    Molecular point group: c1
  Basis Set: CC-PVTZ
  Basis Set:
  Basis Set: CC-PVTZ
  Basis Set:
  @DF-RHF Final Energy:  -786.57856889178561
    Total Energy =                       -786.5785688917844709
  Basis Set: CC-PVTZ
  Basis Set:
  Basis Set: CC-PVTZ
  Basis Set:
  @DF-RHF Final Energy:  -786.58775154259513
    Total Energy =                       -786.5877515425952424
  Basis Set: CC-PVTZ
  Basis Set:
  Basis Set: CC-PVTZ
  Basis Set:
  @DF-RHF Final Energy:  -786.58799953072730
    Total Energy =                       -786.5879995307277568
  Basis Set: CC-PVTZ
  Basis Set:
  Basis Set: CC-PVTZ
  Basis Set:
  @DF-RHF Final Energy:  -786.58807122384144
    Total Energy =                       -786.5880712238410979
  Basis Set: CC-PVTZ
  Basis Set:
  Basis Set: CC-PVTZ
  Basis Set:
  @DF-RHF Final Energy:  -786.58808501083467
    Total Energy =                       -786.5880850108338791
  Basis Set: CC-PVTZ
  Basis Set:
  Basis Set: CC-PVTZ
  Basis Set:
  @DF-RHF Final Energy:  -786.58808747154796
    Total Energy =                       -786.5880874715483060
  Basis Set: CC-PVTZ
  Basis Set:
  Charge       = 0
  Multiplicity = 1
  Basis Set: CC-PVTZ
  Basis Set:

    Orbital Energies (a.u.)
    -----------------------

    Doubly Occupied:

       1A    -26.355789     2A    -26.354387     3A    -26.352423
       4A    -26.351733     5A    -26.348686     6A    -26.348121
       7A    -20.609642     8A    -11.516795     9A    -11.516031
      10A    -11.351670    11A     -1.768083    12A     -1.761673
      13A     -1.662654    14A     -1.661422    15A     -1.657169
      16A     -1.656000    17A     -1.439787    18A     -1.103645
      19A     -0.998524    20A     -0.939966    21A     -0.870395
      22A     -0.862375    23A     -0.858215    24A     -0.847406
      25A     -0.836762    26A     -0.787399    27A     -0.766462
      28A     -0.734028    29A     -0.727730    30A     -0.723421
      31A     -0.721037    32A     -0.687430    33A     -0.683572
      34A     -0.673967    35A     -0.673615    36A     -0.664770
      37A     -0.658513    38A     -0.633030    39A     -0.622812
      40A     -0.555632    41A     -0.509611

  @DF-RHF Final Energy:  -786.58808824352582

   => Energetics <=

    Nuclear Repulsion Energy =            670.5306635964643647
    One-Electron Energy =               -2428.5327373639538564
    Two-Electron Energy =                 971.4139855239641292
    DFT Exchange-Correlation Energy =       0.0000000000000000
    Empirical Dispersion Energy =           0.0000000000000000
    PCM Polarization Energy =               0.0000000000000000
    EFP Energy =                            0.0000000000000000
    Total Energy =                       -786.5880882435253625
    Molecular point group: c1
  Basis Set: CC-PVTZ
  Basis Set:

  -Total Gradient:
     Atom            X                  Y                   Z
    ------   -----------------  -----------------  -----------------
       1        0.000571421764    -0.000096363854     0.000088955068
       2       -0.000836766445     0.000145911622    -0.000076616117
       3        0.000716550155    -0.000064284457    -0.000272013578
       4       -0.000037430457     0.000094803362    -0.000102298935
       5        0.000050230575     0.000058902568    -0.000118990124
       6       -0.000472193297     0.000008580978     0.000240859447
       7        0.000079407150    -0.000009619811     0.000047647136
       8       -0.000019502216    -0.000038354667     0.000018550090
       9        0.000000693384    -0.000024446628     0.000048989056
      10       -0.000023306286     0.000020065225     0.000070566146
      11       -0.000015738938    -0.000048488425    -0.000006930099
      12       -0.000013365391    -0.000046705918     0.000061281913

  **** Optimization is complete! (in 8 steps) ****
    Final optimized geometry and variables:
    Molecular point group: c1

    Geometry (in Angstrom), charge = 0, multiplicity = 1:

    H            0.509212420380     1.920673715468     1.576974141789
    O            0.591548995704     1.625312238697     0.687892657687
    C            0.381735615986     0.265572711004     0.596713520516
    C            1.083250948306    -0.208364171618    -0.673880916386
    C           -1.116089410383    -0.041948551025     0.641854634596
    H            0.828170444463    -0.284972911894     1.416693760110
    F            2.375723826197    -0.024959487734    -0.546365337036
    F            0.878692847810    -1.489948780049    -0.872786812810
    F            0.683956961209     0.438612183481    -1.735833688631
    F           -1.613413218225     0.494903013320     1.739320912048
    F           -1.342865752985    -1.332016785024     0.696678669754
    F           -1.771444657176     0.448636725595    -0.375638612366

  Mulliken Charges: (a.u.)
   Center  Symbol    Alpha    Beta     Spin     Total
       1     H     0.38264  0.38264  0.00000  0.23472
       2     O     4.18521  4.18521  0.00000 -0.37041
       3     C     3.00041  3.00041  0.00000 -0.00082
       4     C     2.67656  2.67656  0.00000  0.64688
       5     C     2.68153  2.68153  0.00000  0.63694
       6     H     0.44449  0.44449  0.00000  0.11102
       7     F     4.60463  4.60463  0.00000 -0.20927
       8     F     4.60559  4.60559  0.00000 -0.21117
       9     F     4.60117  4.60117  0.00000 -0.20235
      10     F     4.61275  4.61275  0.00000 -0.22549
      11     F     4.60476  4.60476  0.00000 -0.20952
      12     F     4.60026  4.60026  0.00000 -0.20053

   Total alpha = 41.00000, Total beta = 41.00000, Total charge =  0.00000

*** Psi4 exiting successfully. Buy a developer a beer!
