                              Psi4 1.0.54 Driver

  ==> Input File <==

--------------------------------------------------------------------------
set {
	reference rhf
	basis cc-pvtz
}

set_num_threads( 4 )
memory 2 gb

molecule MOL {
0 1

H	 -2.149496	 -2.244167	 0.000000
O	 -2.454378	 -1.354528	 0.000000
C	 -1.430628	 -0.482077	 0.000000
C	 -1.082639	 0.095381	 -1.212484
C	 -0.734530	 -0.153911	 1.144105
H	 -1.636028	 -0.172819	 -2.090470
C	 -0.043022	 0.995096	 -1.271798
H	 -0.993117	 -0.593108	 2.088662
C	 0.311703	 0.755538	 1.067113
H	 0.219612	 1.436992	 -2.213120
C	 0.666861	 1.336396	 -0.133681
C	 1.034603	 1.093137	 2.269091
H	 1.476351	 2.036274	 -0.176936
N	 1.597757	 1.354869	 3.210918

	symmetry c1
}
set optking {
	frozen_dihedral = ("
		5 3 2 1
	")
}

ee,wfn = optimize('scf', return_wfn=True)
oeprop( wfn, 'DIPOLE', 'QUADRUPOLE', 'MULLIKEN_CHARGES')
f=open( 'psi4out.xyz', 'w' )
f.write( "14  " )
f.write( str(ee) + "\n" )
f.write( MOL.save_string_xyz() )
f.close()
--------------------------------------------------------------------------

    Molecular point group: c1
  Charge       = 0
  Multiplicity = 1
  Basis Set: CC-PVTZ
  Basis Set:
  @DF-RHF Final Energy:  -397.42794298519749
    Total Energy =                       -397.4279429851974328
    Molecular point group: c1
  Basis Set: CC-PVTZ
  Basis Set:
  Basis Set: CC-PVTZ
  Basis Set:
  @DF-RHF Final Energy:  -397.42869422229825
    Total Energy =                       -397.4286942222984180
  Basis Set: CC-PVTZ
  Basis Set:
  Basis Set: CC-PVTZ
  Basis Set:
  @DF-RHF Final Energy:  -397.42881494630768
    Total Energy =                       -397.4288149463075115
  Basis Set: CC-PVTZ
  Basis Set:
  Basis Set: CC-PVTZ
  Basis Set:
  @DF-RHF Final Energy:  -397.42882533025994
    Total Energy =                       -397.4288253302598832
  Basis Set: CC-PVTZ
  Basis Set:
  Charge       = 0
  Multiplicity = 1
  Basis Set: CC-PVTZ
  Basis Set:

    Orbital Energies (a.u.)
    -----------------------

    Doubly Occupied:

       1A    -20.593209     2A    -15.564977     3A    -11.316403
       4A    -11.291487     5A    -11.268591     6A    -11.262174
       7A    -11.261883     8A    -11.259863     9A    -11.256043
      10A     -1.421875    11A     -1.238094    12A     -1.187617
      13A     -1.066708    14A     -1.042963    15A     -0.895955
      16A     -0.865860    17A     -0.784927    18A     -0.715957
      19A     -0.701615    20A     -0.684132    21A     -0.636982
      22A     -0.624507    23A     -0.570387    24A     -0.558396
      25A     -0.556580    26A     -0.549037    27A     -0.502965
      28A     -0.485543    29A     -0.478651    30A     -0.367144
      31A     -0.356106

  @DF-RHF Final Energy:  -397.42882753277843

   => Energetics <=

    Nuclear Repulsion Energy =            379.9354909425254618
    One-Electron Energy =               -1291.9953814233235789
    Two-Electron Energy =                 514.6310629480194621
    DFT Exchange-Correlation Energy =       0.0000000000000000
    Empirical Dispersion Energy =           0.0000000000000000
    PCM Polarization Energy =               0.0000000000000000
    EFP Energy =                            0.0000000000000000
    Total Energy =                       -397.4288275327786550
    Molecular point group: c1
  Basis Set: CC-PVTZ
  Basis Set:

  -Total Gradient:
     Atom            X                  Y                   Z
    ------   -----------------  -----------------  -----------------
       1       -0.000023368002     0.000046359431    -0.000961712657
       2       -0.000369251242     0.000123231036     0.001215091715
       3        0.000990408068    -0.000664759987    -0.000228456123
       4       -0.000027168818     0.000014781446    -0.000088898825
       5       -0.000639708604     0.000459659283     0.000074319481
       6        0.000000501095     0.000015226080     0.000017279587
       7       -0.000088141204    -0.000096423931    -0.000057918670
       8       -0.000024622549    -0.000005683147    -0.000006300023
       9        0.000215243310     0.000088968779    -0.000096659543
      10        0.000024952809     0.000014844310     0.000020972737
      11       -0.000043120399    -0.000013162029     0.000198418587
      12        0.000031802319     0.000022891577    -0.000051308482
      13        0.000000010150     0.000015335233    -0.000035727742
      14       -0.000047536933    -0.000021268080     0.000000899957

  **** Optimization is complete! (in 5 steps) ****
    Final optimized geometry and variables:
    Molecular point group: c1

    Geometry (in Angstrom), charge = 0, multiplicity = 1:

    H           -1.875390669743    -2.595280747488    -0.478901078654
    O           -2.171139173285    -1.702127635391    -0.514279237251
    C           -1.116451291597    -0.840483072450    -0.564783642470
    C           -0.776284905334    -0.250411481702    -1.767520346392
    C           -0.433678773313    -0.510274960936     0.586990050169
    H           -1.331667741148    -0.508285364329    -2.647738907416
    C            0.258452322191     0.663002627169    -1.821251513522
    H           -0.715759056153    -0.952967529132     1.521417614921
    C            0.607728322098     0.401914946626     0.521870620967
    H            0.518534686270     1.118770561164    -2.756478649481
    C            0.959845637222     0.993202748092    -0.679621139382
    C            1.326581019862     0.741945661885     1.724963931725
    H            1.764154024151     1.700234407460    -0.714448692198
    N            1.890002190807     1.005910626805     2.666125144498

  Mulliken Charges: (a.u.)
   Center  Symbol    Alpha    Beta     Spin     Total
       1     H     0.38548  0.38548  0.00000  0.22905
       2     O     4.18610  4.18610  0.00000 -0.37220
       3     C     2.86183  2.86183  0.00000  0.27633
       4     C     3.10493  3.10493  0.00000 -0.20987
       5     C     3.12755  3.12755  0.00000 -0.25511
       6     H     0.41140  0.41140  0.00000  0.17720
       7     C     3.06016  3.06016  0.00000 -0.12033
       8     H     0.40843  0.40843  0.00000  0.18315
       9     C     2.93051  2.93051  0.00000  0.13897
      10     H     0.41600  0.41600  0.00000  0.16799
      11     C     3.09460  3.09460  0.00000 -0.18919
      12     C     3.02425  3.02425  0.00000 -0.04850
      13     H     0.41363  0.41363  0.00000  0.17274
      14     N     3.57512  3.57512  0.00000 -0.15025

   Total alpha = 31.00000, Total beta = 31.00000, Total charge = -0.00000

*** Psi4 exiting successfully. Buy a developer a beer!
