  ==> Input File <==

--------------------------------------------------------------------------
set {
	reference rhf
	basis 6-31G*
}

set_num_threads( 4 )
memory 2 gb

molecule MOL {
0 1

H	 2.591676	 2.013956	 0.335017
O	 3.341076	 1.666752	 -0.126416
C	 3.569581	 0.339145	 0.272707
C	 2.539767	 -0.640285	 -0.279495
H	 4.553106	 0.084646	 -0.100901
H	 3.608576	 0.269204	 1.359154
C	 1.115811	 -0.397273	 0.226630
H	 2.556196	 -0.582511	 -1.364741
H	 2.852081	 -1.648031	 -0.010655
C	 0.115918	 -1.429151	 -0.302766
H	 0.797950	 0.599468	 -0.066350
H	 1.109961	 -0.420744	 1.316472
C	 -1.022339	 -1.777407	 0.663375
H	 -0.304983	 -1.071352	 -1.240672
H	 0.655734	 -2.342879	 -0.542350
C	 -1.998073	 -0.632521	 0.949135
H	 -1.580840	 -2.612903	 0.246434
H	 -0.600679	 -2.134707	 1.601659
C	 -3.173039	 -1.057172	 1.832629
H	 -2.380810	 -0.243354	 0.006706
H	 -1.477212	 0.191894	 1.430120
C	 -4.145133	 0.085367	 2.124697
H	 -3.709009	 -1.872388	 1.351332
H	 -2.792200	 -1.455313	 2.770888
H	 -4.568695	 0.483966	 1.207125
H	 -4.967200	 -0.247435	 2.750862
H	 -3.647307	 0.902288	 2.639647

	symmetry c1
}
set optking {
	frozen_dihedral = ("
		14 10 7 4
	")
}

ee = optimize('scf')
oeprop('DIPOLE', 'QUADRUPOLE', 'MULLIKEN_CHARGES')
f=open( 'psi4out.xyz', 'w' )
f.write( "27  " )
f.write( str(ee) + "\n" )
f.write( MOL.save_string_xyz() )
f.close()
--------------------------------------------------------------------------

    Molecular point group: c1
  Charge       = 0
  Multiplicity = 1
  Basis Set: 6-31G*
  Basis Set:
  @DF-RHF Final Energy:  -388.27904716989519
    Total Energy =                       -388.2790471698955344
    Molecular point group: c1
  Basis Set: 6-31G*
  Basis Set:
  Basis Set: 6-31G*
  Basis Set:
  @DF-RHF Final Energy:  -388.27920235900223
    Total Energy =                       -388.2792023590020563
  Basis Set: 6-31G*
  Basis Set:
  Basis Set: 6-31G*
  Basis Set:
  @DF-RHF Final Energy:  -388.27926324064589
    Total Energy =                       -388.2792632406462872
  Basis Set: 6-31G*
  Basis Set:
  Basis Set: 6-31G*
  Basis Set:
  @DF-RHF Final Energy:  -388.27941376761703
    Total Energy =                       -388.2794137676168020
  Basis Set: 6-31G*
  Basis Set:
  Basis Set: 6-31G*
  Basis Set:
  @DF-RHF Final Energy:  -388.27940835345112
    Total Energy =                       -388.2794083534508900
  Basis Set: 6-31G*
  Basis Set:
  Basis Set: 6-31G*
  Basis Set:
  @DF-RHF Final Energy:  -388.27941733420062
    Total Energy =                       -388.2794173342001613
  Basis Set: 6-31G*
  Basis Set:
  Charge       = 0
  Multiplicity = 1
  Basis Set: 6-31G*
  Basis Set:

    Orbital Energies (a.u.)
    -----------------------

    Doubly Occupied:

       1A    -20.552232     2A    -11.266972     3A    -11.220224
       4A    -11.217126     5A    -11.216425     6A    -11.215651
       7A    -11.215491     8A    -11.214667     9A    -11.209847
      10A     -1.359008    11A     -1.095198    12A     -1.061132
      13A     -1.011838    14A     -0.947693    15A     -0.888346
      16A     -0.820450    17A     -0.802947    18A     -0.777067
      19A     -0.693065    20A     -0.656077    21A     -0.635409
      22A     -0.614786    23A     -0.595237    24A     -0.587098
      25A     -0.580290    26A     -0.550545    27A     -0.545041
      28A     -0.531065    29A     -0.504058    30A     -0.495601
      31A     -0.486089    32A     -0.474670    33A     -0.466743
      34A     -0.460015    35A     -0.453692    36A     -0.441666
      37A     -0.422577

  @DF-RHF Final Energy:  -388.27941742757116

   => Energetics <=

    Nuclear Repulsion Energy =            459.4259651824270350
    One-Electron Energy =               -1436.8386892432472450
    Two-Electron Energy =                 589.1333066332485942
    DFT Exchange-Correlation Energy =       0.0000000000000000
    Empirical Dispersion Energy =           0.0000000000000000
    PCM Polarization Energy =               0.0000000000000000
    EFP Energy =                            0.0000000000000000
    Total Energy =                       -388.2794174275716159
    Molecular point group: c1
  Basis Set: 6-31G*
  Basis Set:

  -Total Gradient:
     Atom            X                  Y                   Z
    ------   -----------------  -----------------  -----------------
       1       -0.000001662344    -0.000007440759     0.000002621544
       2        0.000013101285     0.000001288757    -0.000014476677
       3       -0.000016998680     0.000010403076     0.000017296985
       4        0.000540516833    -0.001713464089     0.002193815083
       5       -0.000000255609     0.000003362615     0.000001047124
       6        0.000002191220    -0.000000738512     0.000001919546
       7       -0.001444329756     0.002789203242    -0.002615985799
       8       -0.000010199558    -0.000014890208    -0.000003204993
       9        0.000009424049     0.000007028556     0.000007882339
      10        0.003822011158    -0.002716697236    -0.001641278715
      11        0.000021328814    -0.000010319009    -0.000008999398
      12       -0.000016355732    -0.000021549072     0.000020678722
      13        0.000000725345    -0.000001141310     0.000013849339
      14       -0.002921935128     0.001668304359     0.002019248897
      15        0.000004111840     0.000009304902     0.000002515588
      16        0.000009058292     0.000001086599     0.000009198788
      17       -0.000005482032     0.000003180425    -0.000001121591
      18       -0.000001459726    -0.000003553699    -0.000002976258
      19       -0.000005100139    -0.000000235730    -0.000007458659
      20        0.000001581024     0.000000765979     0.000003146197
      21        0.000003921803    -0.000003424504     0.000001041690
      22       -0.000001717110    -0.000000546512     0.000001531934
      23        0.000001330690    -0.000003183042     0.000000334547
      24       -0.000002077219     0.000002482356     0.000000205152
      25       -0.000002210006    -0.000000923180     0.000000099207
      26        0.000000171212     0.000001261086     0.000001730084
      27        0.000000309475     0.000000434901    -0.000002660676

  **** Optimization is complete! (in 7 steps) ****
    Final optimized geometry and variables:
    Molecular point group: c1

    Geometry (in Angstrom), charge = 0, multiplicity = 1:

    H            2.432714147435     2.413052331802    -0.284586342799
    O            3.197779741463     2.078809740528    -0.729509493755
    C            3.457727316887     0.765524792944    -0.303427888311
    C            2.463140207335    -0.252299855053    -0.850270557714
    H            4.452534578092     0.532302946615    -0.660686119625
    H            3.485430013024     0.715907344920     0.784613467010
    C            1.030389353709    -0.057209158790    -0.347240649886
    H            2.483763339653    -0.205064566913    -1.936353866975
    H            2.804586494285    -1.246935141383    -0.569662878999
    C            0.045859358223    -1.094978467154    -0.914826449187
    H            0.684001037001     0.943508678819    -0.589548597802
    H            1.038009353656    -0.125832468937     0.740419412321
    C           -1.111615864722    -1.442460394544     0.029373423835
    H           -0.379566766977    -0.718835430141    -1.842573574581
    H            0.580956233936    -2.008878584770    -1.158003702102
    C           -2.047450272764    -0.270437416009     0.335407687860
    H           -1.692845389376    -2.247803070957    -0.415177684285
    H           -0.709197223346    -1.836469403822     0.961372202326
    C           -3.223099995752    -0.659997453628     1.233773277583
    H           -2.430365873848     0.135371064897    -0.600041370918
    H           -1.490867540670     0.534355160167     0.810924369880
    C           -4.157998416194     0.510413039087     1.536750605168
    H           -3.788369813398    -1.459646993584     0.759912949414
    H           -2.842333660894    -1.068375688471     2.167604043718
    H           -4.582480162168     0.919515630956     0.624233941134
    H           -4.980670563355     0.202390728094     2.174664753443
    H           -3.629913987402     1.313494368025     2.043301102183

  Mulliken Charges: (a.u.)
   Center  Symbol    Alpha    Beta     Spin     Total
       1     H     0.28007  0.28007  0.00000  0.43986
       2     O     4.37089  4.37089  0.00000 -0.74177
       3     C     2.99756  2.99756  0.00000  0.00489
       4     C     3.16237  3.16237  0.00000 -0.32475
       5     H     0.41440  0.41440  0.00000  0.17119
       6     H     0.43224  0.43224  0.00000  0.13553
       7     C     3.16299  3.16299  0.00000 -0.32598
       8     H     0.41478  0.41478  0.00000  0.17044
       9     H     0.42400  0.42400  0.00000  0.15200
      10     C     3.15328  3.15328  0.00000 -0.30657
      11     H     0.42344  0.42344  0.00000  0.15313
      12     H     0.42432  0.42432  0.00000  0.15136
      13     C     3.15459  3.15459  0.00000 -0.30918
      14     H     0.42035  0.42035  0.00000  0.15930
      15     H     0.41925  0.41925  0.00000  0.16149
      16     C     3.15242  3.15242  0.00000 -0.30485
      17     H     0.42181  0.42181  0.00000  0.15637
      18     H     0.42437  0.42437  0.00000  0.15126
      19     C     3.15113  3.15113  0.00000 -0.30226
      20     H     0.42417  0.42417  0.00000  0.15166
      21     H     0.42331  0.42331  0.00000  0.15339
      22     C     3.23918  3.23918  0.00000 -0.47837
      23     H     0.42275  0.42275  0.00000  0.15451
      24     H     0.42324  0.42324  0.00000  0.15352
      25     H     0.42159  0.42159  0.00000  0.15682
      26     H     0.41912  0.41912  0.00000  0.16175
      27     H     0.42237  0.42237  0.00000  0.15525

   Total alpha = 37.00000, Total beta = 37.00000, Total charge =  0.00000
