                              Psi4 1.0.54 Driver

  ==> Input File <==

--------------------------------------------------------------------------
set {
	reference rhf
	basis cc-pvtz
}

set_num_threads( 4 )
memory 2 gb

molecule MOL {
0 1

H	 -2.699362	 -1.063183	 -2.908403
O	 -2.594398	 -0.981943	 -1.978576
C	 -1.305901	 -0.515855	 -1.676990
C	 -1.175688	 -0.398187	 -0.171891
H	 -0.553462	 -1.201217	 -2.061554
H	 -1.133465	 0.453286	 -2.140521
C	 0.196029	 0.106276	 0.266738
H	 -1.372552	 -1.371154	 0.267200
H	 -1.951699	 0.269175	 0.189151
C	 1.330220	 -0.826136	 -0.155230
H	 0.359542	 1.097229	 -0.145561
H	 0.212134	 0.218135	 1.348778
C	 2.719700	 -0.407669	 0.328325
H	 1.339388	 -0.911200	 -1.239363
H	 1.119001	 -1.821953	 0.224128
C	 3.241564	 0.893452	 -0.276737
H	 3.418299	 -1.204729	 0.093035
H	 2.711776	 -0.323368	 1.411960
H	 3.254204	 0.841071	 -1.360784
H	 2.634460	 1.745075	 0.005842
H	 4.254264	 1.092401	 0.054971

	symmetry c1
}
set optking {
	frozen_dihedral = ("
		8 4 7 10
	")
}

ee,wfn = optimize('scf', return_wfn=True)
oeprop( wfn, 'DIPOLE', 'QUADRUPOLE', 'MULLIKEN_CHARGES')
f=open( 'psi4out.xyz', 'w' )
f.write( "21  " )
f.write( str(ee) + "\n" )
f.write( MOL.save_string_xyz() )
f.close()
--------------------------------------------------------------------------

    Molecular point group: c1
  Charge       = 0
  Multiplicity = 1
  Basis Set: CC-PVTZ
  Basis Set:
  @DF-RHF Final Energy:  -310.33009843218639
    Total Energy =                       -310.3300984321862188
    Molecular point group: c1
  Basis Set: CC-PVTZ
  Basis Set:
  Basis Set: CC-PVTZ
  Basis Set:
  @DF-RHF Final Energy:  -310.17613156738003
    Total Energy =                       -310.1761315673796844
  Basis Set: CC-PVTZ
  Basis Set:
  Basis Set: CC-PVTZ
  Basis Set:
  @DF-RHF Final Energy:  -310.28472731325297
    Total Energy =                       -310.2847273132533701
  Basis Set: CC-PVTZ
  Basis Set:
  Basis Set: CC-PVTZ
  Basis Set:
  @DF-RHF Final Energy:  -310.32867127631511
    Total Energy =                       -310.3286712763149353
  Basis Set: CC-PVTZ
  Basis Set:
  @DF-RHF Final Energy:  -310.33084635715448
    Total Energy =                       -310.3308463571547122
  @DF-RHF Final Energy:  -310.33117519721890
    Total Energy =                       -310.3311751972187267
  Basis Set: CC-PVTZ
  Basis Set:
  @DF-RHF Final Energy:  -310.33119388744893
    Total Energy =                       -310.3311938874489897
  Basis Set: CC-PVTZ
  Basis Set:
  Basis Set: CC-PVTZ
  Basis Set:
  @DF-RHF Final Energy:  -310.33119138917579
    Total Energy =                       -310.3311913891759559
  Basis Set: CC-PVTZ
  Basis Set:
  Basis Set: CC-PVTZ
  Basis Set:
  @DF-RHF Final Energy:  -310.33119980745346
    Total Energy =                       -310.3311998074534586
  Basis Set: CC-PVTZ
  Basis Set:
  Charge       = 0
  Multiplicity = 1
  Basis Set: CC-PVTZ
  Basis Set:

    Orbital Energies (a.u.)
    -----------------------

    Doubly Occupied:

       1A    -20.545093     2A    -11.264425     3A    -11.214103
       4A    -11.213419     5A    -11.212448     6A    -11.209189
       7A    -11.206914     8A     -1.362830     9A     -1.087746
      10A     -1.033345    11A     -0.952634    12A     -0.884050
      13A     -0.813664    14A     -0.769873    15A     -0.698742
      16A     -0.655549    17A     -0.626151    18A     -0.608802
      19A     -0.594414    20A     -0.556081    21A     -0.551681
      22A     -0.519362    23A     -0.513399    24A     -0.498016
      25A     -0.477443    26A     -0.457178    27A     -0.452132
      28A     -0.447936    29A     -0.434818

  @DF-RHF Final Energy:  -310.33119984652041

   => Energetics <=

    Nuclear Repulsion Energy =            316.9940757456108145
    One-Electron Energy =               -1048.9276778602866216
    Two-Electron Energy =                 421.6024022681555152
    DFT Exchange-Correlation Energy =       0.0000000000000000
    Empirical Dispersion Energy =           0.0000000000000000
    PCM Polarization Energy =               0.0000000000000000
    EFP Energy =                            0.0000000000000000
    Total Energy =                       -310.3311998465202350
    Molecular point group: c1
  Basis Set: CC-PVTZ
  Basis Set:

  -Total Gradient:
     Atom            X                  Y                   Z
    ------   -----------------  -----------------  -----------------
       1        0.000003700078     0.000006944144    -0.000001075915
       2       -0.000000020419    -0.000003123143     0.000013487018
       3        0.000003662828     0.000004117100    -0.000011518553
       4        0.000521915786    -0.000247622990    -0.000740259759
       5        0.000009799267    -0.000002050960    -0.000001457108
       6       -0.000000718487    -0.000000410664    -0.000002259187
       7       -0.000123987904    -0.000184786515     0.000758580632
       8       -0.000433072684     0.000257378253     0.000443078762
       9       -0.000009286784    -0.000000233087     0.000001053801
      10        0.000016002427     0.000169959214    -0.000445839071
      11       -0.000001545211     0.000010018063     0.000000018157
      12       -0.000007600953    -0.000002743524     0.000001045094
      13        0.000013089844    -0.000002491442    -0.000008225273
      14       -0.000000640260    -0.000000763742    -0.000002951407
      15        0.000008350383    -0.000004360052     0.000001411112
      16        0.000001067237     0.000000897983    -0.000004359236
      17        0.000006499651     0.000001450933     0.000004389532
      18       -0.000004840960    -0.000003994905    -0.000005044651
      19       -0.000001041760     0.000001180808    -0.000003355593
      20       -0.000005040576    -0.000000649409     0.000000088666
      21        0.000003708486     0.000001283938     0.000003192978

  **** Optimization is complete! (in 10 steps) ****
    Final optimized geometry and variables:
    Molecular point group: c1

    Geometry (in Angstrom), charge = 0, multiplicity = 1:

    H           -2.329314933199    -2.175225118323    -2.360014691918
    O           -2.359945012560    -1.875319062392    -1.470516247196
    C           -1.281548375029    -1.013860050631    -1.214417685656
    C           -1.343338386660    -0.603105490286     0.244421792965
    H           -0.342794599336    -1.513436197107    -1.433925319097
    H           -1.341053099350    -0.130718956171    -1.848152161010
    C           -0.307199772906     0.444141658039     0.654462178886
    H           -1.242245093270    -1.490115714055     0.862201011372
    H           -2.337437381970    -0.211450454216     0.431792574097
    C            1.148146168000    -0.009412590299     0.524354739045
    H           -0.466568685686     1.346170047896     0.071285997073
    H           -0.495706867540     0.716707529192     1.688900984282
    C            2.166860494532     0.953283265577     1.137572250424
    H            1.398708753461    -0.162919304972    -0.521528832005
    H            1.255048651869    -0.977132357849     1.007568153279
    C            2.256194233225     2.311458613097     0.445816624285
    H            3.144904627801     0.482818013110     1.107961882357
    H            1.933006560584     1.099383136459     2.188764687283
    H            2.480622606706     2.196834446438    -0.610023611874
    H            1.331750004712     2.870114467433     0.528504502894
    H            3.041636799402     2.915609771746     0.885288549701

  Mulliken Charges: (a.u.)
   Center  Symbol    Alpha    Beta     Spin     Total
       1     H     0.39717  0.39717  0.00000  0.20567
       2     O     4.19574  4.19574  0.00000 -0.39148
       3     C     2.96284  2.96284  0.00000  0.07431
       4     C     3.09103  3.09103  0.00000 -0.18205
       5     H     0.47200  0.47200  0.00000  0.05600
       6     H     0.47445  0.47445  0.00000  0.05110
       7     C     3.11140  3.11140  0.00000 -0.22279
       8     H     0.45115  0.45115  0.00000  0.09769
       9     H     0.44533  0.44533  0.00000  0.10934
      10     C     3.09875  3.09875  0.00000 -0.19751
      11     H     0.45142  0.45142  0.00000  0.09716
      12     H     0.44711  0.44711  0.00000  0.10578
      13     C     3.08893  3.08893  0.00000 -0.17787
      14     H     0.45454  0.45454  0.00000  0.09092
      15     H     0.44781  0.44781  0.00000  0.10438
      16     C     3.15290  3.15290  0.00000 -0.30580
      17     H     0.44855  0.44855  0.00000  0.10289
      18     H     0.45424  0.45424  0.00000  0.09152
      19     H     0.45556  0.45556  0.00000  0.08887
      20     H     0.45301  0.45301  0.00000  0.09399
      21     H     0.44606  0.44606  0.00000  0.10788

   Total alpha = 29.00000, Total beta = 29.00000, Total charge = -0.00000

*** Psi4 exiting successfully. Buy a developer a beer!
