                              Psi4 1.0.54 Driver

  ==> Input File <==

--------------------------------------------------------------------------
set {
	reference rhf
	basis cc-pvtz
}

set_num_threads( 4 )
memory 2 gb

molecule MOL {
0 1

H	 -2.498963	 -0.741158	 -0.729149
O	 -2.346257	 -0.289210	 0.080372
C	 -1.183935	 0.486039	 -0.009831
C	 0.062853	 -0.375310	 0.027457
H	 -1.178881	 1.094526	 -0.908634
H	 -1.184406	 1.155156	 0.838676
O	 0.453504	 -0.635274	 -1.280695
H	 -0.143973	 -1.306705	 0.557195
H	 0.847071	 0.143830	 0.574329
C	 1.610501	 -1.395839	 -1.399532
H	 1.492390	 -2.373780	 -0.938059
H	 1.811887	 -1.529936	 -2.452218
H	 2.461554	 -0.898895	 -0.939886

	symmetry c1
}
set optking {
	frozen_dihedral = ("
		8 4 3 5
	")
}

ee,wfn = optimize('scf', return_wfn=True)
oeprop( wfn, 'DIPOLE', 'QUADRUPOLE', 'MULLIKEN_CHARGES')
f=open( 'psi4out.xyz', 'w' )
f.write( "13  " )
f.write( str(ee) + "\n" )
f.write( MOL.save_string_xyz() )
f.close()
--------------------------------------------------------------------------

    Molecular point group: c1
  Charge       = 0
  Multiplicity = 1
  Basis Set: CC-PVTZ
  Basis Set:
  @DF-RHF Final Energy:  -268.06046475777248
    Total Energy =                       -268.0604647577722517
    Molecular point group: c1
  Basis Set: CC-PVTZ
  Basis Set:
  Basis Set: CC-PVTZ
  Basis Set:
  @DF-RHF Final Energy:  -268.06123895234771
    Total Energy =                       -268.0612389523477077
  Basis Set: CC-PVTZ
  Basis Set:
  Basis Set: CC-PVTZ
  Basis Set:
  @DF-RHF Final Energy:  -268.06148354573918
    Total Energy =                       -268.0614835457392928
  Basis Set: CC-PVTZ
  Basis Set:
  Basis Set: CC-PVTZ
  Basis Set:
  @DF-RHF Final Energy:  -268.06149534017595
    Total Energy =                       -268.0614953401759522
  Basis Set: CC-PVTZ
  Basis Set:
  Charge       = 0
  Multiplicity = 1
  Basis Set: CC-PVTZ
  Basis Set:

    Orbital Energies (a.u.)
    -----------------------

    Doubly Occupied:

       1A    -20.556479     2A    -20.545815     3A    -11.269690
       4A    -11.268325     5A    -11.267550     6A     -1.391802
       7A     -1.361599     8A     -1.019294     9A     -0.917162
      10A     -0.839361    11A     -0.706655    12A     -0.682250
      13A     -0.659830    14A     -0.634153    15A     -0.599632
      16A     -0.571259    17A     -0.538821    18A     -0.493466
      19A     -0.488534    20A     -0.439853    21A     -0.425045

  @DF-RHF Final Energy:  -268.06149617281721

   => Energetics <=

    Nuclear Repulsion Energy =            192.6552159009193304
    One-Electron Energy =                -748.0802722069447555
    Two-Electron Energy =                 287.3635601332083525
    DFT Exchange-Correlation Energy =       0.0000000000000000
    Empirical Dispersion Energy =           0.0000000000000000
    PCM Polarization Energy =               0.0000000000000000
    EFP Energy =                            0.0000000000000000
    Total Energy =                       -268.0614961728171011
    Molecular point group: c1
  Basis Set: CC-PVTZ
  Basis Set:

  -Total Gradient:
     Atom            X                  Y                   Z
    ------   -----------------  -----------------  -----------------
       1        0.000009207657     0.000000159531     0.000000176579
       2       -0.000031893861     0.000029891033     0.000020466070
       3        0.003064774774     0.004991323807     0.002574167539
       4        0.001428471144     0.002179147313     0.005978971710
       5       -0.002844154996    -0.004548624389    -0.003174014416
       6       -0.000006019091    -0.000039814878    -0.000010874889
       7       -0.000054996999     0.000019840658     0.000023070914
       8       -0.001586474003    -0.002624370932    -0.005443491891
       9        0.000003524180     0.000002824199     0.000006844860
      10        0.000030637153    -0.000030863412     0.000026306343
      11        0.000000079907    -0.000001667406    -0.000003142181
      12       -0.000022022776     0.000023242909     0.000009326710
      13        0.000008866908    -0.000001088433    -0.000007807350

  **** Optimization is complete! (in 5 steps) ****
    Final optimized geometry and variables:
    Molecular point group: c1

    Geometry (in Angstrom), charge = 0, multiplicity = 1:

    H           -2.079209407236    -0.354943153537    -0.255675257773
    O           -2.035845127182     0.116992384945     0.556733612515
    C           -0.894603038704     0.933617277085     0.557782675207
    C            0.391458165300     0.127300780579     0.572643617724
    H           -0.897789421017     1.553870282235    -0.331751182302
    H           -0.965111286426     1.556724114823     1.437452663200
    O            0.754083873154    -0.142781568118    -0.751847466554
    H            0.209222312132    -0.815796575433     1.081141484059
    H            1.189234439327     0.667164176019     1.078065477893
    C            1.876164693671    -0.951040016923    -0.887335889579
    H            1.723966401318    -1.925142797674    -0.427972540221
    H            2.060536648492    -1.088520463287    -1.942886272062
    H            2.753319786819    -0.492361538654    -0.436211705924

  Mulliken Charges: (a.u.)
   Center  Symbol    Alpha    Beta     Spin     Total
       1     H     0.38925  0.38925  0.00000  0.22149
       2     O     4.20795  4.20795  0.00000 -0.41590
       3     C     2.96362  2.96362  0.00000  0.07277
       4     C     2.98120  2.98120  0.00000  0.03760
       5     H     0.46549  0.46549  0.00000  0.06901
       6     H     0.45581  0.45581  0.00000  0.08839
       7     O     4.17960  4.17960  0.00000 -0.35920
       8     H     0.46737  0.46737  0.00000  0.06526
       9     H     0.47183  0.47183  0.00000  0.05633
      10     C     3.02936  3.02936  0.00000 -0.05871
      11     H     0.47071  0.47071  0.00000  0.05859
      12     H     0.44685  0.44685  0.00000  0.10629
      13     H     0.47096  0.47096  0.00000  0.05808

   Total alpha = 21.00000, Total beta = 21.00000, Total charge = -0.00000

*** Psi4 exiting successfully. Buy a developer a beer!
