  ==> Input File <==

--------------------------------------------------------------------------
set {
	reference rhf
	basis 6-31G*
}

set_num_threads( 4 )
memory 2 gb

molecule MOL {
0 1

H	 3.276176	 0.174363	 -0.109463
N	 2.434251	 -0.367735	 -0.081097
C	 1.267428	 0.496480	 0.024474
H	 2.501951	 -0.965776	 0.720575
C	 -0.016086	 -0.325158	 -0.029487
H	 1.288818	 1.183521	 -0.816092
H	 1.267576	 1.109062	 0.929528
C	 -1.282277	 0.529072	 0.046735
H	 -0.012495	 -0.908639	 -0.945788
H	 -0.015903	 -1.041248	 0.791956
C	 -2.426877	 -0.168833	 0.780575
H	 -1.604868	 0.785842	 -0.960236
H	 -1.057193	 1.470284	 0.544142
H	 -2.699607	 -1.097179	 0.287107
H	 -3.311710	 0.459042	 0.817514
H	 -2.148339	 -0.408565	 1.802909

	symmetry c1
}
set optking {
	frozen_dihedral = ("
		12 8 5 9
	")
}

ee = optimize('scf')
oeprop('DIPOLE', 'QUADRUPOLE', 'MULLIKEN_CHARGES')
f=open( 'psi4out.xyz', 'w' )
f.write( "16  " )
f.write( str(ee) + "\n" )
f.write( MOL.save_string_xyz() )
f.close()
--------------------------------------------------------------------------

    Molecular point group: c1
  Charge       = 0
  Multiplicity = 1
  Basis Set: 6-31G*
  Basis Set:
  @DF-RHF Final Energy:  -212.31380465580781
    Total Energy =                       -212.3138046558079282
    Molecular point group: c1
  Basis Set: 6-31G*
  Basis Set:
  Basis Set: 6-31G*
  Basis Set:
  @DF-RHF Final Energy:  -212.31406333003216
    Total Energy =                       -212.3140633300321269
  Basis Set: 6-31G*
  Basis Set:
  Basis Set: 6-31G*
  Basis Set:
  @DF-RHF Final Energy:  -212.31413162377896
    Total Energy =                       -212.3141316237787919
  Basis Set: 6-31G*
  Basis Set:
  Basis Set: 6-31G*
  Basis Set:
  @DF-RHF Final Energy:  -212.31413305704916
    Total Energy =                       -212.3141330570493324
  Basis Set: 6-31G*
  Basis Set:
  Charge       = 0
  Multiplicity = 1
  Basis Set: 6-31G*
  Basis Set:

    Orbital Energies (a.u.)
    -----------------------

    Doubly Occupied:

       1A    -15.532506     2A    -11.239859     3A    -11.214998
       4A    -11.209473     5A    -11.208063     6A     -1.176705
       7A     -1.057989     8A     -0.958525     9A     -0.843252
      10A     -0.791992    11A     -0.662362    12A     -0.639432
      13A     -0.598089    14A     -0.584935    15A     -0.564367
      16A     -0.517659    17A     -0.507047    18A     -0.469300
      19A     -0.463196    20A     -0.459103    21A     -0.381213

  @DF-RHF Final Energy:  -212.31413324508048

   => Energetics <=

    Nuclear Repulsion Energy =            186.2902774589895785
    One-Electron Energy =                -655.0486834684576252
    Two-Electron Energy =                 256.4442727643873923
    DFT Exchange-Correlation Energy =       0.0000000000000000
    Empirical Dispersion Energy =           0.0000000000000000
    PCM Polarization Energy =               0.0000000000000000
    EFP Energy =                            0.0000000000000000
    Total Energy =                       -212.3141332450806544
    Molecular point group: c1
  Basis Set: 6-31G*
  Basis Set:

  -Total Gradient:
     Atom            X                  Y                   Z
    ------   -----------------  -----------------  -----------------
       1        0.000002035761    -0.000000313215    -0.000001215272
       2        0.000011418602    -0.000009485771     0.000003466259
       3       -0.000006318835     0.000001976918    -0.000005408299
       4        0.000001765583     0.000001299042     0.000000084429
       5       -0.002982948725    -0.004485344935     0.002363275398
       6       -0.000002310878     0.000003499781    -0.000000764742
       7       -0.000003027299    -0.000003319189     0.000001220724
       8        0.003288276048     0.004809051404    -0.000316604231
       9        0.001973159069     0.002993660514    -0.001908404948
      10       -0.000000034700     0.000003648384    -0.000004959275
      11        0.000005058221     0.000010303368    -0.000001883762
      12       -0.002288138215    -0.003312637807    -0.000125582775
      13        0.000001660156    -0.000014756634    -0.000001987170
      14        0.000002976267    -0.000001042307    -0.000001253084
      15       -0.000004695356     0.000002091930     0.000002739539
      16        0.000001124301     0.000001368516    -0.000002722793

  **** Optimization is complete! (in 5 steps) ****
    Final optimized geometry and variables:
    Molecular point group: c1

    Geometry (in Angstrom), charge = 0, multiplicity = 1:

    H            3.250045023301     0.153425970072    -0.337010346325
    N            2.411249460665    -0.392149378967    -0.289107764889
    C            1.245942871693     0.464476524484    -0.127701576065
    H            2.508769600608    -1.004774609469     0.498404861746
    C           -0.037981178586    -0.361788591908    -0.142894658231
    H            1.231296795625     1.163115930434    -0.959217802728
    H            1.276978301929     1.065209768904     0.784778045842
    C           -1.304759242801     0.507663033868    -0.092787532198
    H           -0.024150366814    -0.954140511578    -1.051996362996
    H           -0.023377566953    -1.054347660178     0.696685439133
    C           -2.479489691875    -0.190885869537     0.595141127396
    H           -1.608554005121     0.755891414384    -1.106191298755
    H           -1.099176959312     1.444987848645     0.418323407973
    H           -2.716111460668    -1.130761595649     0.104134070573
    H           -3.372438327930     0.426503215679     0.575461688922
    H           -2.250614800132    -0.410947990027     1.634097654833

  Mulliken Charges: (a.u.)
   Center  Symbol    Alpha    Beta     Spin     Total
       1     H     0.33245  0.33245  0.00000  0.33511
       2     N     3.92193  3.92193  0.00000 -0.84386
       3     C     3.06218  3.06218  0.00000 -0.12437
       4     H     0.33534  0.33534  0.00000  0.32931
       5     C     3.15274  3.15274  0.00000 -0.30548
       6     H     0.42080  0.42080  0.00000  0.15839
       7     H     0.43481  0.43481  0.00000  0.13037
       8     C     3.15691  3.15691  0.00000 -0.31382
       9     H     0.41102  0.41102  0.00000  0.17797
      10     H     0.42634  0.42634  0.00000  0.14732
      11     C     3.23944  3.23944  0.00000 -0.47888
      12     H     0.41966  0.41966  0.00000  0.16067
      13     H     0.42255  0.42255  0.00000  0.15491
      14     H     0.42078  0.42078  0.00000  0.15843
      15     H     0.42043  0.42043  0.00000  0.15914
      16     H     0.42261  0.42261  0.00000  0.15479

   Total alpha = 21.00000, Total beta = 21.00000, Total charge =  0.00000
