                              Psi4 1.0.54 Driver

  ==> Input File <==

--------------------------------------------------------------------------
set {
	reference rhf
	basis cc-pvtz
}

set_num_threads( 4 )
memory 2 gb

molecule MOL {
0 1

H	 -0.603339	 -1.825951	 0.744994
C	 -1.562436	 -1.407273	 0.448808
O	 -1.401606	 -0.295183	 -0.366624
H	 -2.108609	 -2.151983	 -0.111541
H	 -2.124686	 -1.165369	 1.348943
C	 -0.718530	 0.758693	 0.228682
C	 0.718529	 0.758687	 -0.228709
H	 -1.176498	 1.708665	 -0.046615
H	 -0.748705	 0.673525	 1.312779
O	 1.401606	 -0.295166	 0.366636
H	 0.748705	 0.673477	 -1.312803
H	 1.176496	 1.708671	 0.046552
C	 2.714315	 -0.441627	 -0.061017
H	 2.765292	 -0.641548	 -1.128869
H	 3.305661	 0.447341	 0.150952
H	 3.143725	 -1.278506	 0.470147

	symmetry c1
}
set optking {
	frozen_dihedral = ("
		2 3 6 7
	")
}

ee,wfn = optimize('scf', return_wfn=True)
oeprop( wfn, 'DIPOLE', 'QUADRUPOLE', 'MULLIKEN_CHARGES')
f=open( 'psi4out.xyz', 'w' )
f.write( "16  " )
f.write( str(ee) + "\n" )
f.write( MOL.save_string_xyz() )
f.close()
--------------------------------------------------------------------------

    Molecular point group: c1
  Charge       = 0
  Multiplicity = 1
  Basis Set: CC-PVTZ
  Basis Set:
  @DF-RHF Final Energy:  -307.09561080161808
    Total Energy =                       -307.0956108016180224
    Molecular point group: c1
  Basis Set: CC-PVTZ
  Basis Set:
  Basis Set: CC-PVTZ
  Basis Set:
  @DF-RHF Final Energy:  -307.09664876704841
    Total Energy =                       -307.0966487670486913
  Basis Set: CC-PVTZ
  Basis Set:
  Basis Set: CC-PVTZ
  Basis Set:
  @DF-RHF Final Energy:  -307.09676879568281
    Total Energy =                       -307.0967687956829195
  Basis Set: CC-PVTZ
  Basis Set:
  Basis Set: CC-PVTZ
  Basis Set:
  @DF-RHF Final Energy:  -307.09677783373564
    Total Energy =                       -307.0967778337355298
  Basis Set: CC-PVTZ
  Basis Set:
  Charge       = 0
  Multiplicity = 1
  Basis Set: CC-PVTZ
  Basis Set:

    Orbital Energies (a.u.)
    -----------------------

    Doubly Occupied:

       1A    -20.553245     2A    -20.543136     3A    -11.267422
       4A    -11.266208     5A    -11.265711     6A    -11.254090
       7A     -1.391811     8A     -1.370198     9A     -1.029693
      10A     -0.942620    11A     -0.890451    12A     -0.822133
      13A     -0.686915    14A     -0.680661    15A     -0.660550
      16A     -0.635055    17A     -0.626025    18A     -0.601421
      19A     -0.550873    20A     -0.531379    21A     -0.519271
      22A     -0.480551    23A     -0.467653    24A     -0.423964
      25A     -0.406857

  @DF-RHF Final Energy:  -307.09677850856070

   => Energetics <=

    Nuclear Repulsion Energy =            262.9167798931916309
    One-Electron Energy =                -940.2913377390586902
    Two-Electron Energy =                 370.2777793373062991
    DFT Exchange-Correlation Energy =       0.0000000000000000
    Empirical Dispersion Energy =           0.0000000000000000
    PCM Polarization Energy =               0.0000000000000000
    EFP Energy =                            0.0000000000000000
    Total Energy =                       -307.0967785085607034
    Molecular point group: c1
  Basis Set: CC-PVTZ
  Basis Set:

  -Total Gradient:
     Atom            X                  Y                   Z
    ------   -----------------  -----------------  -----------------
       1       -0.000003675965    -0.000008899068     0.000002277536
       2       -0.000494396161     0.000267328931     0.000250394938
       3        0.000699232910    -0.000208773767    -0.000542192141
       4        0.000002050770     0.000018282048     0.000000082829
       5       -0.000008777547    -0.000005423001     0.000000668095
       6       -0.000008777175    -0.000376716012     0.000739601102
       7       -0.000191263579     0.000369943818    -0.000462917480
       8        0.000000544591    -0.000005501322    -0.000017158051
       9       -0.000006743714    -0.000020179237     0.000000201209
      10       -0.000009545364    -0.000011027041    -0.000016871054
      11        0.000010901584    -0.000018536674     0.000020266190
      12        0.000006176678     0.000007043409     0.000014171931
      13        0.000000779102    -0.000007071108     0.000014894471
      14       -0.000009370568     0.000004738342     0.000004912686
      15       -0.000003576522     0.000000304873    -0.000004224827
      16        0.000016440961    -0.000005514191    -0.000004107432

  **** Optimization is complete! (in 5 steps) ****
    Final optimized geometry and variables:
    Molecular point group: c1

    Geometry (in Angstrom), charge = 0, multiplicity = 1:

    H           -0.904565831694    -1.717656580689     0.641312368088
    C           -1.836403384796    -1.252514511628     0.343554989180
    O           -1.622230395390    -0.123315886392    -0.446776409312
    H           -2.409543690418    -1.953249385945    -0.246715480634
    H           -2.406877776797    -1.004527046205     1.235674547131
    C           -0.909283771263     0.918287153118     0.144219517670
    C            0.544235720834     0.938957093086    -0.271498690252
    H           -1.365050691446     1.848033703984    -0.178479191425
    H           -0.976571099870     0.872579855967     1.227417983571
    O            1.218917296658    -0.137999136245     0.298363472749
    H            0.605615237339     0.894258119735    -1.356683135766
    H            0.992435347781     1.878816487843     0.052597739691
    C            2.548824083913    -0.251646098754    -0.087429302073
    H            2.640133109100    -0.395625923112    -1.161367740263
    H            3.120770425292     0.630914881403     0.191394831526
    H            2.968419907357    -1.110391434846     0.416115707017

  Mulliken Charges: (a.u.)
   Center  Symbol    Alpha    Beta     Spin     Total
       1     H     0.46170  0.46170  0.00000  0.07661
       2     C     3.03127  3.03127  0.00000 -0.06255
       3     O     4.18325  4.18325  0.00000 -0.36649
       4     H     0.45070  0.45070  0.00000  0.09861
       5     H     0.47273  0.47273  0.00000  0.05455
       6     C     2.97351  2.97351  0.00000  0.05298
       7     C     2.96768  2.96768  0.00000  0.06464
       8     H     0.45227  0.45227  0.00000  0.09545
       9     H     0.46796  0.46796  0.00000  0.06408
      10     O     4.17530  4.17530  0.00000 -0.35060
      11     H     0.47134  0.47134  0.00000  0.05731
      12     H     0.47269  0.47269  0.00000  0.05462
      13     C     3.03237  3.03237  0.00000 -0.06475
      14     H     0.46940  0.46940  0.00000  0.06121
      15     H     0.47048  0.47048  0.00000  0.05905
      16     H     0.44736  0.44736  0.00000  0.10528

   Total alpha = 25.00000, Total beta = 25.00000, Total charge = -0.00000

*** Psi4 exiting successfully. Buy a developer a beer!
