  ==> Input File <==

--------------------------------------------------------------------------
set {
	reference rhf
	basis 6-31G*
}

set_num_threads( 4 )
memory 2 gb

molecule MOL {
0 1

H	 -2.936728	 0.775458	 -1.200727
C	 -2.160118	 0.062423	 -1.470167
O	 -1.392607	 -0.295399	 -0.366433
H	 -2.626488	 -0.836787	 -1.848403
H	 -1.548830	 0.499641	 -2.258580
C	 -0.719715	 0.768384	 0.229244
C	 0.719720	 0.768376	 -0.229267
H	 -1.185038	 1.714362	 -0.050570
H	 -0.750528	 0.687237	 1.313896
O	 1.392611	 -0.295398	 0.366430
H	 0.750534	 0.687200	 -1.313918
H	 1.185043	 1.714359	 0.050526
C	 2.706965	 -0.449871	 -0.062409
H	 2.756559	 -0.644779	 -1.131878
H	 3.305899	 0.433456	 0.155466
H	 3.125548	 -1.294566	 0.467107

	symmetry c1
}
set optking {
	frozen_dihedral = ("
		2 3 6 7
	")
}

ee = optimize('scf')
oeprop('DIPOLE', 'QUADRUPOLE', 'MULLIKEN_CHARGES')
f=open( 'psi4out.xyz', 'w' )
f.write( "16  " )
f.write( str(ee) + "\n" )
f.write( MOL.save_string_xyz() )
f.close()
--------------------------------------------------------------------------

    Molecular point group: c1
  Charge       = 0
  Multiplicity = 1
  Basis Set: 6-31G*
  Basis Set:
  @DF-RHF Final Energy:  -306.97303111488685
    Total Energy =                       -306.9730311148869646
    Molecular point group: c1
  Basis Set: 6-31G*
  Basis Set:
  Basis Set: 6-31G*
  Basis Set:
  @DF-RHF Final Energy:  -306.97393270295856
    Total Energy =                       -306.9739327029585638
  Basis Set: 6-31G*
  Basis Set:
  Basis Set: 6-31G*
  Basis Set:
  @DF-RHF Final Energy:  -306.97410373795020
    Total Energy =                       -306.9741037379501449
  Basis Set: 6-31G*
  Basis Set:
  Basis Set: 6-31G*
  Basis Set:
  @DF-RHF Final Energy:  -306.97410610638241
    Total Energy =                       -306.9741061063823508
  Basis Set: 6-31G*
  Basis Set:
  Charge       = 0
  Multiplicity = 1
  Basis Set: 6-31G*
  Basis Set:

    Orbital Energies (a.u.)
    -----------------------

    Doubly Occupied:

       1A    -20.554563     2A    -20.551940     3A    -11.269582
       4A    -11.268602     5A    -11.265735     6A    -11.264549
       7A     -1.387377     8A     -1.369562     9A     -1.028549
      10A     -0.940844    11A     -0.896915    12A     -0.820406
      13A     -0.686271    14A     -0.678112    15A     -0.657989
      16A     -0.637753    17A     -0.622799    18A     -0.604384
      19A     -0.557138    20A     -0.525629    21A     -0.514174
      22A     -0.482856    23A     -0.466724    24A     -0.415903
      25A     -0.407937

  @DF-RHF Final Energy:  -306.97410636483880

   => Energetics <=

    Nuclear Repulsion Energy =            259.9121877809278658
    One-Electron Energy =                -934.0200048023237969
    Two-Electron Energy =                 367.1337106565572981
    DFT Exchange-Correlation Energy =       0.0000000000000000
    Empirical Dispersion Energy =           0.0000000000000000
    PCM Polarization Energy =               0.0000000000000000
    EFP Energy =                            0.0000000000000000
    Total Energy =                       -306.9741063648386330
    Molecular point group: c1
  Basis Set: 6-31G*
  Basis Set:

  -Total Gradient:
     Atom            X                  Y                   Z
    ------   -----------------  -----------------  -----------------
       1       -0.000002170239    -0.000000231314    -0.000004391443
       2       -0.001073959960     0.000303586155     0.000839512828
       3        0.001655181510    -0.000737552815    -0.000792024062
       4        0.000005536472     0.000002210183     0.000006188483
       5        0.000000673589    -0.000000002449    -0.000002391423
       6       -0.000878158590     0.001146116847    -0.001017105431
       7        0.000258023924    -0.000688645238     0.000944602498
       8        0.000001737057    -0.000002834008    -0.000002899666
       9        0.000000456251    -0.000004158616     0.000002321347
      10        0.000007168964    -0.000000106297     0.000006437080
      11        0.000004403335    -0.000002269258     0.000008768699
      12        0.000015781192    -0.000010669013     0.000004471466
      13        0.000004945064    -0.000005061182     0.000005208115
      14       -0.000005634948     0.000002183096     0.000002032660
      15        0.000000001755    -0.000000885334    -0.000000785335
      16        0.000006014615    -0.000001680755     0.000000054183

  **** Optimization is complete! (in 5 steps) ****
    Final optimized geometry and variables:
    Molecular point group: c1

    Geometry (in Angstrom), charge = 0, multiplicity = 1:

    H           -3.060956118636     0.681879760804    -0.941436711102
    C           -2.293810178873    -0.048127739205    -1.192287340848
    O           -1.514715275662    -0.369675256862    -0.084067577764
    H           -2.773918019223    -0.958196420928    -1.524677780880
    H           -1.697211456200     0.347681416214    -2.012266184876
    C           -0.798568376730     0.690885090635     0.477744713330
    C            0.654219178274     0.695927151255     0.045312114896
    H           -1.254584961257     1.645469340573     0.222547053043
    H           -0.837496607031     0.577091245863     1.554115754940
    O            1.299106181017    -0.400487131238     0.609796183772
    H            0.721696312944     0.661862958729    -1.041846120331
    H            1.124725532993     1.623882169946     0.375144520234
    C            2.626568794277    -0.546449965936     0.220407602397
    H            2.712903487495    -0.689853461382    -0.855079666999
    H            3.223711318831     0.319873759594     0.501481357246
    H            3.019644655760    -1.419655683564     0.722380790895

  Mulliken Charges: (a.u.)
   Center  Symbol    Alpha    Beta     Spin     Total
       1     H     0.42957  0.42957  0.00000  0.14085
       2     C     3.08009  3.08009  0.00000 -0.16019
       3     O     4.30059  4.30059  0.00000 -0.60119
       4     H     0.41086  0.41086  0.00000  0.17829
       5     H     0.43269  0.43269  0.00000  0.13462
       6     C     3.00056  3.00056  0.00000 -0.00113
       7     C     2.99205  2.99205  0.00000  0.01589
       8     H     0.43083  0.43083  0.00000  0.13835
       9     H     0.40854  0.40854  0.00000  0.18292
      10     O     4.29893  4.29893  0.00000 -0.59785
      11     H     0.43061  0.43061  0.00000  0.13879
      12     H     0.43396  0.43396  0.00000  0.13209
      13     C     3.07910  3.07910  0.00000 -0.15820
      14     H     0.42944  0.42944  0.00000  0.14113
      15     H     0.43160  0.43160  0.00000  0.13681
      16     H     0.41059  0.41059  0.00000  0.17882

   Total alpha = 25.00000, Total beta = 25.00000, Total charge = -0.00000
