                              Psi4 1.0.54 Driver

  ==> Input File <==

--------------------------------------------------------------------------
set {
	reference rhf
	basis cc-pvtz
}

set_num_threads( 4 )
memory 2 gb

molecule MOL {
0 1

H	 -0.835512	 -1.195633	 -0.559676
O	 -1.432053	 -0.565244	 -0.200812
C	 -0.727158	 0.534527	 0.310686
C	 0.680222	 0.664433	 -0.252229
H	 -1.306802	 1.408001	 0.044211
H	 -0.690821	 0.490158	 1.397609
C	 1.605391	 -0.489360	 0.123098
H	 0.615089	 0.745647	 -1.332226
H	 1.101414	 1.597893	 0.110950
H	 1.247627	 -1.432485	 -0.275204
H	 2.601435	 -0.332816	 -0.273062
H	 1.691776	 -0.589902	 1.200774

	symmetry c1
}
set optking {
	frozen_dihedral = ("
		1 2 3 4
	")
}

ee,wfn = optimize('scf', return_wfn=True)
oeprop( wfn, 'DIPOLE', 'QUADRUPOLE', 'MULLIKEN_CHARGES')
f=open( 'psi4out.xyz', 'w' )
f.write( "12  " )
f.write( str(ee) + "\n" )
f.write( MOL.save_string_xyz() )
f.close()
--------------------------------------------------------------------------

    Molecular point group: c1
  Charge       = 0
  Multiplicity = 1
  Basis Set: CC-PVTZ
  Basis Set:
  @DF-RHF Final Energy:  -193.18818457025577
    Total Energy =                       -193.1881845702557996
    Molecular point group: c1
  Basis Set: CC-PVTZ
  Basis Set:
  Basis Set: CC-PVTZ
  Basis Set:
  @DF-RHF Final Energy:  -193.18836280411810
    Total Energy =                       -193.1883628041179577
  Basis Set: CC-PVTZ
  Basis Set:
  Basis Set: CC-PVTZ
  Basis Set:
  @DF-RHF Final Energy:  -193.18843128228031
    Total Energy =                       -193.1884312822803338
  Basis Set: CC-PVTZ
  Basis Set:
  Charge       = 0
  Multiplicity = 1
  Basis Set: CC-PVTZ
  Basis Set:

    Orbital Energies (a.u.)
    -----------------------

    Doubly Occupied:

       1A    -20.543336     2A    -11.265326     3A    -11.224291
       4A    -11.220075     5A     -1.362060     6A     -1.055944
       7A     -0.930650     8A     -0.819046     9A     -0.679167
      10A     -0.643610    11A     -0.623829    12A     -0.582110
      13A     -0.552239    14A     -0.511034    15A     -0.494684
      16A     -0.467433    17A     -0.434249

  @DF-RHF Final Energy:  -193.18843159319078

   => Energetics <=

    Nuclear Repulsion Energy =            133.2112862892831799
    One-Electron Energy =                -525.9812664023855859
    Two-Electron Energy =                 199.5815485199115358
    DFT Exchange-Correlation Energy =       0.0000000000000000
    Empirical Dispersion Energy =           0.0000000000000000
    PCM Polarization Energy =               0.0000000000000000
    EFP Energy =                            0.0000000000000000
    Total Energy =                       -193.1884315931908702
    Molecular point group: c1
  Basis Set: CC-PVTZ
  Basis Set:

  -Total Gradient:
     Atom            X                  Y                   Z
    ------   -----------------  -----------------  -----------------
       1       -0.000105432463     0.000697449366    -0.001305105548
       2        0.000254533980    -0.001011867718     0.001864080108
       3       -0.000472864024     0.000868012129    -0.001168286928
       4        0.000302169360    -0.000575544145     0.000586468635
       5        0.000003105849    -0.000023597224    -0.000024765218
       6        0.000010172870     0.000029569987     0.000020286841
       7       -0.000002286217     0.000033358370     0.000046154535
       8        0.000011429062    -0.000006428007    -0.000018401604
       9       -0.000022234781    -0.000023538952     0.000006249460
      10        0.000019967050     0.000022102409    -0.000002759665
      11        0.000013046216     0.000006640845    -0.000000332287
      12       -0.000011606900    -0.000016157059    -0.000003588327

  **** Optimization is complete! (in 4 steps) ****
    Final optimized geometry and variables:
    Molecular point group: c1

    Geometry (in Angstrom), charge = 0, multiplicity = 1:

    H           -0.868950811297    -1.205440568490    -0.568690883985
    O           -1.450275721909    -0.571045945545    -0.194956522472
    C           -0.732113456401     0.519092324482     0.322570486453
    C            0.672675357070     0.659957352153    -0.242994164989
    H           -1.305333183853     1.409671471827     0.097465153886
    H           -0.678724753827     0.431551092932     1.405356354245
    C            1.619285039619    -0.474854314193     0.142438516146
    H            0.611815708409     0.742045001269    -1.324638085922
    H            1.081314958185     1.599148885132     0.116187768570
    H            1.285982771548    -1.437221158350    -0.232631708860
    H            2.609383248891    -0.303723346781    -0.262403712610
    H            1.708609917012    -0.557851364346     1.219963966102

  Mulliken Charges: (a.u.)
   Center  Symbol    Alpha    Beta     Spin     Total
       1     H     0.39170  0.39170  0.00000  0.21660
       2     O     4.20779  4.20779  0.00000 -0.41558
       3     C     2.95341  2.95341  0.00000  0.09319
       4     C     3.10287  3.10287  0.00000 -0.20574
       5     H     0.45982  0.45982  0.00000  0.08036
       6     H     0.47666  0.47666  0.00000  0.04668
       7     C     3.14475  3.14475  0.00000 -0.28949
       8     H     0.44948  0.44948  0.00000  0.10103
       9     H     0.45286  0.45286  0.00000  0.09429
      10     H     0.46308  0.46308  0.00000  0.07384
      11     H     0.44592  0.44592  0.00000  0.10816
      12     H     0.45167  0.45167  0.00000  0.09666

   Total alpha = 17.00000, Total beta = 17.00000, Total charge =  0.00000

*** Psi4 exiting successfully. Buy a developer a beer!
