  ==> Input File <==

--------------------------------------------------------------------------
set {
	reference rhf
	basis cc-pvtz
}

set_num_threads( 4 )
memory 2 gb

molecule MOL {
0 1

H	 1.166964	 -1.062386	 0.758429
O	 1.324748	 -0.612467	 -0.052206
C	 0.706474	 0.636793	 -0.025501
C	 1.639124	 1.800650	 -0.207795
H	 0.219785	 0.717561	 0.939338
H	 -0.080344	 0.696201	 -0.775226
C	 2.950039	 1.731999	 -0.279172
H	 1.152036	 2.759154	 -0.280355
H	 3.472406	 0.798267	 -0.194028
H	 3.544888	 2.615405	 -0.412622

	symmetry c1
}
set optking {
	frozen_dihedral = ("
		5 3 2 1
	")
}

ee = optimize('scf')
oeprop('DIPOLE', 'QUADRUPOLE', 'MULLIKEN_CHARGES')
f=open( 'psi4out.xyz', 'w' )
f.write( "10  " )
f.write( str(ee) + "\n" )
f.write( MOL.save_string_xyz() )
f.close()
--------------------------------------------------------------------------

    Molecular point group: c1
  Charge       = 0
  Multiplicity = 1
  Basis Set: CC-PVTZ
  Basis Set:
  @DF-RHF Final Energy:  -191.99552572625373
    Total Energy =                       -191.9955257262537316
    Molecular point group: c1
  Basis Set: CC-PVTZ
  Basis Set:
  Basis Set: CC-PVTZ
  Basis Set:
  @DF-RHF Final Energy:  -191.99653237776391
    Total Energy =                       -191.9965323777639412
  Basis Set: CC-PVTZ
  Basis Set:
  Basis Set: CC-PVTZ
  Basis Set:
  @DF-RHF Final Energy:  -191.99684939105626
    Total Energy =                       -191.9968493910564007
  Basis Set: CC-PVTZ
  Basis Set:
  Basis Set: CC-PVTZ
  Basis Set:
  @DF-RHF Final Energy:  -191.99685450187462
    Total Energy =                       -191.9968545018746227
  Basis Set: CC-PVTZ
  Basis Set:
  Charge       = 0
  Multiplicity = 1
  Basis Set: CC-PVTZ
  Basis Set:

    Orbital Energies (a.u.)
    -----------------------

    Doubly Occupied:

       1A    -20.553322     2A    -11.278544     3A    -11.223787
       4A    -11.208708     5A     -1.373159     6A     -1.058394
       7A     -0.927710     8A     -0.760290     9A     -0.708608
      10A     -0.652907    11A     -0.615387    12A     -0.582460
      13A     -0.513199    14A     -0.506800    15A     -0.451263
      16A     -0.361841

  @DF-RHF Final Energy:  -191.99685520003811

   => Energetics <=

    Nuclear Repulsion Energy =            119.4378922673102039
    One-Electron Energy =                -497.3167348077613497
    Two-Electron Energy =                 185.8819873404130760
    DFT Exchange-Correlation Energy =       0.0000000000000000
    Empirical Dispersion Energy =           0.0000000000000000
    PCM Polarization Energy =               0.0000000000000000
    EFP Energy =                            0.0000000000000000
    Total Energy =                       -191.9968552000380839
    Molecular point group: c1
  Basis Set: CC-PVTZ
  Basis Set:

  -Total Gradient:
     Atom            X                  Y                   Z
    ------   -----------------  -----------------  -----------------
       1       -0.000284522672    -0.000144977342    -0.000133908954
       2        0.000391140606     0.000237636825     0.000203089982
       3       -0.000344260235    -0.000204837698    -0.000252275311
       4       -0.000016724301    -0.000008747886     0.000046677841
       5        0.000258595231     0.000131709111     0.000141108292
       6        0.000020423497    -0.000006760390     0.000003745127
       7       -0.000027626141    -0.000006581713     0.000059564258
       8       -0.000003566101     0.000012210697    -0.000013858872
       9        0.000011324197    -0.000003953388    -0.000019411233
      10       -0.000004784080    -0.000005698216    -0.000034731129

  **** Optimization is complete! (in 5 steps) ****
    Final optimized geometry and variables:
    Molecular point group: c1

    Geometry (in Angstrom), charge = 0, multiplicity = 1:

    H           -0.435502602722    -1.873852250262     0.873238481391
    O           -0.270301937173    -1.402426772412     0.079961667816
    C           -0.930913395512    -0.169426888667     0.096151589751
    C            0.006026576461     0.990509626364    -0.073884103534
    H           -1.484881529613    -0.036971255878     1.022146842757
    H           -1.662000066029    -0.150930368142    -0.707312851350
    C            1.312823230667     0.909858255050    -0.180509654144
    H           -0.477185622930     1.952996578430    -0.114010169491
    H            1.818166120251    -0.035462790411    -0.153680836241
    H            1.912199203973     1.791732818252    -0.305268778018

  Mulliken Charges: (a.u.)
   Center  Symbol    Alpha    Beta     Spin     Total
       1     H     0.38962  0.38962  0.00000  0.22076
       2     O     4.19881  4.19881  0.00000 -0.39762
       3     C     2.94653  2.94653  0.00000  0.10694
       4     C     3.07952  3.07952  0.00000 -0.15904
       5     H     0.47259  0.47259  0.00000  0.05481
       6     H     0.46435  0.46435  0.00000  0.07130
       7     C     3.17417  3.17417  0.00000 -0.34835
       8     H     0.42430  0.42430  0.00000  0.15141
       9     H     0.42036  0.42036  0.00000  0.15929
      10     H     0.42975  0.42975  0.00000  0.14051

   Total alpha = 16.00000, Total beta = 16.00000, Total charge = -0.00000
