  ==> Input File <==

--------------------------------------------------------------------------
set {
	reference rhf
	basis 6-31G*
}

set_num_threads( 4 )
memory 2 gb

molecule MOL {
0 1

O	 2.862325	 1.357334	 0.000267
C	 2.843464	 0.164689	 -0.000222
C	 1.546494	 -0.624492	 -0.000609
C	 4.124123	 -0.644674	 -0.000428
C	 0.291004	 0.242674	 0.000989
H	 1.557904	 -1.283758	 -0.867573
H	 1.558622	 -1.285963	 0.864672
C	 -0.519076	 0.103839	 -1.289072
H	 0.575173	 1.279759	 0.148744
H	 -0.324660	 -0.024269	 0.854129
C	 -1.779775	 0.970017	 -1.299286
H	 0.105354	 0.369708	 -2.140805
H	 -0.799371	 -0.938798	 -1.431929
C	 -2.595422	 0.836755	 -2.586521
H	 -1.500713	 2.012597	 -1.157262
H	 -2.405165	 0.704510	 -0.448763
C	 -3.853032	 1.705142	 -2.589284
H	 -1.971680	 1.103048	 -3.437319
H	 -2.876250	 -0.204760	 -2.728793
H	 -3.603263	 2.757000	 -2.482698
H	 -4.409387	 1.589558	 -3.514384
H	 -4.514798	 1.439163	 -1.769854
H	 4.165367	 -1.288615	 -0.874074
H	 4.976217	 0.020734	 -0.001915
H	 4.166763	 -1.286207	 0.874930

	symmetry c1
}
set optking {
	frozen_dihedral = ("
		9 5 3 6
	")
}

ee = optimize('scf')
oeprop('DIPOLE', 'QUADRUPOLE', 'MULLIKEN_CHARGES')
f=open( 'psi4out.xyz', 'w' )
f.write( "25  " )
f.write( str(ee) + "\n" )
f.write( MOL.save_string_xyz() )
f.close()
--------------------------------------------------------------------------

    Molecular point group: c1
  Charge       = 0
  Multiplicity = 1
  Basis Set: 6-31G*
  Basis Set:
  @DF-RHF Final Energy:  -387.13180360807138
    Total Energy =                       -387.1318036080715501
    Molecular point group: c1
  Basis Set: 6-31G*
  Basis Set:
  Basis Set: 6-31G*
  Basis Set:
  @DF-RHF Final Energy:  -387.13213132192391
    Total Energy =                       -387.1321313219241347
  Basis Set: 6-31G*
  Basis Set:
  Basis Set: 6-31G*
  Basis Set:
  @DF-RHF Final Energy:  -387.13178604667485
    Total Energy =                       -387.1317860466750744
  Basis Set: 6-31G*
  Basis Set:
  Basis Set: 6-31G*
  Basis Set:
  @DF-RHF Final Energy:  -387.13223665786586
    Total Energy =                       -387.1322366578657466
  Basis Set: 6-31G*
  Basis Set:
  @DF-RHF Final Energy:  -387.13225519586348
    Total Energy =                       -387.1322551958633085
  @DF-RHF Final Energy:  -387.13225607895447
    Total Energy =                       -387.1322560789549243
  @DF-RHF Final Energy:  -387.13226581756021
    Total Energy =                       -387.1322658175604374
  @DF-RHF Final Energy:  -387.13227132940165
    Total Energy =                       -387.1322713294013056
  @DF-RHF Final Energy:  -387.13227429794978
    Total Energy =                       -387.1322742979490386
  @DF-RHF Final Energy:  -387.13227701391122
    Total Energy =                       -387.1322770139113345
  Basis Set: 6-31G*
  Basis Set:
  @DF-RHF Final Energy:  -387.13228366624378
    Total Energy =                       -387.1322836662435520
  Basis Set: 6-31G*
  Basis Set:
  Basis Set: 6-31G*
  Basis Set:
  @DF-RHF Final Energy:  -387.13228868520230
    Total Energy =                       -387.1322886852027523
  Basis Set: 6-31G*
  Basis Set:
  Basis Set: 6-31G*
  Basis Set:
  @DF-RHF Final Energy:  -387.13229063873314
    Total Energy =                       -387.1322906387331386
  Basis Set: 6-31G*
  Basis Set:
  Charge       = 0
  Multiplicity = 1
  Basis Set: 6-31G*
  Basis Set:

    Orbital Energies (a.u.)
    -----------------------

    Doubly Occupied:

       1A    -20.551075     2A    -11.327385     3A    -11.232005
       4A    -11.228834     5A    -11.215127     6A    -11.214188
       7A    -11.213417     8A    -11.211262     9A    -11.206775
      10A     -1.396692    11A     -1.090876    12A     -1.054651
      13A     -1.014174    14A     -0.967382    15A     -0.890012
      16A     -0.814413    17A     -0.788977    18A     -0.728925
      19A     -0.667184    20A     -0.640504    21A     -0.633202
      22A     -0.621033    23A     -0.593762    24A     -0.583103
      25A     -0.573975    26A     -0.558181    27A     -0.533265
      28A     -0.525514    29A     -0.516397    30A     -0.495255
      31A     -0.482001    32A     -0.472036    33A     -0.461920
      34A     -0.459324    35A     -0.443171    36A     -0.401247

  @DF-RHF Final Energy:  -387.13229067468035

   => Energetics <=

    Nuclear Repulsion Energy =            442.0807517869289995
    One-Electron Energy =               -1400.8115965609085833
    Two-Electron Energy =                 571.5985540992987808
    DFT Exchange-Correlation Energy =       0.0000000000000000
    Empirical Dispersion Energy =           0.0000000000000000
    PCM Polarization Energy =               0.0000000000000000
    EFP Energy =                            0.0000000000000000
    Total Energy =                       -387.1322906746808030
    Molecular point group: c1
  Basis Set: 6-31G*
  Basis Set:

  -Total Gradient:
     Atom            X                  Y                   Z
    ------   -----------------  -----------------  -----------------
       1       -0.000014934773     0.000003474720     0.000003459418
       2       -0.000005850188    -0.000022899290    -0.000006671024
       3       -0.001029481391    -0.001613378869     0.000796865301
       4        0.000001881102     0.000008271366    -0.000004281891
       5        0.000040889835     0.000026419802     0.001985381685
       6        0.000865424427     0.001344411150    -0.000961526020
       7        0.000000123046    -0.000002160946     0.000001880972
       8        0.000003862969     0.000002370863     0.000001844895
       9        0.000139045755     0.000262559082    -0.001825378767
      10        0.000005129072    -0.000002745873     0.000001225905
      11       -0.000000855952    -0.000000955961     0.000001055138
      12        0.000000757327    -0.000002087220     0.000001016244
      13       -0.000001596555     0.000000132532     0.000000693521
      14        0.000000418142     0.000000222279    -0.000000253125
      15        0.000001086323    -0.000000844576    -0.000000963550
      16       -0.000002004658     0.000001974105     0.000000738512
      17       -0.000000785895    -0.000000072057    -0.000000436893
      18       -0.000001132051     0.000001641343     0.000000847066
      19        0.000001705867    -0.000000496484    -0.000000490216
      20       -0.000000222687     0.000000332427    -0.000000635697
      21       -0.000000624705    -0.000000643210     0.000000399900
      22        0.000000660200     0.000000178666     0.000000214454
      23       -0.000003711801     0.000000033027     0.000001618201
      24        0.000000028254    -0.000001619875    -0.000000300693
      25        0.000000188332    -0.000004117004     0.000003696660

  **** Optimization is complete! (in 14 steps) ****
    Final optimized geometry and variables:
    Molecular point group: c1

    Geometry (in Angstrom), charge = 0, multiplicity = 1:

    O            2.552384510805     0.881848170653     0.678101729358
    C            2.532408782373    -0.301633079043     0.823151530730
    C            1.241914113658    -1.106788512703     0.869381747214
    C            3.814024259294    -1.097183692113     0.964578442870
    C           -0.044098350320    -0.264836571911     0.891145695444
    H            1.267281803226    -1.750621776069    -0.008860447331
    H            1.299472897093    -1.778243602607     1.722265248907
    C           -0.848808443025    -0.363029696315    -0.407997126684
    H            0.220051119496     0.772011515896     1.056126594578
    H           -0.668647136067    -0.575656866208     1.723471220998
    C           -2.114724991910     0.494009436598    -0.393702505648
    H           -0.216243142367    -0.057237957359    -1.239509382947
    H           -1.118899312067    -1.401995599844    -0.592340658825
    C           -2.921184641853     0.404500602050    -1.690572293243
    H           -1.842824633665     1.531903183628    -0.210745306512
    H           -2.744818304911     0.192209928539     0.441747527862
    C           -4.184816812199     1.263823624091    -1.668658582167
    H           -2.293537017146     0.707829135305    -2.525743227403
    H           -3.193786531234    -0.632686906170    -1.874751677588
    H           -3.942850045174     2.312458670599    -1.520758715315
    H           -4.734562277885     1.179735175054    -2.601099414360
    H           -4.850038902486     0.962530199697    -0.864251129247
    H            3.824559024978    -1.944524635232     0.286105883499
    H            4.664036202831    -0.459059423984     0.766996344487
    H            3.890760628406    -1.491048974276     1.974374147424

  Mulliken Charges: (a.u.)
   Center  Symbol    Alpha    Beta     Spin     Total
       1     O     4.26085  4.26085  0.00000 -0.52171
       2     C     2.73882  2.73882  0.00000  0.52235
       3     C     3.21401  3.21401  0.00000 -0.42803
       4     C     3.28736  3.28736  0.00000 -0.57472
       5     C     3.15632  3.15632  0.00000 -0.31263
       6     H     0.40609  0.40609  0.00000  0.18782
       7     H     0.40777  0.40777  0.00000  0.18447
       8     C     3.15583  3.15583  0.00000 -0.31166
       9     H     0.39575  0.39575  0.00000  0.20850
      10     H     0.42072  0.42072  0.00000  0.15856
      11     C     3.15190  3.15190  0.00000 -0.30380
      12     H     0.41993  0.41993  0.00000  0.16014
      13     H     0.42587  0.42587  0.00000  0.14826
      14     C     3.15148  3.15148  0.00000 -0.30295
      15     H     0.42037  0.42037  0.00000  0.15926
      16     H     0.42484  0.42484  0.00000  0.15032
      17     C     3.23931  3.23931  0.00000 -0.47862
      18     H     0.42235  0.42235  0.00000  0.15530
      19     H     0.42418  0.42418  0.00000  0.15164
      20     H     0.42097  0.42097  0.00000  0.15806
      21     H     0.41971  0.41971  0.00000  0.16059
      22     H     0.42225  0.42225  0.00000  0.15550
      23     H     0.41009  0.41009  0.00000  0.17981
      24     H     0.39644  0.39644  0.00000  0.20713
      25     H     0.40679  0.40679  0.00000  0.18642

   Total alpha = 36.00000, Total beta = 36.00000, Total charge = -0.00000
