  ==> Input File <==

--------------------------------------------------------------------------
set {
	reference rhf
	basis cc-pvtz
}

set_num_threads( 4 )
memory 2 gb

molecule MOL {
0 1

H	 2.827715	 -0.377064	 -0.335879
O	 1.991073	 -0.816979	 -0.351397
C	 1.050374	 0.054877	 0.000135
C	 -0.318151	 -0.570512	 0.000144
O	 1.302738	 1.177527	 0.272050
C	 -1.454884	 0.441630	 -0.000560
H	 -0.371613	 -1.223646	 -0.864985
H	 -0.371920	 -1.222758	 0.865929
C	 -2.822577	 -0.232186	 0.000063
H	 -1.359760	 1.084704	 -0.867077
H	 -1.359641	 1.085996	 0.864983
H	 -2.954352	 -0.858985	 -0.875745
H	 -3.615886	 0.505352	 0.000019
H	 -2.953878	 -0.858359	 0.876394

	symmetry c1
}
set optking {
	frozen_dihedral = ("
		2 3 4 7
	")
}

ee = optimize('scf')
oeprop('DIPOLE', 'QUADRUPOLE', 'MULLIKEN_CHARGES')
f=open( 'psi4out.xyz', 'w' )
f.write( "14  " )
f.write( str(ee) + "\n" )
f.write( MOL.save_string_xyz() )
f.close()
--------------------------------------------------------------------------

    Molecular point group: c1
  Charge       = 0
  Multiplicity = 1
  Basis Set: CC-PVTZ
  Basis Set:
  @DF-RHF Final Energy:  -306.00071037100565
    Total Energy =                       -306.0007103710055389
    Molecular point group: c1
  Basis Set: CC-PVTZ
  Basis Set:
  Basis Set: CC-PVTZ
  Basis Set:
  @DF-RHF Final Energy:  -306.00074375747738
    Total Energy =                       -306.0007437574772098
  Basis Set: CC-PVTZ
  Basis Set:
  Basis Set: CC-PVTZ
  Basis Set:
  @DF-RHF Final Energy:  -306.00068137948023
    Total Energy =                       -306.0006813794800564
  Basis Set: CC-PVTZ
  Basis Set:
  Basis Set: CC-PVTZ
  Basis Set:
  @DF-RHF Final Energy:  -306.00080377398098
    Total Energy =                       -306.0008037739809197
  Basis Set: CC-PVTZ
  Basis Set:
  Charge       = 0
  Multiplicity = 1
  Basis Set: CC-PVTZ
  Basis Set:

    Orbital Energies (a.u.)
    -----------------------

    Doubly Occupied:

       1A    -20.604891     2A    -20.540584     3A    -11.374058
       4A    -11.239754     5A    -11.224494     6A    -11.215626
       7A     -1.478199     8A     -1.369481     9A     -1.084556
      10A     -0.980992    11A     -0.859200    12A     -0.794033
      13A     -0.704676    14A     -0.691858    15A     -0.668036
      16A     -0.619143    17A     -0.596833    18A     -0.574745
      19A     -0.546356    20A     -0.507729    21A     -0.492706
      22A     -0.483786    23A     -0.483105    24A     -0.447177

  @DF-RHF Final Energy:  -306.00080427881051

   => Energetics <=

    Nuclear Repulsion Energy =            240.4263284128415989
    One-Electron Energy =                -893.6902284740908726
    Two-Electron Energy =                 347.2630957824390521
    DFT Exchange-Correlation Energy =       0.0000000000000000
    Empirical Dispersion Energy =           0.0000000000000000
    PCM Polarization Energy =               0.0000000000000000
    EFP Energy =                            0.0000000000000000
    Total Energy =                       -306.0008042788102216
    Molecular point group: c1
  Basis Set: CC-PVTZ
  Basis Set:

  -Total Gradient:
     Atom            X                  Y                   Z
    ------   -----------------  -----------------  -----------------
       1       -0.000002901986     0.000003854355    -0.000002329953
       2       -0.000061326126     0.000152707556    -0.000694875906
       3        0.000146881636    -0.000323055594     0.001039081558
       4       -0.000390214374     0.000874773292    -0.000820114280
       5       -0.000006031690    -0.000036854316    -0.000007332506
       6        0.000007226640    -0.000005661469     0.000021157682
       7        0.000295534888    -0.000653952800     0.000479663842
       8        0.000002177872    -0.000003436875     0.000004700344
       9        0.000000234027    -0.000002583309    -0.000016806458
      10       -0.000001690020    -0.000002070553    -0.000002858408
      11        0.000008720087    -0.000004427282     0.000000571730
      12       -0.000005832867    -0.000003806031     0.000000366858
      13        0.000001499854     0.000000570406    -0.000002028407
      14        0.000005722065     0.000003942621     0.000000803902

  **** Optimization is complete! (in 5 steps) ****
    Final optimized geometry and variables:
    Molecular point group: c1

    Geometry (in Angstrom), charge = 0, multiplicity = 1:

    H            2.836681671781    -0.380863609646    -0.270886064329
    O            1.999488029587    -0.816993087883    -0.324141392833
    C            1.051025557097     0.052188330666     0.011842491621
    C           -0.317411401003    -0.573814210085    -0.004647144552
    O            1.297239135531     1.173228158221     0.296330808646
    C           -1.453986006818     0.439045627011     0.012690489692
    H           -0.376083167698    -1.232659865948    -0.862748526347
    H           -0.366165139181    -1.220684567537     0.867508284555
    C           -2.821918844759    -0.233856412123     0.029169845123
    H           -1.371703328175     1.083163122056    -0.855564644750
    H           -1.344786836226     1.081128003836     0.877184787245
    H           -2.964640612295    -0.861719557245    -0.844091927490
    H           -3.614625519588     0.504290173863     0.037858573491
    H           -2.942681096021    -0.858605625246     0.908016070174

  Mulliken Charges: (a.u.)
   Center  Symbol    Alpha    Beta     Spin     Total
       1     H     0.38182  0.38182  0.00000  0.23635
       2     O     4.15976  4.15976  0.00000 -0.31951
       3     C     2.80676  2.80676  0.00000  0.38647
       4     C     3.10288  3.10288  0.00000 -0.20576
       5     O     4.19190  4.19190  0.00000 -0.38379
       6     C     3.08038  3.08038  0.00000 -0.16076
       7     H     0.43720  0.43720  0.00000  0.12561
       8     H     0.44147  0.44147  0.00000  0.11706
       9     C     3.15016  3.15016  0.00000 -0.30032
      10     H     0.44887  0.44887  0.00000  0.10227
      11     H     0.44297  0.44297  0.00000  0.11406
      12     H     0.45554  0.45554  0.00000  0.08892
      13     H     0.44515  0.44515  0.00000  0.10970
      14     H     0.45514  0.45514  0.00000  0.08972

   Total alpha = 24.00000, Total beta = 24.00000, Total charge =  0.00000
