                              Psi4 1.0.54 Driver

  ==> Input File <==

--------------------------------------------------------------------------
set {
	reference rhf
	basis cc-pvtz
}

set_num_threads( 4 )
memory 2 gb

molecule MOL {
0 1

O	 -0.911890	 -1.254660	 0.736823
C	 -0.623058	 -0.157977	 0.351363
C	 -1.668731	 0.937955	 0.333026
N	 0.622280	 0.144970	 -0.099307
H	 -1.817011	 1.325087	 -0.667217
H	 -2.590622	 0.509672	 0.689654
H	 -1.386612	 1.763266	 0.975089
C	 1.664396	 -0.854993	 0.000772
C	 1.079459	 1.488287	 -0.364340
H	 2.462727	 -0.615153	 -0.690869
H	 1.261798	 -1.821849	 -0.240651
H	 2.081615	 -0.891605	 1.003877
H	 1.793302	 1.467165	 -1.177739
H	 0.269908	 2.133924	 -0.658747
H	 1.572685	 1.927245	 0.500002

	symmetry c1
}
set optking {
	frozen_dihedral = ("
		2 4 8 10
	")
}

ee,wfn = optimize('scf', return_wfn=True)
oeprop( wfn, 'DIPOLE', 'QUADRUPOLE', 'MULLIKEN_CHARGES')
f=open( 'psi4out.xyz', 'w' )
f.write( "15  " )
f.write( str(ee) + "\n" )
f.write( MOL.save_string_xyz() )
f.close()
--------------------------------------------------------------------------

    Molecular point group: c1
  Charge       = 0
  Multiplicity = 1
  Basis Set: CC-PVTZ
  Basis Set:
  @DF-RHF Final Energy:  -286.13522857830043
    Total Energy =                       -286.1352285783005414
    Molecular point group: c1
  Basis Set: CC-PVTZ
  Basis Set:
  Basis Set: CC-PVTZ
  Basis Set:
  @DF-RHF Final Energy:  -286.13540561336617
    Total Energy =                       -286.1354056133659469
  Basis Set: CC-PVTZ
  Basis Set:
  Basis Set: CC-PVTZ
  Basis Set:
  @DF-RHF Final Energy:  -286.13537941830873
    Total Energy =                       -286.1353794183085029
  Basis Set: CC-PVTZ
  Basis Set:
  Basis Set: CC-PVTZ
  Basis Set:
  @DF-RHF Final Energy:  -286.13548013148670
    Total Energy =                       -286.1354801314865881
  Basis Set: CC-PVTZ
  Basis Set:
  Basis Set: CC-PVTZ
  Basis Set:
  @DF-RHF Final Energy:  -286.13548740742112
    Total Energy =                       -286.1354874074210102
  Basis Set: CC-PVTZ
  Basis Set:
  Basis Set: CC-PVTZ
  Basis Set:
  @DF-RHF Final Energy:  -286.13549092731677
    Total Energy =                       -286.1354909273167664
  Basis Set: CC-PVTZ
  Basis Set:
  Charge       = 0
  Multiplicity = 1
  Basis Set: CC-PVTZ
  Basis Set:

    Orbital Energies (a.u.)
    -----------------------

    Doubly Occupied:

       1A    -20.504908     2A    -15.577824     3A    -11.334244
       4A    -11.264013     5A    -11.246702     6A    -11.226611
       7A     -1.388358     8A     -1.245383     9A     -1.014887
      10A     -0.973254    11A     -0.919794    12A     -0.738633
      13A     -0.682711    14A     -0.661071    15A     -0.653827
      16A     -0.589749    17A     -0.578228    18A     -0.569152
      19A     -0.562903    20A     -0.547486    21A     -0.530689
      22A     -0.504868    23A     -0.414819    24A     -0.371281

  @DF-RHF Final Energy:  -286.13549113514114

   => Energetics <=

    Nuclear Repulsion Energy =            253.0537413266310693
    One-Electron Energy =                -890.1756770732919222
    Two-Electron Energy =                 350.9864446115198007
    DFT Exchange-Correlation Energy =       0.0000000000000000
    Empirical Dispersion Energy =           0.0000000000000000
    PCM Polarization Energy =               0.0000000000000000
    EFP Energy =                            0.0000000000000000
    Total Energy =                       -286.1354911351410237
    Molecular point group: c1
  Basis Set: CC-PVTZ
  Basis Set:

  -Total Gradient:
     Atom            X                  Y                   Z
    ------   -----------------  -----------------  -----------------
       1       -0.000023962174     0.000018807463     0.000006812978
       2        0.000134323392     0.000147129641     0.000362485002
       3       -0.000009947343    -0.000020964291     0.000019252853
       4       -0.000102370883    -0.000119485426    -0.000475679426
       5        0.000004267598    -0.000006481074     0.000001042336
       6       -0.000016889294     0.000002122450     0.000004951227
       7       -0.000005878734    -0.000007771919    -0.000002212561
       8       -0.000246907335    -0.000273891344    -0.000240006874
       9        0.000001373237    -0.000037244795    -0.000016797377
      10        0.000224754976     0.000292681295     0.000351122863
      11        0.000001336357    -0.000013444509    -0.000000673901
      12        0.000000825398    -0.000010035119    -0.000009357229
      13        0.000010650606     0.000023443648    -0.000012470922
      14        0.000019600032    -0.000004974823     0.000008509250
      15        0.000008824168     0.000010108803     0.000003021781

  **** Optimization is complete! (in 7 steps) ****
    Final optimized geometry and variables:
    Molecular point group: c1

    Geometry (in Angstrom), charge = 0, multiplicity = 1:

    O           -0.922833645616    -1.296907955595     0.609652239165
    C           -0.656938154012    -0.207256035045     0.190022998855
    C           -1.715361492276     0.875260867643     0.158352738774
    N            0.579323601610     0.089335045931    -0.290490460966
    H           -1.849135910783     1.271149555641    -0.840251585059
    H           -2.638568732524     0.434173092147     0.495822707534
    H           -1.454028652554     1.696628930573     0.814482225214
    C            1.610160810781    -0.920190083224    -0.154608165054
    C            1.045045018712     1.436096690664    -0.525071202054
    H            2.400450755085    -0.712123695338    -0.863114192000
    H            1.199301955019    -1.894967215535    -0.352746025703
    H            2.037852249593    -0.927459331699     0.844233799278
    H            1.742986774575     1.435622225429    -1.351990966255
    H            0.233881091692     2.094598053820    -0.784236869226
    H            1.555459613232     1.847365670568     0.343129229697

  Mulliken Charges: (a.u.)
   Center  Symbol    Alpha    Beta     Spin     Total
       1     O     4.21912  4.21912  0.00000 -0.43823
       2     C     2.84494  2.84494  0.00000  0.31013
       3     C     3.16062  3.16062  0.00000 -0.32124
       4     N     3.56431  3.56431  0.00000 -0.12862
       5     H     0.44883  0.44883  0.00000  0.10234
       6     H     0.42872  0.42872  0.00000  0.14255
       7     H     0.44894  0.44894  0.00000  0.10212
       8     C     3.09398  3.09398  0.00000 -0.18796
       9     C     3.09597  3.09597  0.00000 -0.19193
      10     H     0.45768  0.45768  0.00000  0.08465
      11     H     0.43131  0.43131  0.00000  0.13738
      12     H     0.45575  0.45575  0.00000  0.08849
      13     H     0.44865  0.44865  0.00000  0.10269
      14     H     0.44545  0.44545  0.00000  0.10910
      15     H     0.45573  0.45573  0.00000  0.08854

   Total alpha = 24.00000, Total beta = 24.00000, Total charge =  0.00000

*** Psi4 exiting successfully. Buy a developer a beer!
