                              Psi4 1.0.54 Driver

  ==> Input File <==

--------------------------------------------------------------------------
set {
	reference rhf
	basis cc-pvtz
}

set_num_threads( 4 )
memory 2 gb

molecule MOL {
0 1

H	 -1.752232	 -2.214755	 -0.011938
C	 -1.343852	 -1.221619	 -0.018179
N	 -0.058800	 -1.097635	 -0.261688
C	 -2.148159	 -0.124236	 0.219734
C	 0.449026	 0.119242	 -0.273393
H	 -3.196988	 -0.237571	 0.417076
N	 -1.655094	 1.094230	 0.209506
C	 -0.370318	 1.215445	 -0.035100
C	 1.924033	 0.265863	 -0.538106
H	 0.033214	 2.210441	 -0.046812
C	 2.218467	 1.084385	 -1.796192
H	 2.374558	 0.750308	 0.319859
H	 2.372935	 -0.716549	 -0.625103
H	 3.287267	 1.196604	 -1.934058
H	 1.779640	 2.070619	 -1.720347
H	 1.814642	 0.601815	 -2.679140

	symmetry c1
}
set optking {
	frozen_dihedral = ("
		12 9 5 3
	")
}

ee,wfn = optimize('scf', return_wfn=True)
oeprop( wfn, 'DIPOLE', 'QUADRUPOLE', 'MULLIKEN_CHARGES')
f=open( 'psi4out.xyz', 'w' )
f.write( "16  " )
f.write( str(ee) + "\n" )
f.write( MOL.save_string_xyz() )
f.close()
--------------------------------------------------------------------------

    Molecular point group: c1
  Charge       = 0
  Multiplicity = 1
  Basis Set: CC-PVTZ
  Basis Set:
  @DF-RHF Final Energy:  -340.87055822723283
    Total Energy =                       -340.8705582272325501
    Molecular point group: c1
  Basis Set: CC-PVTZ
  Basis Set:
  Basis Set: CC-PVTZ
  Basis Set:
  @DF-RHF Final Energy:  -340.87089440522902
    Total Energy =                       -340.8708944052289098
  Basis Set: CC-PVTZ
  Basis Set:
  Basis Set: CC-PVTZ
  Basis Set:
  @DF-RHF Final Energy:  -340.87097899015566
    Total Energy =                       -340.8709789901557770
  Basis Set: CC-PVTZ
  Basis Set:
  Basis Set: CC-PVTZ
  Basis Set:
  @DF-RHF Final Energy:  -340.87099485247444
    Total Energy =                       -340.8709948524748370
  Basis Set: CC-PVTZ
  Basis Set:
  Basis Set: CC-PVTZ
  Basis Set:
  @DF-RHF Final Energy:  -340.87100158144517
    Total Energy =                       -340.8710015814451140
  Basis Set: CC-PVTZ
  Basis Set:
  Basis Set: CC-PVTZ
  Basis Set:
  @DF-RHF Final Energy:  -340.87100301346129
    Total Energy =                       -340.8710030134608928
  Basis Set: CC-PVTZ
  Basis Set:
  Charge       = 0
  Multiplicity = 1
  Basis Set: CC-PVTZ
  Basis Set:

    Orbital Energies (a.u.)
    -----------------------

    Doubly Occupied:

       1A    -15.580441     2A    -15.575687     3A    -11.279111
       4A    -11.270690     5A    -11.269392     6A    -11.266725
       7A    -11.231413     8A    -11.221478     9A     -1.315600
      10A     -1.223609    11A     -1.086658    12A     -1.016498
      13A     -0.905985    14A     -0.896756    15A     -0.831638
      16A     -0.717153    17A     -0.713972    18A     -0.657656
      19A     -0.615737    20A     -0.607268    21A     -0.583372
      22A     -0.565092    23A     -0.524575    24A     -0.511352
      25A     -0.505369    26A     -0.483752    27A     -0.434067
      28A     -0.397655    29A     -0.346384

  @DF-RHF Final Energy:  -340.87100336037071

   => Energetics <=

    Nuclear Repulsion Energy =            350.1726163452869400
    One-Electron Energy =               -1154.8170694061348058
    Two-Electron Energy =                 463.7734497004771015
    DFT Exchange-Correlation Energy =       0.0000000000000000
    Empirical Dispersion Energy =           0.0000000000000000
    PCM Polarization Energy =               0.0000000000000000
    EFP Energy =                            0.0000000000000000
    Total Energy =                       -340.8710033603707075
    Molecular point group: c1
  Basis Set: CC-PVTZ
  Basis Set:

  -Total Gradient:
     Atom            X                  Y                   Z
    ------   -----------------  -----------------  -----------------
       1        0.000010745731    -0.000000972477     0.000011475590
       2        0.000015108780     0.000015898371    -0.000014096054
       3        0.000232012819    -0.000088285213     0.001138715178
       4        0.000008418197     0.000016192490    -0.000021623426
       5       -0.000267828034    -0.000192037164    -0.001509369220
       6        0.000000879824     0.000005751047     0.000013602056
       7        0.000001540675     0.000007849012    -0.000000691373
       8       -0.000018900374    -0.000008481025     0.000021317344
       9       -0.000184640191     0.001426993020    -0.000195965004
      10       -0.000008748456     0.000003238168    -0.000001919543
      11       -0.000016082127    -0.000022795612     0.000024118442
      12        0.000237376726    -0.001176828102     0.000546988844
      13       -0.000009460844    -0.000000556997     0.000003094790
      14        0.000007001435    -0.000003084637     0.000001748306
      15       -0.000006759927     0.000021394479    -0.000001117344
      16       -0.000000664231    -0.000004275362    -0.000016278584

  **** Optimization is complete! (in 7 steps) ****
    Final optimized geometry and variables:
    Molecular point group: c1

    Geometry (in Angstrom), charge = 0, multiplicity = 1:

    H           -1.667049944595    -2.402546486983     0.306718328967
    C           -1.266591111206    -1.406555317300     0.307534500166
    N            0.024181903265    -1.274567230420     0.066673373168
    C           -2.072773783954    -0.319979410776     0.554121176356
    C            0.524817107423    -0.060017889644     0.063393020808
    H           -3.121082443096    -0.437289968761     0.750242115640
    N           -1.581759678596     0.905160215097     0.562903851957
    C           -0.302509304407     1.033184135030     0.321758747128
    C            1.999979327055     0.106972459183    -0.202381023754
    H            0.099020510972     2.029210513541     0.335028179996
    C            2.313757173881     0.895117835215    -1.474956693868
    H            2.462515324995     0.589343247495     0.653192179712
    H            2.426069039337    -0.883963264630    -0.270697605300
    H            3.385060486564     0.962380767495    -1.620927805510
    H            1.922330359466     1.904469643866    -1.430773070892
    H            1.886011137206     0.409578008559    -2.344098603756

  Mulliken Charges: (a.u.)
   Center  Symbol    Alpha    Beta     Spin     Total
       1     H     0.41374  0.41374  0.00000  0.17252
       2     C     3.04086  3.04086  0.00000 -0.08171
       3     N     3.59077  3.59077  0.00000 -0.18154
       4     C     3.04840  3.04840  0.00000 -0.09679
       5     C     2.94571  2.94571  0.00000  0.10857
       6     H     0.41346  0.41346  0.00000  0.17308
       7     N     3.58726  3.58726  0.00000 -0.17453
       8     C     3.07726  3.07726  0.00000 -0.15452
       9     C     3.08561  3.08561  0.00000 -0.17122
      10     H     0.41472  0.41472  0.00000  0.17057
      11     C     3.14523  3.14523  0.00000 -0.29046
      12     H     0.44620  0.44620  0.00000  0.10761
      13     H     0.44032  0.44032  0.00000  0.11936
      14     H     0.44723  0.44723  0.00000  0.10554
      15     H     0.45454  0.45454  0.00000  0.09092
      16     H     0.44870  0.44870  0.00000  0.10260

   Total alpha = 29.00000, Total beta = 29.00000, Total charge =  0.00000

*** Psi4 exiting successfully. Buy a developer a beer!
