  ==> Input File <==

--------------------------------------------------------------------------
set {
	reference rhf
	basis 6-31G*
}

set_num_threads( 1 )
memory 2 gb

molecule MOL {
0 1

O	 -2.821601	 1.309235	 -0.001213
C	 -2.668563	 0.129746	 -0.000350
C	 -3.801572	 -0.864014	 -0.000442
O	 -1.481751	 -0.454642	 0.000584
H	 -4.417280	 -0.689587	 -0.874708
H	 -3.443784	 -1.883046	 -0.000565
H	 -4.417179	 -0.689832	 0.873954
C	 -0.334255	 0.388708	 0.000906
C	 0.891947	 -0.504646	 0.000751
H	 -0.365390	 1.025305	 -0.873475
H	 -0.365484	 1.024911	 0.875569
C	 2.191998	 0.301789	 0.000897
H	 0.855148	 -1.151283	 -0.871571
H	 0.855132	 -1.151660	 0.872805
C	 3.441114	 -0.581407	 0.000108
H	 2.215074	 0.954890	 -0.869742
H	 2.215465	 0.953923	 0.872248
C	 3.343558	 -1.749421	 -0.980246
H	 3.610453	 -0.965034	 1.003717
H	 4.309828	 0.025217	 -0.245680
H	 2.503022	 -2.394175	 -0.739817
H	 4.242984	 -2.356682	 -0.957824
H	 3.208000	 -1.396495	 -1.998616

	symmetry c1
}
set optking {
	frozen_dihedral = ("
		13 9 8 10,
		2 4 8 10,
		16 12 9 13,
		1 2 4 8
	")
}

ee = energy('scf')
oeprop('DIPOLE', 'QUADRUPOLE', 'MULLIKEN_CHARGES')
f=open( 'psi4out.xyz', 'w' )
f.write( "23  " )
f.write( str(ee) + "\n" )
f.write( MOL.save_string_xyz() )
f.close()
--------------------------------------------------------------------------

    Molecular point group: c1

    Geometry (in Angstrom), charge = 0, multiplicity = 1:

       Center              X                  Y                   Z               Mass
    ------------   -----------------  -----------------  -----------------  -----------------
           O         -2.660424884854     1.537086764501     0.111833151121    15.994914619560
           C         -2.507386884854     0.357597764501     0.112696151121    12.000000000000
           C         -3.640395884854    -0.636162235499     0.112604151121    12.000000000000
           O         -1.320574884854    -0.226790235499     0.113630151121    15.994914619560
           H         -4.256103884854    -0.461735235499    -0.761661848879     1.007825032070
           H         -3.282607884854    -1.655194235499     0.112481151121     1.007825032070
           H         -4.256002884854    -0.461980235499     0.987000151121     1.007825032070
           C         -0.173078884854     0.616559764501     0.113952151121    12.000000000000
           C          1.053123115146    -0.276794235499     0.113797151121    12.000000000000
           H         -0.204213884854     1.253156764501    -0.760428848879     1.007825032070
           H         -0.204307884854     1.252762764501     0.988615151121     1.007825032070
           C          2.353174115146     0.529640764501     0.113943151121    12.000000000000
           H          1.016324115146    -0.923431235499    -0.758524848879     1.007825032070
           H          1.016308115146    -0.923808235499     0.985851151121     1.007825032070
           C          3.602290115146    -0.353555235499     0.113154151121    12.000000000000
           H          2.376250115146     1.182741764501    -0.756695848879     1.007825032070
           H          2.376641115146     1.181774764501     0.985294151121     1.007825032070
           C          3.504734115146    -1.521569235499    -0.867199848879    12.000000000000
           H          3.771629115146    -0.737182235499     1.116763151121     1.007825032070
           H          4.471004115146     0.253068764501    -0.132633848879     1.007825032070
           H          2.664198115146    -2.166323235499    -0.626770848879     1.007825032070
           H          4.404160115146    -2.128830235499    -0.844777848879     1.007825032070
           H          3.369176115146    -1.168643235499    -1.885569848879     1.007825032070

  Charge       = 0
  Multiplicity = 1
  Basis Set: 6-31G*
  Basis Set:

    Orbital Energies (a.u.)
    -----------------------

    Doubly Occupied:

       1A    -20.602798     2A    -20.540376     3A    -11.373952
       4A    -11.281055     5A    -11.232334     6A    -11.223893
       7A    -11.223009     8A    -11.221494     9A    -11.212338
      10A     -1.467781    11A     -1.360567    12A     -1.096485
      13A     -1.040896    14A     -1.000469    15A     -0.930438
      16A     -0.858283    17A     -0.789818    18A     -0.770081
      19A     -0.691360    20A     -0.684925    21A     -0.670612
      22A     -0.639867    23A     -0.616202    24A     -0.600757
      25A     -0.574443    26A     -0.569533    27A     -0.550018
      28A     -0.537735    29A     -0.525925    30A     -0.505569
      31A     -0.496809    32A     -0.470748    33A     -0.468010
      34A     -0.465006    35A     -0.450968    36A     -0.435210

  @DF-RHF Final Energy:  -422.97465796506663

   => Energetics <=

    Nuclear Repulsion Energy =            456.8002373899175836
    One-Electron Energy =               -1481.1902612750727712
    Two-Electron Energy =                 601.4153659200878792
    DFT Exchange-Correlation Energy =       0.0000000000000000
    Empirical Dispersion Energy =           0.0000000000000000
    PCM Polarization Energy =               0.0000000000000000
    EFP Energy =                            0.0000000000000000
    Total Energy =                       -422.9746579650673084

  Mulliken Charges: (a.u.)
   Center  Symbol    Alpha    Beta     Spin     Total
       1     O     4.28394  4.28394  0.00000 -0.56788
       2     C     2.61526  2.61526  0.00000  0.76948
       3     C     3.28771  3.28771  0.00000 -0.57543
       4     O     4.31279  4.31279  0.00000 -0.62558
       5     H     0.39751  0.39751  0.00000  0.20497
       6     H     0.39995  0.39995  0.00000  0.20010
       7     H     0.39752  0.39752  0.00000  0.20497
       8     C     2.99427  2.99427  0.00000  0.01146
       9     C     3.17123  3.17123  0.00000 -0.34247
      10     H     0.41078  0.41078  0.00000  0.17844
      11     H     0.41096  0.41096  0.00000  0.17809
      12     C     3.16112  3.16112  0.00000 -0.32224
      13     H     0.41009  0.41009  0.00000  0.17982
      14     H     0.41467  0.41467  0.00000  0.17065
      15     C     3.15138  3.15138  0.00000 -0.30275
      16     H     0.42069  0.42069  0.00000  0.15863
      17     H     0.41848  0.41848  0.00000  0.16303
      18     C     3.24663  3.24663  0.00000 -0.49325
      19     H     0.42106  0.42106  0.00000  0.15787
      20     H     0.41843  0.41843  0.00000  0.16315
      21     H     0.41699  0.41699  0.00000  0.16602
      22     H     0.41725  0.41725  0.00000  0.16550
      23     H     0.42129  0.42129  0.00000  0.15741

   Total alpha = 36.00000, Total beta = 36.00000, Total charge = -0.00000
