  ==> Input File <==

--------------------------------------------------------------------------
set {
	reference rhf
	basis cc-pvtz
}

set_num_threads( 4 )
memory 2 gb

molecule MOL {
0 1

O	 -2.071633	 -1.227563	 -0.223463
C	 -1.652164	 -0.152425	 0.058082
C	 -0.327811	 0.006324	 0.778296
C	 -2.402515	 1.108629	 -0.298924
C	 0.843231	 -0.001575	 -0.211665
H	 -0.319484	 0.928173	 1.350354
H	 -0.227804	 -0.823091	 1.466705
C	 2.197693	 0.138030	 0.476937
H	 0.722944	 0.805202	 -0.930230
H	 0.813976	 -0.926978	 -0.776588
C	 2.100718	 0.065674	 1.996977
H	 2.865530	 -0.641134	 0.119976
H	 2.648403	 1.083044	 0.188234
H	 1.685384	 -0.883596	 2.318562
H	 1.464095	 0.852983	 2.385853
H	 3.076506	 0.171865	 2.456284
H	 -3.240910	 0.874416	 -0.936711
H	 -1.747554	 1.818823	 -0.790984
H	 -2.760419	 1.579708	 0.610998

	symmetry c1
}
set optking {
	frozen_dihedral = ("
		11 8 5 9
	")
}

ee = optimize('scf')
oeprop('DIPOLE', 'QUADRUPOLE', 'MULLIKEN_CHARGES')
f=open( 'psi4out.xyz', 'w' )
f.write( "19  " )
f.write( str(ee) + "\n" )
f.write( MOL.save_string_xyz() )
f.close()
--------------------------------------------------------------------------

    Molecular point group: c1
  Charge       = 0
  Multiplicity = 1
  Basis Set: CC-PVTZ
  Basis Set:
  @DF-RHF Final Energy:  -309.16329362758904
    Total Energy =                       -309.1632936275889278
    Molecular point group: c1
  Basis Set: CC-PVTZ
  Basis Set:
  Basis Set: CC-PVTZ
  Basis Set:
  @DF-RHF Final Energy:  -309.16363213289202
    Total Energy =                       -309.1636321328917916
  Basis Set: CC-PVTZ
  Basis Set:
  Basis Set: CC-PVTZ
  Basis Set:
  @DF-RHF Final Energy:  -309.16710037802972
    Total Energy =                       -309.1671003780298292
  Basis Set: CC-PVTZ
  Basis Set:
  Basis Set: CC-PVTZ
  Basis Set:
  @DF-RHF Final Energy:  -309.16743056250579
    Total Energy =                       -309.1674305625061834
  Basis Set: CC-PVTZ
  Basis Set:
  Basis Set: CC-PVTZ
  Basis Set:
  @DF-RHF Final Energy:  -309.16755380457499
    Total Energy =                       -309.1675538045750500
  Basis Set: CC-PVTZ
  Basis Set:
  Basis Set: CC-PVTZ
  Basis Set:
  @DF-RHF Final Energy:  -309.16764354302734
    Total Energy =                       -309.1676435430274523
  Basis Set: CC-PVTZ
  Basis Set:
  Basis Set: CC-PVTZ
  Basis Set:
  @DF-RHF Final Energy:  -309.16764456479677
    Total Energy =                       -309.1676445647966602
  Basis Set: CC-PVTZ
  Basis Set:
  Charge       = 0
  Multiplicity = 1
  Basis Set: CC-PVTZ
  Basis Set:

    Orbital Energies (a.u.)
    -----------------------

    Doubly Occupied:

       1A    -20.536567     2A    -11.319070     3A    -11.229180
       4A    -11.227232     5A    -11.226864     6A    -11.223592
       7A    -11.214075     8A     -1.396746     9A     -1.088750
      10A     -1.027691    11A     -0.982119    12A     -0.903795
      13A     -0.795678    14A     -0.734252    15A     -0.663874
      16A     -0.653381    17A     -0.623582    18A     -0.605750
      19A     -0.586399    20A     -0.572923    21A     -0.552627
      22A     -0.545061    23A     -0.523936    24A     -0.504472
      25A     -0.481139    26A     -0.467531    27A     -0.458999
      28A     -0.399520

  @DF-RHF Final Energy:  -309.16764532929227

   => Energetics <=

    Nuclear Repulsion Energy =            305.3519779980852604
    One-Electron Energy =               -1023.9496401428585841
    Two-Electron Energy =                 409.4300168154808830
    DFT Exchange-Correlation Energy =       0.0000000000000000
    Empirical Dispersion Energy =           0.0000000000000000
    PCM Polarization Energy =               0.0000000000000000
    EFP Energy =                            0.0000000000000000
    Total Energy =                       -309.1676453292923838
    Molecular point group: c1
  Basis Set: CC-PVTZ
  Basis Set:

  -Total Gradient:
     Atom            X                  Y                   Z
    ------   -----------------  -----------------  -----------------
       1        0.000004477891    -0.000002310356    -0.000024780948
       2       -0.000026787146     0.000022622197     0.000065690664
       3        0.000037858432     0.000017227089    -0.000041516488
       4        0.000008404566     0.000001319579    -0.000013186885
       5        0.001210016697    -0.000945795051    -0.002413600643
       6        0.000017290810    -0.000008823738     0.000020369091
       7       -0.000015375220    -0.000031489575    -0.000024813495
       8        0.000147858983    -0.002667980289     0.000311682982
       9       -0.001140713124     0.001530538757     0.002005583692
      10        0.000004215963    -0.000008433635     0.000019045616
      11       -0.000266620316     0.002105641777     0.000110603161
      12       -0.000008754336     0.000004120737     0.000002410470
      13        0.000015362000    -0.000009922809     0.000007659609
      14        0.000008175286    -0.000012134646    -0.000004524480
      15       -0.000003373563    -0.000005569988    -0.000005526765
      16        0.000001668366     0.000011694158    -0.000004344814
      17        0.000001794829    -0.000001506722    -0.000000871287
      18       -0.000001614311     0.000000974980    -0.000007326939
      19        0.000006114191    -0.000000172463    -0.000002552542

  **** Optimization is complete! (in 8 steps) ****
    Final optimized geometry and variables:
    Molecular point group: c1

    Geometry (in Angstrom), charge = 0, multiplicity = 1:

    O           -1.898877987354    -1.211890537654    -0.681677551701
    C           -1.496385196254    -0.141491596392    -0.359891469852
    C           -0.212559085996     0.005405086580     0.433324676277
    C           -2.230799545950     1.124559863164    -0.732640611999
    C            0.995940860156     0.001353233049    -0.516822354524
    H           -0.238687172274     0.922051646849     1.010814841560
    H           -0.159918065765    -0.829588625588     1.117637469987
    C            2.391004781942     0.142265031758     0.147022551562
    H            0.865259618948     0.818208178002    -1.218670286140
    H            0.955474972223    -0.914151372306    -1.092449341668
    C            2.453132376414     0.068174378958     1.671797068446
    H            3.043871123836    -0.619996216763    -0.261815950889
    H            2.822777087340     1.090423151794    -0.154652944860
    H            2.089551804844    -0.880483143396     2.049156083921
    H            1.877480213801     0.856358972890     2.141386946788
    H            3.479983013171     0.176270757292     2.001133946401
    H           -3.030311617550     0.901110900526    -1.422127060564
    H           -1.552897807228     1.848347194423    -1.170679902577
    H           -2.642965176049     1.573669233603     0.165394883182

  Mulliken Charges: (a.u.)
   Center  Symbol    Alpha    Beta     Spin     Total
       1     O     4.17764  4.17764  0.00000 -0.35528
       2     C     2.85664  2.85664  0.00000  0.28672
       3     C     3.10111  3.10111  0.00000 -0.20223
       4     C     3.15618  3.15618  0.00000 -0.31236
       5     C     3.10826  3.10826  0.00000 -0.21652
       6     H     0.44842  0.44842  0.00000  0.10316
       7     H     0.43748  0.43748  0.00000  0.12503
       8     C     3.08810  3.08810  0.00000 -0.17619
       9     H     0.44892  0.44892  0.00000  0.10217
      10     H     0.43829  0.43829  0.00000  0.12342
      11     C     3.15672  3.15672  0.00000 -0.31345
      12     H     0.44781  0.44781  0.00000  0.10437
      13     H     0.45148  0.45148  0.00000  0.09704
      14     H     0.45088  0.45088  0.00000  0.09824
      15     H     0.45418  0.45418  0.00000  0.09165
      16     H     0.44269  0.44269  0.00000  0.11461
      17     H     0.43578  0.43578  0.00000  0.12843
      18     H     0.45095  0.45095  0.00000  0.09810
      19     H     0.44845  0.44845  0.00000  0.10310

   Total alpha = 28.00000, Total beta = 28.00000, Total charge = -0.00000
