  ==> Input File <==

--------------------------------------------------------------------------
set {
	reference rhf
	basis 6-31G*
}

set_num_threads( 4 )
memory 2 gb

molecule MOL {
0 1

H	 -3.892951	 0.981613	 -0.358725
C	 -3.196921	 0.361773	 0.172313
C	 -2.076860	 -0.007332	 -0.404944
H	 -3.439953	 0.057760	 1.173024
O	 -2.033152	 -1.018833	 -1.311485
H	 -1.136226	 0.477489	 -0.211677
C	 -0.792038	 -1.462489	 -1.741200
C	 -0.225356	 -2.518325	 -0.819042
H	 -0.069813	 -0.657259	 -1.816646
H	 -0.921231	 -1.909079	 -2.716060
F	 0.940515	 -2.935698	 -1.290583
F	 -0.019924	 -2.046538	 0.399583
F	 -1.019564	 -3.563843	 -0.716492

	symmetry c1
}
set optking {
	frozen_dihedral = ("
		6 3 2 1
	")
}

ee = optimize('scf')
oeprop('DIPOLE', 'QUADRUPOLE', 'MULLIKEN_CHARGES')
f=open( 'psi4out.xyz', 'w' )
f.write( "13  " )
f.write( str(ee) + "\n" )
f.write( MOL.save_string_xyz() )
f.close()
--------------------------------------------------------------------------

    Molecular point group: c1
  Charge       = 0
  Multiplicity = 1
  Basis Set: 6-31G*
  Basis Set:
  @DF-RHF Final Energy:  -527.40299667955537
    Total Energy =                       -527.4029966795552582
    Molecular point group: c1
  Basis Set: 6-31G*
  Basis Set:
  Basis Set: 6-31G*
  Basis Set:
  @DF-RHF Final Energy:  -527.43772085955118
    Total Energy =                       -527.4377208595508364
  Basis Set: 6-31G*
  Basis Set:
  Basis Set: 6-31G*
  Basis Set:
  @DF-RHF Final Energy:  -527.47273182009110
    Total Energy =                       -527.4727318200915533
  Basis Set: 6-31G*
  Basis Set:
  Basis Set: 6-31G*
  Basis Set:
  @DF-RHF Final Energy:  -527.48013225005502
    Total Energy =                       -527.4801322500547940
  Basis Set: 6-31G*
  Basis Set:
  @DF-RHF Final Energy:  -527.48098297137051
    Total Energy =                       -527.4809829713706222
  @DF-RHF Final Energy:  -527.48121818039249
    Total Energy =                       -527.4812181803922613
  @DF-RHF Final Energy:  -527.48129150552040
    Total Energy =                       -527.4812915055205167
  @DF-RHF Final Energy:  -527.48130479372230
    Total Energy =                       -527.4813047937223018
  @DF-RHF Final Energy:  -527.48131074220032
    Total Energy =                       -527.4813107422003213
  @DF-RHF Final Energy:  -527.48130939641169
    Total Energy =                       -527.4813093964120299
  @DF-RHF Final Energy:  -527.48131448126514
    Total Energy =                       -527.4813144812650307
  @DF-RHF Final Energy:  -527.48131300943862
    Total Energy =                       -527.4813130094379403
  @DF-RHF Final Energy:  -527.48131095384542
    Total Energy =                       -527.4813109538449680
  @DF-RHF Final Energy:  -527.38381438549823
    Total Energy =                       -527.3838143854982263
  @DF-RHF Final Energy:  -527.32545818787059
    Total Energy =                       -527.3254581878702538
  @DF-RHF Final Energy:  -527.41219846308661
    Total Energy =                       -527.4121984630866109
  @DF-RHF Final Energy:  -527.37189435063692
    Total Energy =                       -527.3718943506368078
  @DF-RHF Final Energy:  -527.42967840706808
    Total Energy =                       -527.4296784070681952
  @DF-RHF Final Energy:  -527.43279288132567
    Total Energy =                       -527.4327928813254402
  @DF-RHF Final Energy:  -527.45727957205145
    Total Energy =                       -527.4572795720512204
  @DF-RHF Final Energy:  -527.45626081070873
    Total Energy =                       -527.4562608107083861
  @DF-RHF Final Energy:  -527.48000217880860
    Total Energy =                       -527.4800021788084905
  @DF-RHF Final Energy:  -527.45657198644506
    Total Energy =                       -527.4565719864450557
  @DF-RHF Final Energy:  -527.40574293483280
    Total Energy =                       -527.4057429348331425
  @DF-RHF Final Energy:  -527.47271905134153
    Total Energy =                       -527.4727190513420965
  @DF-RHF Final Energy:  -527.44529220519598
    Total Energy =                       -527.4452922051959831
  @DF-RHF Final Energy:  -527.44647845218924
    Total Energy =                       -527.4464784521893534
  @DF-RHF Final Energy:  -527.46066512185587
    Total Energy =                       -527.4606651218559819
  @DF-RHF Final Energy:  -527.47875037356926
    Total Energy =                       -527.4787503735701648
  @DF-RHF Final Energy:  -527.48100480394601
    Total Energy =                       -527.4810048039460071
  @DF-RHF Final Energy:  -527.48117584613101
    Total Energy =                       -527.4811758461306681
  @DF-RHF Final Energy:  -527.48129742814240
    Total Energy =                       -527.4812974281426250
  @DF-RHF Final Energy:  -527.48130757792921
    Total Energy =                       -527.4813075779297833
  @DF-RHF Final Energy:  -527.44513295425668
    Total Energy =                       -527.4451329542571330
  @DF-RHF Final Energy:  -527.43692468350957
    Total Energy =                       -527.4369246835094600
  @DF-RHF Final Energy:  -527.46934409621690
    Total Energy =                       -527.4693440962171280
  Basis Set: 6-31G*
  Basis Set:
  @DF-RHF Final Energy:  -527.47897167125200
    Total Energy =                       -527.4789716712521113
  Basis Set: 6-31G*
  Basis Set:
  Basis Set: 6-31G*
  Basis Set:
  @DF-RHF Final Energy:  -527.48065019171213
    Total Energy =                       -527.4806501917123569
  Basis Set: 6-31G*
  Basis Set:
  Basis Set: 6-31G*
  Basis Set:
  @DF-RHF Final Energy:  -527.48116987419428
    Total Energy =                       -527.4811698741943928
  Basis Set: 6-31G*
  Basis Set:
  Charge       = 0
  Multiplicity = 1
  Basis Set: 6-31G*
  Basis Set:

    Orbital Energies (a.u.)
    -----------------------

    Doubly Occupied:

       1A    -26.343719     2A    -26.342486     3A    -26.339199
       4A    -20.605530     5A    -11.501989     6A    -11.318065
       7A    -11.313485     8A    -11.217906     9A     -1.740308
      10A     -1.638854    11A     -1.637006    12A     -1.435005
      13A     -1.085969    14A     -1.016652    15A     -0.923956
      16A     -0.836934    17A     -0.829922    18A     -0.820905
      19A     -0.793604    20A     -0.718620    21A     -0.710173
      22A     -0.692168    23A     -0.675021    24A     -0.660239
      25A     -0.654062    26A     -0.642008    27A     -0.635711
      28A     -0.587474    29A     -0.546555    30A     -0.528642
      31A     -0.502617    32A     -0.338474

  @DF-RHF Final Energy:  -527.48125475707093

   => Energetics <=

    Nuclear Repulsion Energy =            412.1764557730932097
    One-Electron Energy =               -1548.0489120461265884
    Two-Electron Energy =                 608.3912015159621660
    DFT Exchange-Correlation Energy =       0.0000000000000000
    Empirical Dispersion Energy =           0.0000000000000000
    PCM Polarization Energy =               0.0000000000000000
    EFP Energy =                            0.0000000000000000
    Total Energy =                       -527.4812547570711558
    Molecular point group: c1
  Basis Set: 6-31G*
  Basis Set:

  -Total Gradient:
     Atom            X                  Y                   Z
    ------   -----------------  -----------------  -----------------
       1        0.013230164578     0.042704020604     0.000495599608
       2       -0.024768961695    -0.059230627860    -0.019330682031
       3        0.022274911803     0.004820844977     0.058404814218
       4        0.000383325169     0.000180471303    -0.000267718213
       5       -0.001338190303    -0.000210177039     0.000354617168
       6       -0.010197806159     0.012176229580    -0.039358518273
       7        0.000252470957    -0.000953362502     0.000066209693
       8        0.000611040850    -0.000314620161     0.000601773278
       9       -0.000023105407    -0.000133725425     0.000111063155
      10        0.000376384626    -0.000086442726    -0.000144240234
      11        0.000084356751     0.000178987549    -0.000821555110
      12       -0.000405904459     0.000641902320     0.000315631974
      13       -0.000478686714     0.000226499376    -0.000426995233

    Molecular point group: c1

    Geometry (in Angstrom), charge = 0, multiplicity = 1:

    H           -3.174211254508     2.329131266979     0.291208877160
    C           -2.338221081274     2.108499844308     0.928524112513
    C           -1.135568339247     1.716252435410     0.535470312582
    H           -2.286996494452     2.862189763167     1.703146749110
    O           -1.069145126359     0.792365769247    -0.493872762982
    H           -0.268183182858     2.350724415887     0.448082583978
    C            0.186844320889     0.421907668391    -0.947962684678
    C            0.734485145848    -0.750154530164    -0.165668859731
    H            0.907644021041     1.230335212005    -0.884053394369
    H            0.093310694518     0.121428261713    -1.981593706589
    F            1.920186725840    -1.088899798635    -0.653669545929
    F            0.893394904597    -0.453872795629     1.113970872248
    F           -0.050410419690    -1.804629308510    -0.243355798116

  Mulliken Charges: (a.u.)
   Center  Symbol    Alpha    Beta     Spin     Total
       1     H     0.39406  0.39406  0.00000  0.21189
       2     C     3.22930  3.22930  0.00000 -0.45859
       3     C     2.90179  2.90179  0.00000  0.19641
       4     H     0.42288  0.42288  0.00000  0.15423
       5     O     4.29616  4.29616  0.00000 -0.59233
       6     H     0.40200  0.40200  0.00000  0.19601
       7     C     3.06377  3.06377  0.00000 -0.12755
       8     C     2.45380  2.45380  0.00000  1.09241
       9     H     0.40894  0.40894  0.00000  0.18211
      10     H     0.39040  0.39040  0.00000  0.21920
      11     F     4.68345  4.68345  0.00000 -0.36691
      12     F     4.67911  4.67911  0.00000 -0.35823
      13     F     4.67433  4.67433  0.00000 -0.34866

   Total alpha = 32.00000, Total beta = 32.00000, Total charge = -0.00000
