                              Psi4 1.0.54 Driver

  ==> Input File <==

--------------------------------------------------------------------------
set {
	reference rhf
	basis cc-pvtz
}

set_num_threads( 4 )
memory 2 gb

molecule MOL {
0 1

H	 1.128311	 0.207724	 1.465118
C	 1.134565	 0.093781	 0.372499
C	 0.062554	 0.862911	 -0.350953
O	 1.948932	 -0.587720	 -0.146651
C	 0.454186	 2.321667	 -0.606432
H	 -0.855812	 0.791797	 0.217414
H	 -0.092484	 0.361972	 -1.303894
C	 0.565498	 3.152547	 0.668675
H	 -0.285188	 2.764839	 -1.263318
H	 1.396063	 2.352056	 -1.147163
H	 -0.376235	 3.167276	 1.205778
H	 0.834527	 4.176450	 0.438703
H	 1.318630	 2.756838	 1.341164

	symmetry c1
}
set optking {
	frozen_dihedral = ("
		6 3 2 4
	")
}

ee,wfn = optimize('scf', return_wfn=True)
oeprop( wfn, 'DIPOLE', 'QUADRUPOLE', 'MULLIKEN_CHARGES')
f=open( 'psi4out.xyz', 'w' )
f.write( "13  " )
f.write( str(ee) + "\n" )
f.write( MOL.save_string_xyz() )
f.close()
--------------------------------------------------------------------------

    Molecular point group: c1
  Charge       = 0
  Multiplicity = 1
  Basis Set: CC-PVTZ
  Basis Set:
  @DF-RHF Final Energy:  -231.06853639499451
    Total Energy =                       -231.0685363949945668
    Molecular point group: c1
  Basis Set: CC-PVTZ
  Basis Set:
  Basis Set: CC-PVTZ
  Basis Set:
  @DF-RHF Final Energy:  -231.06894818427341
    Total Energy =                       -231.0689481842735233
  Basis Set: CC-PVTZ
  Basis Set:
  Basis Set: CC-PVTZ
  Basis Set:
  @DF-RHF Final Energy:  -231.06896767331799
    Total Energy =                       -231.0689676733177862
  Basis Set: CC-PVTZ
  Basis Set:
  Basis Set: CC-PVTZ
  Basis Set:
  @DF-RHF Final Energy:  -231.06888151569126
    Total Energy =                       -231.0688815156912881
  Basis Set: CC-PVTZ
  Basis Set:
  Basis Set: CC-PVTZ
  Basis Set:
  @DF-RHF Final Energy:  -231.06897709330585
    Total Energy =                       -231.0689770933057616
  Basis Set: CC-PVTZ
  Basis Set:
  Basis Set: CC-PVTZ
  Basis Set:
  @DF-RHF Final Energy:  -231.06897396043266
    Total Energy =                       -231.0689739604326576
  Basis Set: CC-PVTZ
  Basis Set:
  Basis Set: CC-PVTZ
  Basis Set:
  @DF-RHF Final Energy:  -231.06897824838302
    Total Energy =                       -231.0689782483831607
  Basis Set: CC-PVTZ
  Basis Set:
  Charge       = 0
  Multiplicity = 1
  Basis Set: CC-PVTZ
  Basis Set:

    Orbital Energies (a.u.)
    -----------------------

    Doubly Occupied:

       1A    -20.552328     2A    -11.320979     3A    -11.236739
       4A    -11.234072     5A    -11.222826     6A     -1.406794
       7A     -1.085972     8A     -0.974011     9A     -0.855154
      10A     -0.779220    11A     -0.684509    12A     -0.648127
      13A     -0.609862    14A     -0.603103    15A     -0.567806
      16A     -0.537362    17A     -0.507961    18A     -0.494526
      19A     -0.482659    20A     -0.411313

  @DF-RHF Final Energy:  -231.06897827623203

   => Energetics <=

    Nuclear Repulsion Energy =            173.8247910408929897
    One-Electron Energy =                -657.3568952108871599
    Two-Electron Energy =                 252.4631258937621396
    DFT Exchange-Correlation Energy =       0.0000000000000000
    Empirical Dispersion Energy =           0.0000000000000000
    PCM Polarization Energy =               0.0000000000000000
    EFP Energy =                            0.0000000000000000
    Total Energy =                       -231.0689782762320306
    Molecular point group: c1
  Basis Set: CC-PVTZ
  Basis Set:

  -Total Gradient:
     Atom            X                  Y                   Z
    ------   -----------------  -----------------  -----------------
       1        0.000001319773    -0.000001873437    -0.000005434915
       2       -0.000292658725    -0.000318069691     0.000079032795
       3       -0.000000422182    -0.000224857785    -0.000224898671
       4        0.000217192467     0.000265562942    -0.000026343865
       5       -0.000007160541    -0.000003191410     0.000002034822
       6        0.000081722782     0.000279832525     0.000163076220
       7        0.000001484021     0.000003434126     0.000008186030
       8        0.000003845819     0.000003133513     0.000003648014
       9       -0.000000941933    -0.000001270561    -0.000000389386
      10       -0.000002070951    -0.000001650474     0.000005164535
      11        0.000001844922     0.000002622629    -0.000001834889
      12        0.000000124116    -0.000004862325     0.000000902456
      13       -0.000004279564     0.000001189944    -0.000003143147

  **** Optimization is complete! (in 8 steps) ****
    Final optimized geometry and variables:
    Molecular point group: c1

    Geometry (in Angstrom), charge = 0, multiplicity = 1:

    H            0.277954831738    -0.945409352427     1.474001673951
    C            0.274170259577    -1.076979646774     0.386033647791
    C           -0.775731282286    -0.309487000829    -0.374454687619
    O            1.077904257173    -1.779379259464    -0.124197052696
    C           -0.379897884293     1.158161094443    -0.600637125172
    H           -1.708811365539    -0.350695574272     0.180563916437
    H           -0.917537847212    -0.801486617906    -1.327424505638
    C           -0.253752869403     1.986100836945     0.675943650618
    H           -1.129243813292     1.607116724109    -1.242483289873
    H            0.554218129606     1.187059567060    -1.151087244355
    H           -1.175452679492     1.967912314118     1.247998030974
    H           -0.033841297950     3.019557214807     0.437479196529
    H            0.542363406318     1.626218530874     1.317518983493

  Mulliken Charges: (a.u.)
   Center  Symbol    Alpha    Beta     Spin     Total
       1     H     0.46097  0.46097  0.00000  0.07807
       2     C     2.90705  2.90705  0.00000  0.18591
       3     C     3.08879  3.08879  0.00000 -0.17759
       4     O     4.16652  4.16652  0.00000 -0.33305
       5     C     3.09490  3.09490  0.00000 -0.18979
       6     H     0.45127  0.45127  0.00000  0.09745
       7     H     0.43816  0.43816  0.00000  0.12369
       8     C     3.15186  3.15186  0.00000 -0.30371
       9     H     0.44616  0.44616  0.00000  0.10768
      10     H     0.44465  0.44465  0.00000  0.11069
      11     H     0.45377  0.45377  0.00000  0.09246
      12     H     0.44365  0.44365  0.00000  0.11270
      13     H     0.45225  0.45225  0.00000  0.09549

   Total alpha = 20.00000, Total beta = 20.00000, Total charge = -0.00000

*** Psi4 exiting successfully. Buy a developer a beer!
