  ==> Input File <==

--------------------------------------------------------------------------
set {
	reference rhf
	basis 6-31G*
}

set_num_threads( 1 )
memory 2 gb

molecule MOL {
0 1

O	 -2.042549	 -1.228399	 -0.269030
C	 -1.653912	 -0.146171	 0.050137
C	 -0.332303	 0.024011	 0.778412
C	 -2.438579	 1.106236	 -0.272369
C	 0.845713	 -0.001731	 -0.208243
H	 -0.323783	 0.953829	 1.340327
H	 -0.235459	 -0.796807	 1.480410
C	 2.198910	 -0.126430	 0.493426
H	 0.838137	 0.902702	 -0.814070
H	 0.707253	 -0.834702	 -0.890978
C	 3.371568	 -0.161291	 -0.485789
H	 2.327097	 0.705699	 1.182306
H	 2.205975	 -1.029702	 1.098916
H	 3.411524	 0.745117	 -1.083185
H	 3.287781	 -1.002773	 -1.167207
H	 4.317108	 -0.253116	 0.039139
H	 -3.277823	 0.863061	 -0.908988
H	 -1.806773	 1.843019	 -0.759671
H	 -2.802853	 1.554979	 0.648059

	symmetry c1
}
set optking {
	frozen_dihedral = ("
		11 8 5 9,
		5 3 2 4
	")
}

ee = energy('scf')
oeprop('DIPOLE', 'QUADRUPOLE', 'MULLIKEN_CHARGES')
f=open( 'psi4out.xyz', 'w' )
f.write( "19  " )
f.write( str(ee) + "\n" )
f.write( MOL.save_string_xyz() )
f.close()
--------------------------------------------------------------------------

    Molecular point group: c1

    Geometry (in Angstrom), charge = 0, multiplicity = 1:

       Center              X                  Y                   Z               Mass
    ------------   -----------------  -----------------  -----------------  -----------------
           O         -2.041971747246    -1.152139014937    -0.270330102354    15.994914619560
           C         -1.653334747246    -0.069911014937     0.048836897646    12.000000000000
           C         -0.331725747246     0.100270985063     0.777111897646    12.000000000000
           C         -2.438001747246     1.182495985063    -0.273669102354    12.000000000000
           C          0.846290252754     0.074528985063    -0.209543102354    12.000000000000
           H         -0.323205747246     1.030088985063     1.339026897646     1.007825032070
           H         -0.234881747246    -0.720547014937     1.479109897646     1.007825032070
           C          2.199487252754    -0.050170014937     0.492125897646    12.000000000000
           H          0.838714252754     0.978961985063    -0.815370102354     1.007825032070
           H          0.707830252754    -0.758442014937    -0.892278102354     1.007825032070
           C          3.372145252754    -0.085031014937    -0.487089102354    12.000000000000
           H          2.327674252754     0.781958985063     1.181005897646     1.007825032070
           H          2.206552252754    -0.953442014937     1.097615897646     1.007825032070
           H          3.412101252754     0.821376985063    -1.084485102354     1.007825032070
           H          3.288358252754    -0.926513014937    -1.168507102354     1.007825032070
           H          4.317685252754    -0.176856014937     0.037838897646     1.007825032070
           H         -3.277245747246     0.939320985063    -0.910288102354     1.007825032070
           H         -1.806195747246     1.919278985063    -0.760971102354     1.007825032070
           H         -2.802275747246     1.631238985063     0.646758897646     1.007825032070

  Charge       = 0
  Multiplicity = 1
  Basis Set: 6-31G*
  Basis Set:

    Orbital Energies (a.u.)
    -----------------------

    Doubly Occupied:

       1A    -20.547558     2A    -11.324735     3A    -11.230239
       4A    -11.229286     5A    -11.228260     6A    -11.224462
       7A    -11.214532     8A     -1.393364     9A     -1.091094
      10A     -1.029209    11A     -0.983707    12A     -0.889671
      13A     -0.806616    14A     -0.733279    15A     -0.664106
      16A     -0.643979    17A     -0.623023    18A     -0.613033
      19A     -0.581933    20A     -0.573300    21A     -0.553295
      22A     -0.535561    23A     -0.515816    24A     -0.497368
      25A     -0.481662    26A     -0.474638    27A     -0.467667
      28A     -0.396998

  @DF-RHF Final Energy:  -309.06471552320448

   => Energetics <=

    Nuclear Repulsion Energy =            301.2838214252723787
    One-Electron Energy =               -1015.6004328129116629
    Two-Electron Energy =                 405.2518958644342320
    DFT Exchange-Correlation Energy =       0.0000000000000000
    Empirical Dispersion Energy =           0.0000000000000000
    PCM Polarization Energy =               0.0000000000000000
    EFP Energy =                            0.0000000000000000
    Total Energy =                       -309.0647155232051091

  Mulliken Charges: (a.u.)
   Center  Symbol    Alpha    Beta     Spin     Total
       1     O     4.26199  4.26199  0.00000 -0.52399
       2     C     2.73810  2.73810  0.00000  0.52379
       3     C     3.19978  3.19978  0.00000 -0.39957
       4     C     3.28950  3.28950  0.00000 -0.57901
       5     C     3.16174  3.16174  0.00000 -0.32348
       6     H     0.41649  0.41649  0.00000  0.16702
       7     H     0.40104  0.40104  0.00000  0.19792
       8     C     3.15180  3.15180  0.00000 -0.30360
       9     H     0.42088  0.42088  0.00000  0.15825
      10     H     0.40619  0.40619  0.00000  0.18762
      11     C     3.24051  3.24051  0.00000 -0.48102
      12     H     0.42231  0.42231  0.00000  0.15538
      13     H     0.41858  0.41858  0.00000  0.16285
      14     H     0.42138  0.42138  0.00000  0.15724
      15     H     0.41871  0.41871  0.00000  0.16258
      16     H     0.41741  0.41741  0.00000  0.16518
      17     H     0.39708  0.39708  0.00000  0.20584
      18     H     0.40975  0.40975  0.00000  0.18051
      19     H     0.40675  0.40675  0.00000  0.18650

   Total alpha = 28.00000, Total beta = 28.00000, Total charge = -0.00000
