  ==> Input File <==

--------------------------------------------------------------------------
set {
	reference rhf
	basis 6-31G*
}

set_num_threads( 1 )
memory 2 gb

molecule MOL {
0 1

H	 -1.836216	 1.387520	 -0.000064
C	 -1.301823	 0.443321	 -0.000031
O	 -0.003969	 0.658512	 0.000451
O	 -1.829879	 -0.616434	 -0.000857
C	 0.679524	 0.549468	 -1.247801
C	 2.142668	 0.838572	 -0.990995
H	 0.247014	 1.254106	 -1.944750
H	 0.529642	 -0.446241	 -1.642002
H	 2.272926	 1.836815	 -0.589027
H	 2.700454	 0.766240	 -1.918829
H	 2.557076	 0.128313	 -0.284819

	symmetry c1
}
set optking {
	frozen_dihedral = ("
		7 5 3 2
	")
}

ee = energy('scf')
oeprop('DIPOLE', 'QUADRUPOLE', 'MULLIKEN_CHARGES')
f=open( 'psi4out.xyz', 'w' )
f.write( "11  " )
f.write( str(ee) + "\n" )
f.write( MOL.save_string_xyz() )
f.close()
--------------------------------------------------------------------------

    Molecular point group: c1

    Geometry (in Angstrom), charge = 0, multiplicity = 1:

       Center              X                  Y                   Z               Mass
    ------------   -----------------  -----------------  -----------------  -----------------
           H         -1.774540124150     1.014534151215     0.449737151707     1.007825032070
           C         -1.240147124150     0.070335151215     0.449770151707    12.000000000000
           O          0.057706875850     0.285526151215     0.450252151707    15.994914619560
           O         -1.768203124150    -0.989419848785     0.448944151707    15.994914619560
           C          0.741199875850     0.176482151215    -0.797999848293    12.000000000000
           C          2.204343875850     0.465586151215    -0.541193848293    12.000000000000
           H          0.308689875850     0.881120151215    -1.494948848293     1.007825032070
           H          0.591317875850    -0.819226848785    -1.192200848293     1.007825032070
           H          2.334601875850     1.463829151215    -0.139225848293     1.007825032070
           H          2.762129875850     0.393254151215    -1.469027848293     1.007825032070
           H          2.618751875850    -0.244672848785     0.164982151707     1.007825032070

  Charge       = 0
  Multiplicity = 1
  Basis Set: 6-31G*
  Basis Set:

    Orbital Energies (a.u.)
    -----------------------

    Doubly Occupied:

       1A    -20.593356     2A    -20.567947     3A    -11.379145
       4A    -11.303478     5A    -11.230379     6A     -1.470361
       7A     -1.377435     8A     -1.053544     9A     -0.894303
      10A     -0.825920    11A     -0.742236    12A     -0.688910
      13A     -0.650451    14A     -0.637701    15A     -0.563793
      16A     -0.542167    17A     -0.536259    18A     -0.500803
      19A     -0.466692    20A     -0.451385

  @DF-RHF Final Energy:  -266.80893672585847

   => Energetics <=

    Nuclear Repulsion Energy =            177.6119146679684491
    One-Electron Energy =                -715.8891313221290602
    Two-Electron Energy =                 271.4682799283027066
    DFT Exchange-Correlation Energy =       0.0000000000000000
    Empirical Dispersion Energy =           0.0000000000000000
    PCM Polarization Energy =               0.0000000000000000
    EFP Energy =                            0.0000000000000000
    Total Energy =                       -266.8089367258579045

  Mulliken Charges: (a.u.)
   Center  Symbol    Alpha    Beta     Spin     Total
       1     H     0.42618  0.42618  0.00000  0.14765
       2     C     2.73013  2.73013  0.00000  0.53974
       3     O     4.29842  4.29842  0.00000 -0.59684
       4     O     4.23617  4.23617  0.00000 -0.47233
       5     C     3.00511  3.00511  0.00000 -0.01021
       6     C     3.24789  3.24789  0.00000 -0.49577
       7     H     0.41906  0.41906  0.00000  0.16188
       8     H     0.40659  0.40659  0.00000  0.18681
       9     H     0.40932  0.40932  0.00000  0.18136
      10     H     0.41574  0.41574  0.00000  0.16852
      11     H     0.40540  0.40540  0.00000  0.18920

   Total alpha = 20.00000, Total beta = 20.00000, Total charge =  0.00000
