  ==> Input File <==

--------------------------------------------------------------------------
set {
	reference rhf
	basis cc-pvtz
}

set_num_threads( 4 )
memory 2 gb

molecule MOL {
0 1

H	 -0.983774	 2.153214	 1.134748
C	 -0.828681	 1.210924	 0.653113
C	 -1.904799	 0.488996	 0.044884
C	 0.389137	 0.665788	 0.600396
H	 -2.896477	 0.900209	 0.070083
C	 -1.683445	 -0.686992	 -0.550627
H	 1.244502	 1.145838	 1.032881
N	 0.640204	 -0.530428	 -0.000115
H	 -2.463468	 -1.254067	 -1.015333
C	 -0.354333	 -1.278252	 -0.606321
C	 2.006991	 -1.033007	 -0.000020
O	 -0.115721	 -2.331488	 -1.131680
H	 2.182444	 -1.636914	 -0.880881
H	 2.678769	 -0.195442	 -0.002236
H	 2.183828	 -1.633244	 0.883082

	symmetry c1
}
set optking {
	frozen_dihedral = ("
		10 8 11 13
	")
}

ee = optimize('scf')
oeprop('DIPOLE', 'QUADRUPOLE', 'MULLIKEN_CHARGES')
f=open( 'psi4out.xyz', 'w' )
f.write( "15  " )
f.write( str(ee) + "\n" )
f.write( MOL.save_string_xyz() )
f.close()
--------------------------------------------------------------------------

    Molecular point group: c1
  Charge       = 0
  Multiplicity = 1
  Basis Set: CC-PVTZ
  Basis Set:
  @DF-RHF Final Energy:  -360.72266030143061
    Total Energy =                       -360.7226603014306079
    Molecular point group: c1
  Basis Set: CC-PVTZ
  Basis Set:
  Basis Set: CC-PVTZ
  Basis Set:
  @DF-RHF Final Energy:  -360.72295301793412
    Total Energy =                       -360.7229530179341168
  Basis Set: CC-PVTZ
  Basis Set:
  Basis Set: CC-PVTZ
  Basis Set:
  @DF-RHF Final Energy:  -360.72296424549387
    Total Energy =                       -360.7229642454940404
  Basis Set: CC-PVTZ
  Basis Set:
  Basis Set: CC-PVTZ
  Basis Set:
  @DF-RHF Final Energy:  -360.72298325930097
    Total Energy =                       -360.7229832593012588
  Basis Set: CC-PVTZ
  Basis Set:
  Charge       = 0
  Multiplicity = 1
  Basis Set: CC-PVTZ
  Basis Set:

    Orbital Energies (a.u.)
    -----------------------

    Doubly Occupied:

       1A    -20.501879     2A    -15.617185     3A    -11.338607
       4A    -11.293865     5A    -11.264753     6A    -11.258148
       7A    -11.230074     8A    -11.228066     9A     -1.390905
      10A     -1.285824    11A     -1.118805    12A     -1.029061
      13A     -0.972499    14A     -0.876150    15A     -0.838782
      16A     -0.719364    17A     -0.702561    18A     -0.663742
      19A     -0.652837    20A     -0.625748    21A     -0.611907
      22A     -0.575209    23A     -0.554954    24A     -0.550721
      25A     -0.530326    26A     -0.483774    27A     -0.420593
      28A     -0.410426    29A     -0.310509

  @DF-RHF Final Energy:  -360.72299269517907

   => Energetics <=

    Nuclear Repulsion Energy =            358.6468683804904458
    One-Electron Energy =               -1200.6251742180027122
    Two-Electron Energy =                 481.2553131423330797
    DFT Exchange-Correlation Energy =       0.0000000000000000
    Empirical Dispersion Energy =           0.0000000000000000
    PCM Polarization Energy =               0.0000000000000000
    EFP Energy =                            0.0000000000000000
    Total Energy =                       -360.7229926951791867
    Molecular point group: c1
  Basis Set: CC-PVTZ
  Basis Set:

  -Total Gradient:
     Atom            X                  Y                   Z
    ------   -----------------  -----------------  -----------------
       1       -0.000008872422    -0.000000038940     0.000004871125
       2        0.000087396249    -0.000039822781     0.000024244676
       3       -0.000055844339    -0.000049228409    -0.000055073226
       4       -0.000082909190     0.000142450454    -0.000002614064
       5        0.000001577016     0.000005335245     0.000008999169
       6       -0.000074740795     0.000062159829     0.000032367723
       7        0.000011042227    -0.000029804846     0.000001683222
       8       -0.000260508949    -0.000764387366     0.001000297562
       9        0.000006759325    -0.000004885347    -0.000001531369
      10        0.000265903620     0.000420169433    -0.000603963531
      11        0.000378757428     0.000990416540    -0.000841091922
      12       -0.000017953701    -0.000028468030    -0.000000867908
      13       -0.000230386425    -0.000729934443     0.000417871242
      14       -0.000022705708     0.000011917050     0.000007491990
      15        0.000002485664     0.000014121610     0.000007315310

  **** Optimization is complete! (in 5 steps) ****
    Final optimized geometry and variables:
    Molecular point group: c1

    Geometry (in Angstrom), charge = 0, multiplicity = 1:

    H           -0.823572934932     2.632460152086     1.278697856243
    C           -0.661671133927     1.692782613195     0.794213064309
    C           -1.731155721503     0.968967622026     0.177701328167
    C            0.561468045726     1.157773124746     0.740420184520
    H           -2.724519938800     1.376329924903     0.199612287691
    C           -1.502288651224    -0.203771580783    -0.422401252155
    H            1.411517987523     1.643545155721     1.175727018274
    N            0.820046909016    -0.031836415770     0.132061513886
    H           -2.277642400553    -0.773285282973    -0.892102029637
    C           -0.171695841374    -0.790435290031    -0.463599757077
    C            2.177983196439    -0.555853343144     0.127579200869
    O            0.080229433487    -1.851882577923    -0.965823515155
    H            2.316555526616    -1.165366531567    -0.747384134554
    H            2.877836702179     0.266621172303     0.118947687598
    H            2.357156119220    -1.169346772251     1.001836534553

  Mulliken Charges: (a.u.)
   Center  Symbol    Alpha    Beta     Spin     Total
       1     H     0.41389  0.41389  0.00000  0.17221
       2     C     3.10446  3.10446  0.00000 -0.20891
       3     C     3.06106  3.06106  0.00000 -0.12212
       4     C     3.03420  3.03420  0.00000 -0.06839
       5     H     0.41840  0.41840  0.00000  0.16319
       6     C     3.11786  3.11786  0.00000 -0.23572
       7     H     0.42132  0.42132  0.00000  0.15735
       8     N     3.51063  3.51063  0.00000 -0.02126
       9     H     0.40906  0.40906  0.00000  0.18189
      10     C     2.84521  2.84521  0.00000  0.30958
      11     C     3.09940  3.09940  0.00000 -0.19881
      12     O     4.23627  4.23627  0.00000 -0.47253
      13     H     0.42719  0.42719  0.00000  0.14562
      14     H     0.45470  0.45470  0.00000  0.09060
      15     H     0.44635  0.44635  0.00000  0.10730

   Total alpha = 29.00000, Total beta = 29.00000, Total charge =  0.00000
