  ==> Input File <==

--------------------------------------------------------------------------
set {
	reference rhf
	basis cc-pvtz
}

set_num_threads( 4 )
memory 2 gb

molecule MOL {
0 1

H	 0.948762	 -2.554384	 0.836539
C	 0.914497	 -1.718157	 1.547315
C	 -0.329970	 -0.876716	 1.483462
O	 1.818541	 -1.532737	 2.286205
C	 -0.554654	 -0.292621	 0.086567
H	 -0.255178	 -0.096607	 2.229566
H	 -1.169570	 -1.516944	 1.746252
C	 -1.846385	 0.513195	 -0.016346
H	 0.287886	 0.341121	 -0.175035
H	 -0.574082	 -1.096768	 -0.644626
C	 -3.089953	 -0.365049	 -0.098564
H	 -1.798267	 1.154820	 -0.891143
H	 -1.925398	 1.173265	 0.842889
H	 -3.055079	 -1.012299	 -0.968245
H	 -3.988403	 0.236438	 -0.170014
H	 -3.183055	 -0.995885	 0.779079

	symmetry c1
}
set optking {
	frozen_dihedral = ("
		9 5 8 12
	")
}

ee = optimize('scf')
oeprop('DIPOLE', 'QUADRUPOLE', 'MULLIKEN_CHARGES')
f=open( 'psi4out.xyz', 'w' )
f.write( "16  " )
f.write( str(ee) + "\n" )
f.write( MOL.save_string_xyz() )
f.close()
--------------------------------------------------------------------------

    Molecular point group: c1
  Charge       = 0
  Multiplicity = 1
  Basis Set: CC-PVTZ
  Basis Set:
  @DF-RHF Final Energy:  -270.11703688488228
    Total Energy =                       -270.1170368848822250
    Molecular point group: c1
  Basis Set: CC-PVTZ
  Basis Set:
  Basis Set: CC-PVTZ
  Basis Set:
  @DF-RHF Final Energy:  -270.11724822982575
    Total Energy =                       -270.1172482298255204
  Basis Set: CC-PVTZ
  Basis Set:
  Basis Set: CC-PVTZ
  Basis Set:
  @DF-RHF Final Energy:  -270.11707753489497
    Total Energy =                       -270.1170775348950315
  Basis Set: CC-PVTZ
  Basis Set:
  Basis Set: CC-PVTZ
  Basis Set:
  @DF-RHF Final Energy:  -270.11727666265580
    Total Energy =                       -270.1172766626558541
  Basis Set: CC-PVTZ
  Basis Set:
  Basis Set: CC-PVTZ
  Basis Set:
  @DF-RHF Final Energy:  -270.11727602799965
    Total Energy =                       -270.1172760279998784
  Basis Set: CC-PVTZ
  Basis Set:
  Charge       = 0
  Multiplicity = 1
  Basis Set: CC-PVTZ
  Basis Set:

    Orbital Energies (a.u.)
    -----------------------

    Doubly Occupied:

       1A    -20.551921     2A    -11.321220     3A    -11.234786
       4A    -11.233802     5A    -11.227715     6A    -11.218147
       7A     -1.406710     8A     -1.097542     9A     -1.017751
      10A     -0.913534    11A     -0.809728    12A     -0.793218
      13A     -0.679967    14A     -0.646973    15A     -0.636869
      16A     -0.603975    17A     -0.574917    18A     -0.568006
      19A     -0.523952    20A     -0.518934    21A     -0.489258
      22A     -0.483270    23A     -0.472106    24A     -0.411834

  @DF-RHF Final Energy:  -270.11727972770234

   => Energetics <=

    Nuclear Repulsion Energy =            231.6661858298410550
    One-Electron Energy =                -824.6946593960499285
    Two-Electron Energy =                 322.9111938385063922
    DFT Exchange-Correlation Energy =       0.0000000000000000
    Empirical Dispersion Energy =           0.0000000000000000
    PCM Polarization Energy =               0.0000000000000000
    EFP Energy =                            0.0000000000000000
    Total Energy =                       -270.1172797277024529
    Molecular point group: c1
  Basis Set: CC-PVTZ
  Basis Set:

  -Total Gradient:
     Atom            X                  Y                   Z
    ------   -----------------  -----------------  -----------------
       1        0.000008429320     0.000006882428    -0.000003472657
       2       -0.000031203309    -0.000015195654    -0.000015692005
       3       -0.000003889064     0.000009140766    -0.000033533784
       4        0.000015395846     0.000000397444     0.000018391889
       5        0.000350767068     0.000912838501     0.002342553928
       6       -0.000002555829     0.000008896356    -0.000006942434
       7        0.000000001500    -0.000007077683     0.000014351936
       8       -0.000922575084    -0.001712614005    -0.001609857245
       9       -0.000159957046    -0.000493538450    -0.001697352279
      10       -0.000003508703     0.000003388202    -0.000006444776
      11        0.000014530928    -0.000018389118     0.000013821260
      12        0.000706397406     0.001278912980     0.000988413110
      13        0.000008441086    -0.000001691900    -0.000003467350
      14        0.000015050608     0.000000911997    -0.000003509744
      15        0.000007807244     0.000021973647     0.000005520248
      16       -0.000003131975     0.000005164487    -0.000002780097

  **** Optimization is complete! (in 6 steps) ****
    Final optimized geometry and variables:
    Molecular point group: c1

    Geometry (in Angstrom), charge = 0, multiplicity = 1:

    H            1.490092700662    -1.830304610091    -0.056650274656
    C            1.450275150436    -0.997729768234     0.658083987273
    C            0.193191157568    -0.174271201624     0.609405961216
    O            2.358306647334    -0.802224944176     1.389505969716
    C           -0.040171313558     0.420916162449    -0.782406733995
    H            0.262720510220     0.602276280295     1.359792125121
    H           -0.630975289563    -0.830801417567     0.875808086961
    C           -1.340235011735     1.219777817766    -0.904755047885
    H            0.796848152168     1.062052059183    -1.038785831541
    H           -0.042378323793    -0.376565912214    -1.521782951756
    C           -2.600259300127     0.363952720866    -0.989777281280
    H           -1.275134839751     1.851594694639    -1.784111423546
    H           -1.419869043814     1.898986774024    -0.060566777838
    H           -2.563703551187    -0.298111932403    -1.848461438936
    H           -3.481432928009     0.986491849328    -1.090285397350
    H           -2.735573388967    -0.247895836708    -0.105355048722

  Mulliken Charges: (a.u.)
   Center  Symbol    Alpha    Beta     Spin     Total
       1     H     0.46517  0.46517  0.00000  0.06967
       2     C     2.90830  2.90830  0.00000  0.18340
       3     C     3.07775  3.07775  0.00000 -0.15551
       4     O     4.16386  4.16386  0.00000 -0.32772
       5     C     3.10914  3.10914  0.00000 -0.21827
       6     H     0.44244  0.44244  0.00000  0.11513
       7     H     0.45063  0.45063  0.00000  0.09874
       8     C     3.09056  3.09056  0.00000 -0.18113
       9     H     0.43962  0.43962  0.00000  0.12075
      10     H     0.45219  0.45219  0.00000  0.09562
      11     C     3.14976  3.14976  0.00000 -0.29953
      12     H     0.44503  0.44503  0.00000  0.10994
      13     H     0.45221  0.45221  0.00000  0.09558
      14     H     0.45393  0.45393  0.00000  0.09213
      15     H     0.44466  0.44466  0.00000  0.11069
      16     H     0.45475  0.45475  0.00000  0.09050

   Total alpha = 24.00000, Total beta = 24.00000, Total charge =  0.00000
