                              Psi4 1.0.54 Driver

  ==> Input File <==

--------------------------------------------------------------------------
set {
	reference rhf
	basis cc-pvtz
}

set_num_threads( 4 )
memory 2 gb

molecule MOL {
0 1

H	 -3.772737	 0.757533	 -1.645643
O	 -3.240141	 0.112732	 -1.218129
C	 -2.004146	 0.669753	 -0.856934
C	 -1.175688	 -0.398187	 -0.171891
H	 -1.480464	 1.037238	 -1.736982
H	 -2.148567	 1.513778	 -0.185670
C	 0.196029	 0.106276	 0.266738
H	 -1.064074	 -1.236054	 -0.852877
H	 -1.729930	 -0.765702	 0.685818
C	 1.330220	 -0.826136	 -0.155230
H	 0.359542	 1.097229	 -0.145561
H	 0.212134	 0.218135	 1.348778
C	 2.719700	 -0.407669	 0.328325
H	 1.339388	 -0.911200	 -1.239363
H	 1.119001	 -1.821953	 0.224128
C	 3.241564	 0.893452	 -0.276737
H	 3.418299	 -1.204729	 0.093035
H	 2.711776	 -0.323368	 1.411960
H	 3.254204	 0.841071	 -1.360784
H	 2.634460	 1.745075	 0.005842
H	 4.254264	 1.092401	 0.054971

	symmetry c1
}
set optking {
	frozen_dihedral = ("
		8 4 7 10
	")
}

ee,wfn = optimize('scf', return_wfn=True)
oeprop( wfn, 'DIPOLE', 'QUADRUPOLE', 'MULLIKEN_CHARGES')
f=open( 'psi4out.xyz', 'w' )
f.write( "21  " )
f.write( str(ee) + "\n" )
f.write( MOL.save_string_xyz() )
f.close()
--------------------------------------------------------------------------

    Molecular point group: c1
  Charge       = 0
  Multiplicity = 1
  Basis Set: CC-PVTZ
  Basis Set:
  @DF-RHF Final Energy:  -310.32841005493850
    Total Energy =                       -310.3284100549382174
    Molecular point group: c1
  Basis Set: CC-PVTZ
  Basis Set:
  Basis Set: CC-PVTZ
  Basis Set:
  @DF-RHF Final Energy:  -310.32861778633207
    Total Energy =                       -310.3286177863324156
  Basis Set: CC-PVTZ
  Basis Set:
  Basis Set: CC-PVTZ
  Basis Set:
  @DF-RHF Final Energy:  -310.32866183265702
    Total Energy =                       -310.3286618326572466
  Basis Set: CC-PVTZ
  Basis Set:
  Basis Set: CC-PVTZ
  Basis Set:
  @DF-RHF Final Energy:  -310.32865696428911
    Total Energy =                       -310.3286569642890527
  Basis Set: CC-PVTZ
  Basis Set:
  Charge       = 0
  Multiplicity = 1
  Basis Set: CC-PVTZ
  Basis Set:

    Orbital Energies (a.u.)
    -----------------------

    Doubly Occupied:

       1A    -20.545635     2A    -11.265637     3A    -11.213202
       4A    -11.213061     5A    -11.211784     6A    -11.208594
       7A    -11.206493     8A     -1.363761     9A     -1.086261
      10A     -1.033399    11A     -0.955576    12A     -0.876765
      13A     -0.809835    14A     -0.779298    15A     -0.697676
      16A     -0.653136    17A     -0.630573    18A     -0.608297
      19A     -0.584074    20A     -0.576035    21A     -0.532315
      22A     -0.525767    23A     -0.511977    24A     -0.488266
      25A     -0.478600    26A     -0.459717    27A     -0.455229
      28A     -0.445198    29A     -0.435221

  @DF-RHF Final Energy:  -310.32866408298116

   => Energetics <=

    Nuclear Repulsion Energy =            313.7561942990593025
    One-Electron Energy =               -1042.4669472535479144
    Two-Electron Energy =                 418.3820888715075057
    DFT Exchange-Correlation Energy =       0.0000000000000000
    Empirical Dispersion Energy =           0.0000000000000000
    PCM Polarization Energy =               0.0000000000000000
    EFP Energy =                            0.0000000000000000
    Total Energy =                       -310.3286640829811063
    Molecular point group: c1
  Basis Set: CC-PVTZ
  Basis Set:

  -Total Gradient:
     Atom            X                  Y                   Z
    ------   -----------------  -----------------  -----------------
       1       -0.000039883223    -0.000009645873    -0.000009396062
       2       -0.000063242656     0.000009207584    -0.000041993699
       3        0.000039659231    -0.000001397756     0.000039407158
       4        0.000169951134     0.002262926096    -0.002918258032
       5        0.000002421458    -0.000005493954     0.000012929514
       6        0.000013338600    -0.000013086867    -0.000011143186
       7       -0.000227477602    -0.001603191216     0.002570855173
       8       -0.000026984618    -0.001501131341     0.001889295451
       9       -0.000000076795     0.000015454357    -0.000001608652
      10        0.000151639613     0.000862755973    -0.001517132073
      11       -0.000019318087    -0.000005990980    -0.000013565281
      12       -0.000012180810    -0.000014593338    -0.000008821351
      13        0.000007012674    -0.000004542851     0.000003870249
      14       -0.000005592091     0.000002148155     0.000005288554
      15       -0.000008938786     0.000001017400    -0.000004003412
      16       -0.000001171950    -0.000001491746     0.000007176547
      17        0.000010730816     0.000003144011     0.000004696193
      18        0.000007009718     0.000001936120    -0.000006468556
      19        0.000001025089    -0.000002396477     0.000001734351
      20        0.000003196706    -0.000000134295    -0.000001022483
      21       -0.000001118423     0.000004506998    -0.000001840403

  **** Optimization is complete! (in 5 steps) ****
    Final optimized geometry and variables:
    Molecular point group: c1

    Geometry (in Angstrom), charge = 0, multiplicity = 1:

    H           -3.889571408970     0.725639416462    -1.283995888795
    O           -3.353470115112     0.078360872848    -0.864684012659
    C           -2.105024687963     0.624202300539    -0.534291897744
    C           -1.269084349069    -0.445376616267     0.137981337303
    H           -1.595431606554     0.981443438202    -1.427084844578
    H           -2.224174910225     1.473610111070     0.135538837999
    C            0.116768816304     0.062908851647     0.574623359296
    H           -1.170337695114    -1.289134930299    -0.535899597418
    H           -1.821713724831    -0.817345477268     0.993420901011
    C            1.255580960220    -0.870053282065     0.164094648003
    H            0.291054316047     1.043808439850     0.143095421227
    H            0.136479038684     0.204091655083     1.650509159916
    C            2.641492383135    -0.450440263632     0.655612876526
    H            1.268833123435    -0.956419345877    -0.919993910720
    H            1.042367574173    -1.865915847127     0.543068244419
    C            3.164800309984     0.853008138462     0.056662940317
    H            3.342747539358    -1.245742196774     0.422245537306
    H            2.627555119122    -0.368620854917     1.739324290487
    H            3.180128691388     0.804704804982    -1.027589240496
    H            2.557393637054     1.703713782287     0.341202684279
    H            4.176746783076     1.050500037104     0.391388235542

  Mulliken Charges: (a.u.)
   Center  Symbol    Alpha    Beta     Spin     Total
       1     H     0.39743  0.39743  0.00000  0.20513
       2     O     4.19465  4.19465  0.00000 -0.38931
       3     C     2.96287  2.96287  0.00000  0.07425
       4     C     3.08589  3.08589  0.00000 -0.17177
       5     H     0.47549  0.47549  0.00000  0.04902
       6     H     0.47375  0.47375  0.00000  0.05250
       7     C     3.10867  3.10867  0.00000 -0.21734
       8     H     0.45115  0.45115  0.00000  0.09769
       9     H     0.44821  0.44821  0.00000  0.10359
      10     C     3.09418  3.09418  0.00000 -0.18835
      11     H     0.45549  0.45549  0.00000  0.08902
      12     H     0.44942  0.44942  0.00000  0.10116
      13     C     3.09018  3.09018  0.00000 -0.18036
      14     H     0.45345  0.45345  0.00000  0.09309
      15     H     0.44770  0.44770  0.00000  0.10459
      16     C     3.15317  3.15317  0.00000 -0.30634
      17     H     0.44851  0.44851  0.00000  0.10299
      18     H     0.45474  0.45474  0.00000  0.09052
      19     H     0.45488  0.45488  0.00000  0.09024
      20     H     0.45407  0.45407  0.00000  0.09187
      21     H     0.44609  0.44609  0.00000  0.10781

   Total alpha = 29.00000, Total beta = 29.00000, Total charge = -0.00000

*** Psi4 exiting successfully. Buy a developer a beer!
