  ==> Input File <==

--------------------------------------------------------------------------
set {
	reference rhf
	basis cc-pvtz
}

set_num_threads( 4 )
memory 2 gb

molecule MOL {
0 1

H	 -2.644180	 -0.653737	 1.272255
C	 -2.092774	 -0.380414	 0.391915
O	 -0.808934	 -0.154049	 0.752536
F	 -2.163230	 -1.351640	 -0.507133
F	 -2.627232	 0.691260	 -0.169301
C	 0.085006	 0.250800	 -0.215074
C	 1.370439	 -0.548013	 -0.012993
Cl	 0.421658	 1.987697	 -0.091007
H	 -0.272219	 0.063284	 -1.212508
F	 1.846663	 -0.352975	 1.190417
F	 2.269383	 -0.135746	 -0.875112
F	 1.190601	 -1.828101	 -0.189872

	symmetry c1
}
set optking {
	frozen_dihedral = ("
		10 7 6 9
	")
}

ee = optimize('scf')
oeprop('DIPOLE', 'QUADRUPOLE', 'MULLIKEN_CHARGES')
f=open( 'psi4out.xyz', 'w' )
f.write( "12  " )
f.write( str(ee) + "\n" )
f.write( MOL.save_string_xyz() )
f.close()
--------------------------------------------------------------------------

    Molecular point group: c1
  Charge       = 0
  Multiplicity = 1
  Basis Set: CC-PVTZ
  Basis Set:
  @DF-RHF Final Energy: -1146.61954641635498
    Total Energy =                      -1146.6195464163556608
    Molecular point group: c1
  Basis Set: CC-PVTZ
  Basis Set:
  Basis Set: CC-PVTZ
  Basis Set:
  @DF-RHF Final Energy: -1146.62017605735582
    Total Energy =                      -1146.6201760573567299
  Basis Set: CC-PVTZ
  Basis Set:
  Basis Set: CC-PVTZ
  Basis Set:
  @DF-RHF Final Energy: -1146.62043190550094
    Total Energy =                      -1146.6204319055007090
  Basis Set: CC-PVTZ
  Basis Set:
  Basis Set: CC-PVTZ
  Basis Set:
  @DF-RHF Final Energy: -1146.62044262093127
    Total Energy =                      -1146.6204426209305893
  Basis Set: CC-PVTZ
  Basis Set:
  Charge       = 0
  Multiplicity = 1
  Basis Set: CC-PVTZ
  Basis Set:

    Orbital Energies (a.u.)
    -----------------------

    Doubly Occupied:

       1A   -104.856510     2A    -26.355032     3A    -26.353786
       4A    -26.353258     5A    -26.343381     6A    -26.343346
       7A    -20.641351     8A    -11.520165     9A    -11.484088
      10A    -11.401043    11A    -10.582042    12A     -8.048840
      13A     -8.046852    14A     -8.046776    15A     -1.767950
      16A     -1.724948    17A     -1.663053    18A     -1.661191
      19A     -1.644969    20A     -1.487555    21A     -1.178351
      22A     -1.053261    23A     -0.990962    24A     -0.924671
      25A     -0.864987    26A     -0.858725    27A     -0.852222
      28A     -0.829693    29A     -0.818306    30A     -0.793992
      31A     -0.733614    32A     -0.733137    33A     -0.712752
      34A     -0.708461    35A     -0.684892    36A     -0.681561
      37A     -0.665394    38A     -0.664105    39A     -0.649598
      40A     -0.638935    41A     -0.598971    42A     -0.582026
      43A     -0.525616    44A     -0.478246    45A     -0.469858

  @DF-RHF Final Energy: -1146.62044393780798

   => Energetics <=

    Nuclear Repulsion Energy =            738.3644376331900503
    One-Electron Energy =               -3059.9328134197721738
    Two-Electron Energy =                1174.9479318487751698
    DFT Exchange-Correlation Energy =       0.0000000000000000
    Empirical Dispersion Energy =           0.0000000000000000
    PCM Polarization Energy =               0.0000000000000000
    EFP Energy =                            0.0000000000000000
    Total Energy =                      -1146.6204439378070674
    Molecular point group: c1
  Basis Set: CC-PVTZ
  Basis Set:

  -Total Gradient:
     Atom            X                  Y                   Z
    ------   -----------------  -----------------  -----------------
       1        0.000003989091     0.000005300689     0.000005011551
       2        0.000029981704     0.000017780257     0.000000946454
       3       -0.000026954325     0.000021251800     0.000044659917
       4        0.000001574242    -0.000033975104    -0.000020416848
       5       -0.000023174970     0.000010614190     0.000005872160
       6        0.000251981230     0.000304911987    -0.000166210933
       7        0.000232411242     0.000223071603     0.000047964810
       8       -0.000023360012    -0.000105206216     0.000000947812
       9       -0.000147292115    -0.000196996146     0.000073782623
      10       -0.000165344575    -0.000155453251     0.000151576502
      11       -0.000203101914    -0.000085104297    -0.000028820460
      12        0.000069290431    -0.000006195515    -0.000115313592

  **** Optimization is complete! (in 5 steps) ****
    Final optimized geometry and variables:
    Molecular point group: c1

    Geometry (in Angstrom), charge = 0, multiplicity = 1:

    H           -2.642221795350    -0.679159398386     1.261427558015
    C           -2.090232333114    -0.398046963548     0.383856513181
    O           -0.809184125592    -0.164086851010     0.748894131826
    F           -2.151231642401    -1.365868401701    -0.519692867541
    F           -2.630883744873     0.672210721660    -0.174290320052
    C            0.084431439518     0.252184077902    -0.214778830473
    C            1.375386718854    -0.537092444057    -0.010032115171
    CL           0.404495740318     1.991058012839    -0.083692045103
    H           -0.268904183375     0.062909180374    -1.213311469683
    F            1.876257471223    -0.364761797008     1.182292709276
    F            2.271391413142    -0.189158711563    -0.898016206584
    F            1.123821037963    -1.814990919012    -0.169758977592

  Mulliken Charges: (a.u.)
   Center  Symbol    Alpha    Beta     Spin     Total
       1     H     0.45194  0.45194  0.00000  0.09612
       2     C     2.74014  2.74014  0.00000  0.51973
       3     O     4.15653  4.15653  0.00000 -0.31306
       4     F     4.61794  4.61794  0.00000 -0.23588
       5     F     4.61510  4.61510  0.00000 -0.23019
       6     C     2.93684  2.93684  0.00000  0.12632
       7     C     2.66950  2.66950  0.00000  0.66100
       8    CL     8.57397  8.57397  0.00000 -0.14794
       9     H     0.43048  0.43048  0.00000  0.13904
      10     F     4.60048  4.60048  0.00000 -0.20096
      11     F     4.60229  4.60229  0.00000 -0.20457
      12     F     4.60481  4.60481  0.00000 -0.20961

   Total alpha = 45.00000, Total beta = 45.00000, Total charge = -0.00000
