  ==> Input File <==

--------------------------------------------------------------------------
set {
	reference rhf
	basis 6-31G*
}

set_num_threads( 4 )
memory 2 gb

molecule MOL {
0 1

O	 0.391030	 1.298905	 0.000133
C	 0.503002	 0.111612	 0.000005
C	 -0.702327	 -0.811998	 -0.000075
C	 1.863306	 -0.554493	 0.000030
C	 -0.476948	 -2.109901	 -0.766106
H	 -0.967354	 -1.015203	 1.035898
H	 -1.545403	 -0.260727	 -0.412492
H	 0.345810	 -2.672726	 -0.342411
H	 -1.368020	 -2.728057	 -0.732481
H	 -0.237366	 -1.911562	 -1.803642
H	 1.974395	 -1.189404	 -0.874166
H	 2.638695	 0.198920	 -0.000196
H	 1.974487	 -1.188655	 0.874727

	symmetry c1
}
set optking {
	frozen_dihedral = ("
		6 3 2 1
	")
}

ee = optimize('scf')
oeprop('DIPOLE', 'QUADRUPOLE', 'MULLIKEN_CHARGES')
f=open( 'psi4out.xyz', 'w' )
f.write( "13  " )
f.write( str(ee) + "\n" )
f.write( MOL.save_string_xyz() )
f.close()
--------------------------------------------------------------------------

    Molecular point group: c1
  Charge       = 0
  Multiplicity = 1
  Basis Set: 6-31G*
  Basis Set:
  @DF-RHF Final Energy:  -230.99283811301893
    Total Energy =                       -230.9928381130190473
    Molecular point group: c1
  Basis Set: 6-31G*
  Basis Set:
  Basis Set: 6-31G*
  Basis Set:
  @DF-RHF Final Energy:  -230.99293206877417
    Total Energy =                       -230.9929320687739391
  Basis Set: 6-31G*
  Basis Set:
  Basis Set: 6-31G*
  Basis Set:
  @DF-RHF Final Energy:  -230.99395119570497
    Total Energy =                       -230.9939511957051650
  Basis Set: 6-31G*
  Basis Set:
  Basis Set: 6-31G*
  Basis Set:
  @DF-RHF Final Energy:  -230.99431672736915
    Total Energy =                       -230.9943167273690392
  Basis Set: 6-31G*
  Basis Set:
  Basis Set: 6-31G*
  Basis Set:
  @DF-RHF Final Energy:  -230.99437522668254
    Total Energy =                       -230.9943752266825356
  Basis Set: 6-31G*
  Basis Set:
  Basis Set: 6-31G*
  Basis Set:
  @DF-RHF Final Energy:  -230.99442290985183
    Total Energy =                       -230.9944229098517212
  Basis Set: 6-31G*
  Basis Set:
  Basis Set: 6-31G*
  Basis Set:
  @DF-RHF Final Energy:  -230.99442905187738
    Total Energy =                       -230.9944290518774892
  Basis Set: 6-31G*
  Basis Set:
  Charge       = 0
  Multiplicity = 1
  Basis Set: 6-31G*
  Basis Set:

    Orbital Energies (a.u.)
    -----------------------

    Doubly Occupied:

       1A    -20.548094     2A    -11.326252     3A    -11.234104
       4A    -11.229600     5A    -11.228634     6A     -1.394190
       7A     -1.067772     8A     -0.993716     9A     -0.890560
      10A     -0.732232    11A     -0.652780    12A     -0.645065
      13A     -0.621291    14A     -0.587320    15A     -0.557963
      16A     -0.544263    17A     -0.529189    18A     -0.509687
      19A     -0.478069    20A     -0.399850

  @DF-RHF Final Energy:  -230.99442968369354

   => Energetics <=

    Nuclear Repulsion Energy =            176.7503009138731898
    One-Electron Energy =                -663.1481979616690978
    Two-Electron Energy =                 255.4034673641025677
    DFT Exchange-Correlation Energy =       0.0000000000000000
    Empirical Dispersion Energy =           0.0000000000000000
    PCM Polarization Energy =               0.0000000000000000
    EFP Energy =                            0.0000000000000000
    Total Energy =                       -230.9944296836933688
    Molecular point group: c1
  Basis Set: 6-31G*
  Basis Set:

  -Total Gradient:
     Atom            X                  Y                   Z
    ------   -----------------  -----------------  -----------------
       1       -0.000005820270     0.000007112493     0.001278555840
       2       -0.000151433533     0.000198011404    -0.001718874760
       3        0.000890568704    -0.001159989543     0.000470391308
       4        0.000007274644     0.000004942141    -0.000070957066
       5        0.000007658404    -0.000011253430    -0.000010155837
       6       -0.000748004671     0.000977038092     0.000002991711
       7        0.000001748681     0.000000891041    -0.000004165075
       8        0.000001115578     0.000001731928     0.000002859167
       9       -0.000001800543     0.000004604113     0.000000043184
      10        0.000001931211    -0.000005277600     0.000003620278
      11       -0.000006942332    -0.000022725808     0.000025017926
      12       -0.000003687862    -0.000003170811    -0.000006833420
      13        0.000007391989     0.000008085979     0.000027506745

  **** Optimization is complete! (in 8 steps) ****
    Final optimized geometry and variables:
    Molecular point group: c1

    Geometry (in Angstrom), charge = 0, multiplicity = 1:

    O            0.051337566104     1.713933639620     0.141851686077
    C            0.198817473635     0.529856972504     0.138891619233
    C           -1.009043400532    -0.394831854975     0.153494288146
    C            1.582198596168    -0.084211698782     0.181399517803
    C           -0.857268628198    -1.721216660307    -0.593182115032
    H           -1.239933369096    -0.582764206172     1.201108715650
    H           -1.840270747125     0.176227569789    -0.242225909227
    H           -0.083095285009    -2.346965362374    -0.162803773472
    H           -1.786912468768    -2.277841673268    -0.552639867843
    H           -0.616712574308    -1.561866039984    -1.639819911270
    H            1.790554011938    -0.619383900078    -0.739884182543
    H            2.315006643652     0.699625853528     0.311513652268
    H            1.662203730247    -0.799197643265     0.995098010607

  Mulliken Charges: (a.u.)
   Center  Symbol    Alpha    Beta     Spin     Total
       1     O     4.26187  4.26187  0.00000 -0.52374
       2     C     2.73385  2.73385  0.00000  0.53230
       3     C     3.20503  3.20503  0.00000 -0.41006
       4     C     3.29227  3.29227  0.00000 -0.58454
       5     C     3.25052  3.25052  0.00000 -0.50104
       6     H     0.40527  0.40527  0.00000  0.18946
       7     H     0.39784  0.39784  0.00000  0.20432
       8     H     0.41678  0.41678  0.00000  0.16645
       9     H     0.41068  0.41068  0.00000  0.17864
      10     H     0.41492  0.41492  0.00000  0.17017
      11     H     0.40560  0.40560  0.00000  0.18881
      12     H     0.39551  0.39551  0.00000  0.20897
      13     H     0.40987  0.40987  0.00000  0.18025

   Total alpha = 20.00000, Total beta = 20.00000, Total charge =  0.00000
