  ==> Input File <==

--------------------------------------------------------------------------
set {
	reference rhf
	basis 6-31G*
}

set_num_threads( 1 )
memory 2 gb

molecule MOL {
0 1

H	 3.893188	 0.355400	 -0.101367
N	 3.092854	 -0.246221	 -0.068770
C	 1.865559	 0.531981	 0.018834
H	 3.199514	 -0.826043	 0.741946
C	 0.645745	 -0.382037	 -0.029944
H	 1.841966	 1.207024	 -0.831236
H	 1.815756	 1.155410	 0.915079
C	 -0.679275	 0.379305	 0.025956
H	 0.698998	 -0.976915	 -0.937203
H	 0.693479	 -1.083846	 0.802235
C	 -0.631914	 1.605072	 0.940082
H	 -1.466341	 -0.290990	 0.368128
H	 -0.962023	 0.693017	 -0.977780
C	 -1.959232	 2.360452	 0.996096
H	 -0.350898	 1.293911	 1.943787
H	 0.151996	 2.277998	 0.599038
H	 -2.757573	 1.723324	 1.366280
H	 -1.893998	 3.223065	 1.652028
H	 -2.250637	 2.715145	 0.011379

	symmetry c1
}
set optking {
	frozen_dihedral = ("
		6 3 5 9,
		12 8 11 15,
		1 2 3 6
	")
}

ee = energy('scf')
oeprop('DIPOLE', 'QUADRUPOLE', 'MULLIKEN_CHARGES')
f=open( 'psi4out.xyz', 'w' )
f.write( "19  " )
f.write( str(ee) + "\n" )
f.write( MOL.save_string_xyz() )
f.close()
--------------------------------------------------------------------------

    Molecular point group: c1

    Geometry (in Angstrom), charge = 0, multiplicity = 1:

       Center              X                  Y                   Z               Mass
    ------------   -----------------  -----------------  -----------------  -----------------
           H          3.470318802865    -0.356910357841    -0.423336143170     1.007825032070
           N          2.669984802865    -0.958531357841    -0.390739143170    14.003074004780
           C          1.442689802865    -0.180329357841    -0.303135143170    12.000000000000
           H          2.776644802865    -1.538353357841     0.419976856830     1.007825032070
           C          0.222875802865    -1.094347357841    -0.351913143170    12.000000000000
           H          1.419096802865     0.494713642159    -1.153205143170     1.007825032070
           H          1.392886802865     0.443099642159     0.593109856830     1.007825032070
           C         -1.102144197135    -0.333005357841    -0.296013143170    12.000000000000
           H          0.276128802865    -1.689225357841    -1.259172143170     1.007825032070
           H          0.270609802865    -1.796156357841     0.480265856830     1.007825032070
           C         -1.054783197135     0.892761642159     0.618112856830    12.000000000000
           H         -1.889210197135    -1.003300357841     0.046158856830     1.007825032070
           H         -1.384892197135    -0.019293357841    -1.299749143170     1.007825032070
           C         -2.382101197135     1.648141642159     0.674126856830    12.000000000000
           H         -0.773767197135     0.581600642159     1.621817856830     1.007825032070
           H         -0.270873197135     1.565687642159     0.277068856830     1.007825032070
           H         -3.180442197135     1.011013642159     1.044310856830     1.007825032070
           H         -2.316867197135     2.510754642159     1.330058856830     1.007825032070
           H         -2.673506197135     2.002834642159    -0.310590143170     1.007825032070

  Charge       = 0
  Multiplicity = 1
  Basis Set: 6-31G*
  Basis Set:

    Orbital Energies (a.u.)
    -----------------------

    Doubly Occupied:

       1A    -15.531398     2A    -11.238240     3A    -11.214484
       4A    -11.212464     5A    -11.209050     6A    -11.207970
       7A     -1.176073     8A     -1.075373     9A     -0.995617
      10A     -0.897821    11A     -0.837633    12A     -0.769054
      13A     -0.657304    14A     -0.639471    15A     -0.631258
      16A     -0.583329    17A     -0.573460    18A     -0.544508
      19A     -0.528141    20A     -0.506275    21A     -0.486336
      22A     -0.463271    23A     -0.452151    24A     -0.450809
      25A     -0.378130

  @DF-RHF Final Energy:  -251.34440081856110

   => Energetics <=

    Nuclear Repulsion Energy =            251.6169156499145174
    One-Electron Energy =                -837.4034214851411662
    Two-Electron Energy =                 334.4421050166653231
    DFT Exchange-Correlation Energy =       0.0000000000000000
    Empirical Dispersion Energy =           0.0000000000000000
    PCM Polarization Energy =               0.0000000000000000
    EFP Energy =                            0.0000000000000000
    Total Energy =                       -251.3444008185613257

  Mulliken Charges: (a.u.)
   Center  Symbol    Alpha    Beta     Spin     Total
       1     H     0.33282  0.33282  0.00000  0.33435
       2     N     3.92242  3.92242  0.00000 -0.84483
       3     C     3.06628  3.06628  0.00000 -0.13256
       4     H     0.33563  0.33563  0.00000  0.32874
       5     C     3.15238  3.15238  0.00000 -0.30476
       6     H     0.42137  0.42137  0.00000  0.15727
       7     H     0.42904  0.42904  0.00000  0.14192
       8     C     3.15428  3.15428  0.00000 -0.30855
       9     H     0.41082  0.41082  0.00000  0.17836
      10     H     0.42729  0.42729  0.00000  0.14542
      11     C     3.16036  3.16036  0.00000 -0.32072
      12     H     0.42099  0.42099  0.00000  0.15801
      13     H     0.42227  0.42227  0.00000  0.15546
      14     C     3.23758  3.23758  0.00000 -0.47516
      15     H     0.42342  0.42342  0.00000  0.15316
      16     H     0.41927  0.41927  0.00000  0.16146
      17     H     0.42207  0.42207  0.00000  0.15587
      18     H     0.42001  0.42001  0.00000  0.15998
      19     H     0.42172  0.42172  0.00000  0.15657

   Total alpha = 25.00000, Total beta = 25.00000, Total charge =  0.00000
