  ==> Input File <==

--------------------------------------------------------------------------
set {
	reference rhf
	basis 6-31G*
}

set_num_threads( 4 )
memory 2 gb

molecule MOL {
0 1

O	 2.114881	 -0.184456	 -0.577727
C	 1.122059	 0.121804	 -0.000188
C	 -0.170150	 -0.657997	 -0.000612
O	 1.020850	 1.219276	 0.738924
C	 -1.412532	 0.227344	 -0.000452
H	 -0.153702	 -1.313099	 -0.867402
H	 -0.153924	 -1.313811	 0.865644
C	 -2.706999	 -0.587347	 -0.000541
H	 -1.388000	 0.879466	 -0.868000
H	 -1.387972	 0.879138	 0.867341
C	 -3.956778	 0.291888	 0.000910
H	 -2.726114	 -1.239230	 -0.871609
H	 -2.725217	 -1.240844	 0.869333
H	 -3.985213	 0.933254	 -0.875158
H	 -4.860123	 -0.309979	 0.000519
H	 -3.984618	 0.931166	 0.878514
C	 2.168273	 2.044671	 0.824269
H	 2.995597	 1.501660	 1.258045
H	 1.890236	 2.871876	 1.458600
H	 2.452624	 2.402565	 -0.154794

	symmetry c1
}
set optking {
	frozen_dihedral = ("
		1 2 3 6
	")
}

ee = optimize('scf')
oeprop('DIPOLE', 'QUADRUPOLE', 'MULLIKEN_CHARGES')
f=open( 'psi4out.xyz', 'w' )
f.write( "20  " )
f.write( str(ee) + "\n" )
f.write( MOL.save_string_xyz() )
f.close()
--------------------------------------------------------------------------

    Molecular point group: c1
  Charge       = 0
  Multiplicity = 1
  Basis Set: 6-31G*
  Basis Set:
  @DF-RHF Final Energy:  -383.93905913591442
    Total Energy =                       -383.9390591359144764
    Molecular point group: c1
  Basis Set: 6-31G*
  Basis Set:
  Basis Set: 6-31G*
  Basis Set:
  @DF-RHF Final Energy:  -383.93787342987451
    Total Energy =                       -383.9378734298744575
  Basis Set: 6-31G*
  Basis Set:
  Basis Set: 6-31G*
  Basis Set:
  @DF-RHF Final Energy:  -383.93934399451177
    Total Energy =                       -383.9393439945120008
  Basis Set: 6-31G*
  Basis Set:
  Basis Set: 6-31G*
  Basis Set:
  @DF-RHF Final Energy:  -383.93974372931535
    Total Energy =                       -383.9397437293155235
  Basis Set: 6-31G*
  Basis Set:
  Basis Set: 6-31G*
  Basis Set:
  @DF-RHF Final Energy:  -383.93974979890828
    Total Energy =                       -383.9397497989081103
  Basis Set: 6-31G*
  Basis Set:
  Basis Set: 6-31G*
  Basis Set:
  @DF-RHF Final Energy:  -383.93975141563402
    Total Energy =                       -383.9397514156340776
  Basis Set: 6-31G*
  Basis Set:
  Charge       = 0
  Multiplicity = 1
  Basis Set: 6-31G*
  Basis Set:

    Orbital Energies (a.u.)
    -----------------------

    Doubly Occupied:

       1A    -20.605323     2A    -20.542649     3A    -11.371842
       4A    -11.281392     5A    -11.235374     6A    -11.225533
       7A    -11.223057     8A    -11.213743     9A     -1.469678
      10A     -1.361321    11A     -1.091898    12A     -1.024408
      13A     -0.966519    14A     -0.892010    15A     -0.806447
      16A     -0.774506    17A     -0.693306    18A     -0.682199
      19A     -0.672158    20A     -0.647675    21A     -0.595037
      22A     -0.591762    23A     -0.579661    24A     -0.546027
      25A     -0.531331    26A     -0.523359    27A     -0.506243
      28A     -0.489623    29A     -0.480456    30A     -0.473037
      31A     -0.454584    32A     -0.428219

  @DF-RHF Final Energy:  -383.93975139406939

   => Energetics <=

    Nuclear Repulsion Energy =            383.5872670092427370
    One-Electron Energy =               -1283.0932853617409819
    Two-Electron Energy =                 515.5662669584287414
    DFT Exchange-Correlation Energy =       0.0000000000000000
    Empirical Dispersion Energy =           0.0000000000000000
    PCM Polarization Energy =               0.0000000000000000
    EFP Energy =                            0.0000000000000000
    Total Energy =                       -383.9397513940695035
    Molecular point group: c1
  Basis Set: 6-31G*
  Basis Set:

  -Total Gradient:
     Atom            X                  Y                   Z
    ------   -----------------  -----------------  -----------------
       1        0.000306678673    -0.000514194707     0.000817884306
       2       -0.000532829854     0.000863441666    -0.001298711850
       3        0.000649299681    -0.001043508493     0.001024809400
       4       -0.000003344232     0.000011677355     0.000005190465
       5       -0.000001270626     0.000002013361    -0.000014665424
       6       -0.000413105616     0.000690039233    -0.000537497192
       7        0.000000737513    -0.000007229725     0.000009501945
       8       -0.000006723694     0.000000005953     0.000000563031
       9        0.000000981302     0.000000270514    -0.000009865752
      10       -0.000003333862     0.000000254180    -0.000008654528
      11        0.000004469156     0.000000617449     0.000011599767
      12       -0.000004308517     0.000009429711    -0.000006161342
      13        0.000006511628    -0.000006134313    -0.000003409196
      14        0.000002273265    -0.000003176752     0.000000560598
      15        0.000003263344    -0.000001427992     0.000002764549
      16       -0.000002543518     0.000003274687     0.000002202006
      17       -0.000002309136    -0.000006948015     0.000005786897
      18        0.000000100212     0.000001977843    -0.000000583126
      19       -0.000002898126     0.000000213375    -0.000000038775
      20       -0.000001647600    -0.000000595330    -0.000001275778

  **** Optimization is complete! (in 7 steps) ****
    Final optimized geometry and variables:
    Molecular point group: c1

    Geometry (in Angstrom), charge = 0, multiplicity = 1:

    O            2.290372006644    -0.529982781435    -0.712029554250
    C            1.315624876745    -0.179046388709    -0.127967642053
    C            0.015834133568    -0.948708775352    -0.106079078674
    O            1.275147859073     0.918137480075     0.615463820317
    C           -1.252733733358    -0.091312549232    -0.114941360865
    H            0.038759492976    -1.614670847964    -0.959573317693
    H            0.036467894214    -1.569794470432     0.786868114452
    C           -2.522371016050    -0.943931772518    -0.145775185442
    H           -1.238959118870     0.565853470314    -0.981557654720
    H           -1.263501311084     0.550712786209     0.758688339386
    C           -3.798036367349    -0.102771358346    -0.150742462136
    H           -2.508576503792    -1.584322370490    -1.024870852131
    H           -2.531461429339    -1.608119736976     0.715997061795
    H           -3.834818941808     0.548203880608    -1.019500788016
    H           -4.682235964469    -0.731909857563    -0.171256050820
    H           -3.857704227837     0.523971803436     0.734371632114
    C            2.462610468288     1.686418335974     0.690820172645
    H            3.264989036563     1.103058593096     1.118802752962
    H            2.230147445554     2.526835395868     1.326111991291
    H            2.756264503881     2.028135671962    -0.291064270431

  Mulliken Charges: (a.u.)
   Center  Symbol    Alpha    Beta     Spin     Total
       1     O     4.28787  4.28787  0.00000 -0.57575
       2     C     2.60820  2.60820  0.00000  0.78360
       3     C     3.20528  3.20528  0.00000 -0.41056
       4     O     4.30283  4.30283  0.00000 -0.60566
       5     C     3.15670  3.15670  0.00000 -0.31340
       6     H     0.39796  0.39796  0.00000  0.20407
       7     H     0.40178  0.40178  0.00000  0.19645
       8     C     3.15411  3.15411  0.00000 -0.30823
       9     H     0.41794  0.41794  0.00000  0.16412
      10     H     0.40847  0.40847  0.00000  0.18307
      11     C     3.23965  3.23965  0.00000 -0.47931
      12     H     0.42074  0.42074  0.00000  0.15852
      13     H     0.42176  0.42176  0.00000  0.15648
      14     H     0.42039  0.42039  0.00000  0.15922
      15     H     0.41769  0.41769  0.00000  0.16461
      16     H     0.42041  0.42041  0.00000  0.15918
      17     C     3.09241  3.09241  0.00000 -0.18481
      18     H     0.40866  0.40866  0.00000  0.18267
      19     H     0.40876  0.40876  0.00000  0.18248
      20     H     0.40837  0.40837  0.00000  0.18325

   Total alpha = 32.00000, Total beta = 32.00000, Total charge =  0.00000
