  ==> Input File <==

--------------------------------------------------------------------------
set {
	reference rhf
	basis 6-31G*
}

set_num_threads( 1 )
memory 2 gb

molecule MOL {
0 1

O	 3.225979	 0.970355	 -0.599647
C	 2.701189	 0.057885	 -0.047330
C	 1.245376	 -0.013843	 0.345420
O	 3.347903	 -1.046386	 0.304773
C	 0.903874	 0.866067	 1.545940
H	 0.665504	 0.252352	 -0.532123
H	 1.016286	 -1.057131	 0.547324
C	 -0.545791	 0.724566	 2.022327
H	 1.110859	 1.903429	 1.300674
H	 1.572175	 0.612429	 2.361700
C	 -1.601931	 1.226899	 1.033721
H	 -0.650035	 1.277760	 2.952828
H	 -0.746924	 -0.317380	 2.267081
C	 -3.022495	 1.165965	 1.598771
H	 -1.370178	 2.253387	 0.753664
H	 -1.563750	 0.643905	 0.116315
C	 -4.086813	 1.660617	 0.617610
H	 -3.072620	 1.758405	 2.510767
H	 -3.250974	 0.141619	 1.888964
C	 -5.502197	 1.600090	 1.190957
H	 -3.859465	 2.683754	 0.325812
H	 -4.041172	 1.066804	 -0.292930
H	 -6.233686	 1.956887	 0.472468
H	 -5.589924	 2.212480	 2.083973
H	 -5.772698	 0.583143	 1.460998
C	 4.728119	 -1.109107	 -0.004993
H	 4.882018	 -1.033965	 -1.071845
H	 5.068212	 -2.067527	 0.355250
H	 5.265056	 -0.311663	 0.488280

	symmetry c1
}
set optking {
	frozen_dihedral = ("
		21 17 14 11,
		17 14 11 15,
		15 11 8 5,
		6 3 5 9,
		11 8 5 9,
		2 4 26 27,
		1 2 4 26
	")
}

ee = energy('scf')
oeprop('DIPOLE', 'QUADRUPOLE', 'MULLIKEN_CHARGES')
f=open( 'psi4out.xyz', 'w' )
f.write( "29  " )
f.write( str(ee) + "\n" )
f.write( MOL.save_string_xyz() )
f.close()
--------------------------------------------------------------------------

    Molecular point group: c1

    Geometry (in Angstrom), charge = 0, multiplicity = 1:

       Center              X                  Y                   Z               Mass
    ------------   -----------------  -----------------  -----------------  -----------------
           O          3.059789451834     0.429090528853    -1.314514967080    15.994914619560
           C          2.534999451834    -0.483379471147    -0.762197967080    12.000000000000
           C          1.079186451834    -0.555107471147    -0.369447967080    12.000000000000
           O          3.181713451834    -1.587650471147    -0.410094967080    15.994914619560
           C          0.737684451834     0.324802528853     0.831072032920    12.000000000000
           H          0.499314451834    -0.288912471147    -1.246990967080     1.007825032070
           H          0.850096451834    -1.598395471147    -0.167543967080     1.007825032070
           C         -0.711980548166     0.183301528853     1.307459032920    12.000000000000
           H          0.944669451834     1.362164528853     0.585806032920     1.007825032070
           H          1.405985451834     0.071164528853     1.646832032920     1.007825032070
           C         -1.768120548166     0.685634528853     0.318853032920    12.000000000000
           H         -0.816224548166     0.736495528853     2.237960032920     1.007825032070
           H         -0.913113548166    -0.858644471147     1.552213032920     1.007825032070
           C         -3.188684548166     0.624700528853     0.883903032920    12.000000000000
           H         -1.536367548166     1.712122528853     0.038796032920     1.007825032070
           H         -1.729939548166     0.102640528853    -0.598552967080     1.007825032070
           C         -4.253002548166     1.119352528853    -0.097257967080    12.000000000000
           H         -3.238809548166     1.217140528853     1.795899032920     1.007825032070
           H         -3.417163548166    -0.399645471147     1.174096032920     1.007825032070
           C         -5.668386548166     1.058825528853     0.476089032920    12.000000000000
           H         -4.025654548166     2.142489528853    -0.389055967080     1.007825032070
           H         -4.207361548166     0.525539528853    -1.007797967080     1.007825032070
           H         -6.399875548166     1.415622528853    -0.242399967080     1.007825032070
           H         -5.756113548166     1.671215528853     1.369105032920     1.007825032070
           H         -5.938887548166     0.041878528853     0.746130032920     1.007825032070
           C          4.561929451834    -1.650371471147    -0.719860967080    12.000000000000
           H          4.715828451834    -1.575229471147    -1.786712967080     1.007825032070
           H          4.902022451834    -2.608791471147    -0.359617967080     1.007825032070
           H          5.098866451834    -0.852927471147    -0.226587967080     1.007825032070

  Charge       = 0
  Multiplicity = 1
  Basis Set: 6-31G*
  Basis Set:

    Orbital Energies (a.u.)
    -----------------------

    Doubly Occupied:

       1A    -20.604297     2A    -20.542705     3A    -11.370737
       4A    -11.279907     5A    -11.232387     6A    -11.228656
       7A    -11.221651     8A    -11.217461     9A    -11.216407
      10A    -11.215558    11A    -11.209432    12A     -1.468425
      13A     -1.361001    14A     -1.100972    15A     -1.068457
      16A     -1.019832    17A     -0.976517    18A     -0.929967
      19A     -0.864384    20A     -0.800523    21A     -0.791436
      22A     -0.770072    23A     -0.697682    24A     -0.678719
      25A     -0.672486    26A     -0.652243    27A     -0.625931
      28A     -0.604322    29A     -0.594754    30A     -0.579934
      31A     -0.571881    32A     -0.545615    33A     -0.541361
      34A     -0.530621    35A     -0.519918    36A     -0.511973
      37A     -0.496541    38A     -0.481368    39A     -0.471727
      40A     -0.463936    41A     -0.462684    42A     -0.453092
      43A     -0.445682    44A     -0.428446

  @DF-RHF Final Energy:  -501.04173208785164

   => Energetics <=

    Nuclear Repulsion Energy =            610.2972828079027749
    One-Electron Energy =               -1891.6344711965805345
    Two-Electron Energy =                 780.2954563008267996
    DFT Exchange-Correlation Energy =       0.0000000000000000
    Empirical Dispersion Energy =           0.0000000000000000
    PCM Polarization Energy =               0.0000000000000000
    EFP Energy =                            0.0000000000000000
    Total Energy =                       -501.0417320878509599

  Mulliken Charges: (a.u.)
   Center  Symbol    Alpha    Beta     Spin     Total
       1     O     4.28556  4.28556  0.00000 -0.57112
       2     C     2.61356  2.61356  0.00000  0.77288
       3     C     3.20166  3.20166  0.00000 -0.40332
       4     O     4.30255  4.30255  0.00000 -0.60511
       5     C     3.16309  3.16309  0.00000 -0.32617
       6     H     0.39999  0.39999  0.00000  0.20001
       7     H     0.40261  0.40261  0.00000  0.19479
       8     C     3.15551  3.15551  0.00000 -0.31101
       9     H     0.40765  0.40765  0.00000  0.18470
      10     H     0.41317  0.41317  0.00000  0.17365
      11     C     3.15507  3.15507  0.00000 -0.31014
      12     H     0.41813  0.41813  0.00000  0.16373
      13     H     0.42158  0.42158  0.00000  0.15684
      14     C     3.15069  3.15069  0.00000 -0.30137
      15     H     0.42103  0.42103  0.00000  0.15793
      16     H     0.42237  0.42237  0.00000  0.15527
      17     C     3.15160  3.15160  0.00000 -0.30321
      18     H     0.42348  0.42348  0.00000  0.15305
      19     H     0.42388  0.42388  0.00000  0.15225
      20     C     3.23943  3.23943  0.00000 -0.47886
      21     H     0.42228  0.42228  0.00000  0.15545
      22     H     0.42301  0.42301  0.00000  0.15398
      23     H     0.41892  0.41892  0.00000  0.16216
      24     H     0.42161  0.42161  0.00000  0.15677
      25     H     0.42184  0.42184  0.00000  0.15632
      26     C     3.09309  3.09309  0.00000 -0.18619
      27     H     0.40879  0.40879  0.00000  0.18241
      28     H     0.40876  0.40876  0.00000  0.18248
      29     H     0.40908  0.40908  0.00000  0.18183

   Total alpha = 44.00000, Total beta = 44.00000, Total charge =  0.00000
