  ==> Input File <==

--------------------------------------------------------------------------
set {
	reference rhf
	basis 6-31G*
}

set_num_threads( 1 )
memory 2 gb

molecule MOL {
0 1

O	 -2.821601	 1.309235	 -0.001213
C	 -2.668563	 0.129746	 -0.000350
C	 -3.801572	 -0.864014	 -0.000442
O	 -1.481751	 -0.454642	 0.000584
H	 -4.417280	 -0.689587	 -0.874708
H	 -3.443784	 -1.883046	 -0.000565
H	 -4.417179	 -0.689832	 0.873954
C	 -0.334255	 0.388708	 0.000906
C	 0.891947	 -0.504646	 0.000751
H	 -0.365390	 1.025305	 -0.873475
H	 -0.365484	 1.024911	 0.875569
C	 2.191998	 0.301789	 0.000897
H	 0.855148	 -1.151283	 -0.871571
H	 0.855132	 -1.151660	 0.872805
C	 3.441114	 -0.581407	 0.000108
H	 2.215074	 0.954890	 -0.869742
H	 2.215465	 0.953923	 0.872248
C	 4.599914	 0.025880	 0.789570
H	 3.755873	 -0.757551	 -1.026038
H	 3.192466	 -1.555674	 0.414896
H	 4.894313	 0.986862	 0.377434
H	 5.470181	 -0.622584	 0.770445
H	 4.326803	 0.182423	 1.829241

	symmetry c1
}
set optking {
	frozen_dihedral = ("
		13 9 8 10,
		2 4 8 10,
		16 12 9 13,
		1 2 4 8
	")
}

ee = energy('scf')
oeprop('DIPOLE', 'QUADRUPOLE', 'MULLIKEN_CHARGES')
f=open( 'psi4out.xyz', 'w' )
f.write( "23  " )
f.write( str(ee) + "\n" )
f.write( MOL.save_string_xyz() )
f.close()
--------------------------------------------------------------------------

    Molecular point group: c1

    Geometry (in Angstrom), charge = 0, multiplicity = 1:

       Center              X                  Y                   Z               Mass
    ------------   -----------------  -----------------  -----------------  -----------------
           O         -2.805476191186     1.332121212154    -0.092499072316    15.994914619560
           C         -2.652438191186     0.152632212154    -0.091636072316    12.000000000000
           C         -3.785447191186    -0.841127787846    -0.091728072316    12.000000000000
           O         -1.465626191186    -0.431755787846    -0.090702072316    15.994914619560
           H         -4.401155191186    -0.666700787846    -0.965994072316     1.007825032070
           H         -3.427659191186    -1.860159787846    -0.091851072316     1.007825032070
           H         -4.401054191186    -0.666945787846     0.782667927684     1.007825032070
           C         -0.318130191186     0.411594212154    -0.090380072316    12.000000000000
           C          0.908071808814    -0.481759787846    -0.090535072316    12.000000000000
           H         -0.349265191186     1.048191212154    -0.964761072316     1.007825032070
           H         -0.349359191186     1.047797212154     0.784282927684     1.007825032070
           C          2.208122808814     0.324675212154    -0.090389072316    12.000000000000
           H          0.871272808814    -1.128396787846    -0.962857072316     1.007825032070
           H          0.871256808814    -1.128773787846     0.781518927684     1.007825032070
           C          3.457238808814    -0.558520787846    -0.091178072316    12.000000000000
           H          2.231198808814     0.977776212154    -0.961028072316     1.007825032070
           H          2.231589808814     0.976809212154     0.780961927684     1.007825032070
           C          4.616038808814     0.048766212154     0.698283927684    12.000000000000
           H          3.771997808814    -0.734664787846    -1.117324072316     1.007825032070
           H          3.208590808814    -1.532787787846     0.323609927684     1.007825032070
           H          4.910437808814     1.009748212154     0.286147927684     1.007825032070
           H          5.486305808814    -0.599697787846     0.679158927684     1.007825032070
           H          4.342927808814     0.205309212154     1.737954927684     1.007825032070

  Charge       = 0
  Multiplicity = 1
  Basis Set: 6-31G*
  Basis Set:

    Orbital Energies (a.u.)
    -----------------------

    Doubly Occupied:

       1A    -20.602927     2A    -20.540503     3A    -11.374029
       4A    -11.281195     5A    -11.232366     6A    -11.224509
       7A    -11.222945     8A    -11.220672     9A    -11.213131
      10A     -1.467907    11A     -1.360688    12A     -1.094281
      13A     -1.042108    14A     -1.003249    15A     -0.930743
      16A     -0.842585    17A     -0.802369    18A     -0.774199
      19A     -0.691816    20A     -0.685149    21A     -0.668396
      22A     -0.643360    23A     -0.607731    24A     -0.590483
      25A     -0.582335    26A     -0.569524    27A     -0.554566
      28A     -0.535923    29A     -0.524750    30A     -0.504359
      31A     -0.495777    32A     -0.475721    33A     -0.467190
      34A     -0.464853    35A     -0.451239    36A     -0.435210

  @DF-RHF Final Energy:  -422.97596761943686

   => Energetics <=

    Nuclear Repulsion Energy =            450.1634098033280793
    One-Electron Energy =               -1467.9211552763727013
    Two-Electron Energy =                 594.7817778536079913
    DFT Exchange-Correlation Energy =       0.0000000000000000
    Empirical Dispersion Energy =           0.0000000000000000
    PCM Polarization Energy =               0.0000000000000000
    EFP Energy =                            0.0000000000000000
    Total Energy =                       -422.9759676194366875

  Mulliken Charges: (a.u.)
   Center  Symbol    Alpha    Beta     Spin     Total
       1     O     4.28391  4.28391  0.00000 -0.56781
       2     C     2.61533  2.61533  0.00000  0.76935
       3     C     3.28774  3.28774  0.00000 -0.57548
       4     O     4.31270  4.31270  0.00000 -0.62539
       5     H     0.39750  0.39750  0.00000  0.20499
       6     H     0.39988  0.39988  0.00000  0.20024
       7     H     0.39752  0.39752  0.00000  0.20496
       8     C     2.99601  2.99601  0.00000  0.00797
       9     C     3.16653  3.16653  0.00000 -0.33306
      10     H     0.41069  0.41069  0.00000  0.17861
      11     H     0.41063  0.41063  0.00000  0.17875
      12     C     3.16192  3.16192  0.00000 -0.32384
      13     H     0.41394  0.41394  0.00000  0.17212
      14     H     0.41398  0.41398  0.00000  0.17205
      15     C     3.15284  3.15284  0.00000 -0.30568
      16     H     0.41880  0.41880  0.00000  0.16240
      17     H     0.41956  0.41956  0.00000  0.16089
      18     C     3.24071  3.24071  0.00000 -0.48142
      19     H     0.41942  0.41942  0.00000  0.16116
      20     H     0.42014  0.42014  0.00000  0.15972
      21     H     0.42056  0.42056  0.00000  0.15888
      22     H     0.41879  0.41879  0.00000  0.16241
      23     H     0.42090  0.42090  0.00000  0.15819

   Total alpha = 36.00000, Total beta = 36.00000, Total charge =  0.00000
