  ==> Input File <==

--------------------------------------------------------------------------
set {
	reference rhf
	basis 6-31G*
}

set_num_threads( 4 )
memory 2 gb

molecule MOL {
0 1

H	 -3.489899	 1.228218	 -1.029938
O	 -3.452007	 0.283848	 -0.965577
C	 -3.181085	 -0.079926	 0.364119
C	 -1.765924	 0.277073	 0.805136
H	 -3.327791	 -1.152017	 0.410903
H	 -3.905698	 0.375695	 1.036898
C	 -0.677594	 -0.417312	 -0.014550
H	 -1.637766	 1.358238	 0.744969
H	 -1.659588	 0.017670	 1.857098
C	 0.738335	 -0.034840	 0.421385
H	 -0.814977	 -0.178223	 -1.064632
H	 -0.802730	 -1.495410	 0.071702
C	 1.822265	 -0.738362	 -0.399735
H	 0.853533	 1.043532	 0.342250
H	 0.871597	 -0.279636	 1.474438
C	 3.258060	 -0.455774	 0.057203
H	 1.718003	 -0.459167	 -1.447053
H	 1.651028	 -1.811884	 -0.354513
C	 3.709143	 0.994797	 -0.123830
H	 3.930637	 -1.101717	 -0.501982
H	 3.365259	 -0.739518	 1.102287
H	 3.601178	 1.310569	 -1.158127
H	 4.753787	 1.110486	 0.148516
H	 3.135362	 1.678896	 0.492569

	symmetry c1
}
set optking {
	frozen_dihedral = ("
		1 2 3 5
	")
}

ee = optimize('scf')
oeprop('DIPOLE', 'QUADRUPOLE', 'MULLIKEN_CHARGES')
f=open( 'psi4out.xyz', 'w' )
f.write( "24  " )
f.write( str(ee) + "\n" )
f.write( MOL.save_string_xyz() )
f.close()
--------------------------------------------------------------------------

    Molecular point group: c1
  Charge       = 0
  Multiplicity = 1
  Basis Set: 6-31G*
  Basis Set:
  @DF-RHF Final Energy:  -349.24759774231433
    Total Energy =                       -349.2475977423142695
    Molecular point group: c1
  Basis Set: 6-31G*
  Basis Set:
  Charge       = 0
  Multiplicity = 1
  Basis Set: 6-31G*
  Basis Set:

    Orbital Energies (a.u.)
    -----------------------

    Doubly Occupied:

       1A    -20.553605     2A    -11.267796     3A    -11.216740
       4A    -11.213767     5A    -11.211963     6A    -11.211174
       7A    -11.210406     8A    -11.207115     9A     -1.360134
      10A     -1.088099    11A     -1.047966    12A     -0.985381
      13A     -0.914696    14A     -0.849923    15A     -0.800034
      16A     -0.775890    17A     -0.680997    18A     -0.653256
      19A     -0.624841    20A     -0.618803    21A     -0.595555
      22A     -0.584306    23A     -0.557471    24A     -0.540662
      25A     -0.514730    26A     -0.508238    27A     -0.499247
      28A     -0.472547    29A     -0.467851    30A     -0.458462
      31A     -0.455335    32A     -0.450140    33A     -0.418867

  @DF-RHF Final Energy:  -349.24759841811624

   => Energetics <=

    Nuclear Repulsion Energy =            384.4821076311822026
    One-Electron Energy =               -1235.4274168333799935
    Two-Electron Energy =                 501.6977107840815506
    DFT Exchange-Correlation Energy =       0.0000000000000000
    Empirical Dispersion Energy =           0.0000000000000000
    PCM Polarization Energy =               0.0000000000000000
    EFP Energy =                            0.0000000000000000
    Total Energy =                       -349.2475984181162403
    Molecular point group: c1
  Basis Set: 6-31G*
  Basis Set:

  -Total Gradient:
     Atom            X                  Y                   Z
    ------   -----------------  -----------------  -----------------
       1       -0.000468799594    -0.000002222535     0.000026264445
       2        0.000530857975     0.000134165617    -0.000059171172
       3        0.000333157500    -0.000238121699    -0.000155051586
       4        0.000001380486     0.000036097231    -0.000031238658
       5       -0.000402752595     0.000048230040     0.000202045574
       6        0.000062983648     0.000013354481    -0.000033303571
       7       -0.000048942363     0.000031186063     0.000041898322
       8        0.000031029943     0.000023044869     0.000018800347
       9       -0.000004870644    -0.000040711466     0.000003327406
      10       -0.000008679022     0.000006391012     0.000019888986
      11       -0.000019050091    -0.000006172158    -0.000035377652
      12       -0.000000665907    -0.000005344886     0.000023003072
      13        0.000003611172     0.000014710376    -0.000024912903
      14       -0.000002668480    -0.000005524696     0.000013214454
      15       -0.000008594960    -0.000017304618     0.000005555045
      16       -0.000003552251     0.000018329854    -0.000013868797
      17        0.000000589824    -0.000005976898    -0.000003110967
      18        0.000016480458     0.000003837511     0.000005203951
      19        0.000003979365    -0.000003467939    -0.000004864412
      20       -0.000001004829    -0.000006217979     0.000000914991
      21       -0.000011393875     0.000005256202    -0.000000550797
      22       -0.000002885759     0.000001630413     0.000001262713
      23        0.000002711293    -0.000001480300    -0.000002194122
      24       -0.000002921297    -0.000003688494     0.000002265332

  **** Optimization is complete! (in 2 steps) ****
    Final optimized geometry and variables:
    Molecular point group: c1

    Geometry (in Angstrom), charge = 0, multiplicity = 1:

    H           -3.470871033880     1.233072338855    -1.037397026139
    O           -3.441547293240     0.288727335275    -0.971164770954
    C           -3.180908603701    -0.076132516144     0.360592250062
    C           -1.766344636891     0.273629734804     0.808761751392
    H           -3.336890144204    -1.146811032579     0.409542040174
    H           -3.906268017678     0.384992656184     1.028588726277
    C           -0.678271299880    -0.422416753591    -0.009481308162
    H           -1.633645905927     1.354253999847     0.751955239618
    H           -1.665137367582     0.009890002179     1.860278856970
    C            0.737674663882    -0.041107133230     0.427331401788
    H           -0.815038967149    -0.182988109594    -1.059508459100
    H           -0.804504572187    -1.500429489990     0.077042887911
    C            1.821560804055    -0.739965865329    -0.397843148378
    H            0.851973082258     1.037627715988     0.352858203847
    H            0.871878756019    -0.290513895341     1.479224777652
    C            3.257745200226    -0.453128742570     0.055143210033
    H            1.713274261710    -0.459837338761    -1.444457716764
    H            1.654081892320    -1.814155006677    -0.353562145515
    C            3.704543670556     0.998409827324    -0.128607454500
    H            3.930591452947    -1.097922004097    -0.504987404886
    H            3.368241098366    -0.735410361434     1.100290849398
    H            3.592861387345     1.312853702759    -1.162897763121
    H            4.749664591461     1.117079759356     0.140669790788
    H            3.130640349792     1.681597020923     0.488657952628

  Mulliken Charges: (a.u.)
   Center  Symbol    Alpha    Beta     Spin     Total
       1     H     0.28312  0.28312  0.00000  0.43377
       2     O     4.36828  4.36828  0.00000 -0.73655
       3     C     2.99754  2.99754  0.00000  0.00491
       4     C     3.16725  3.16725  0.00000 -0.33449
       5     H     0.41629  0.41629  0.00000  0.16743
       6     H     0.42826  0.42826  0.00000  0.14347
       7     C     3.15207  3.15207  0.00000 -0.30415
       8     H     0.42821  0.42821  0.00000  0.14359
       9     H     0.42287  0.42287  0.00000  0.15426
      10     C     3.15358  3.15358  0.00000 -0.30716
      11     H     0.41141  0.41141  0.00000  0.17718
      12     H     0.42389  0.42389  0.00000  0.15222
      13     C     3.15223  3.15223  0.00000 -0.30447
      14     H     0.42296  0.42296  0.00000  0.15407
      15     H     0.42557  0.42557  0.00000  0.14887
      16     C     3.15229  3.15229  0.00000 -0.30457
      17     H     0.42361  0.42361  0.00000  0.15278
      18     H     0.42215  0.42215  0.00000  0.15571
      19     C     3.24100  3.24100  0.00000 -0.48201
      20     H     0.42112  0.42112  0.00000  0.15776
      21     H     0.42383  0.42383  0.00000  0.15234
      22     H     0.42229  0.42229  0.00000  0.15543
      23     H     0.41960  0.41960  0.00000  0.16079
      24     H     0.42059  0.42059  0.00000  0.15883

   Total alpha = 33.00000, Total beta = 33.00000, Total charge = -0.00000
