                              Psi4 1.0.54 Driver

  ==> Input File <==

--------------------------------------------------------------------------
set {
	reference rhf
	basis cc-pvtz
}

set_num_threads( 4 )
memory 2 gb

molecule MOL {
0 1

O	 -1.987159	 0.334597	 0.868313
C	 -1.081510	 0.147522	 0.122720
C	 0.327029	 -0.064006	 0.641890
C	 -1.278681	 0.128967	 -1.374293
C	 1.349460	 -0.017068	 -0.500215
H	 0.399029	 -1.014606	 1.159950
H	 0.538021	 0.726928	 1.350471
C	 2.779782	 -0.209014	 -0.009215
H	 1.115007	 -0.782959	 -1.233891
H	 1.259071	 0.936707	 -1.006644
H	 3.481860	 -0.160270	 -0.833072
H	 2.903471	 -1.171535	 0.475559
H	 3.052569	 0.559584	 0.705428
H	 -0.561925	 0.779654	 -1.862785
H	 -2.283898	 0.434401	 -1.620759
H	 -1.103792	 -0.875895	 -1.745128

	symmetry c1
}
set optking {
	frozen_dihedral = ("
		4 2 3 5
	")
}

ee,wfn = optimize('scf', return_wfn=True)
oeprop( wfn, 'DIPOLE', 'QUADRUPOLE', 'MULLIKEN_CHARGES')
f=open( 'psi4out.xyz', 'w' )
f.write( "16  " )
f.write( str(ee) + "\n" )
f.write( MOL.save_string_xyz() )
f.close()
--------------------------------------------------------------------------

    Molecular point group: c1
  Charge       = 0
  Multiplicity = 1
  Basis Set: CC-PVTZ
  Basis Set:
  @DF-RHF Final Energy:  -270.12152061590928
    Total Energy =                       -270.1215206159092759
    Molecular point group: c1
  Basis Set: CC-PVTZ
  Basis Set:
  Basis Set: CC-PVTZ
  Basis Set:
  @DF-RHF Final Energy:  -269.93013328558050
    Total Energy =                       -269.9301332855806095
  Basis Set: CC-PVTZ
  Basis Set:
  Basis Set: CC-PVTZ
  Basis Set:
  @DF-RHF Final Energy:  -270.05772026820875
    Total Energy =                       -270.0577202682086977
  Basis Set: CC-PVTZ
  Basis Set:
  Basis Set: CC-PVTZ
  Basis Set:
  @DF-RHF Final Energy:  -270.11974861782517
    Total Energy =                       -270.1197486178250529
  Basis Set: CC-PVTZ
  Basis Set:
  @DF-RHF Final Energy:  -270.12566558899982
    Total Energy =                       -270.1256655890000502
  @DF-RHF Final Energy:  -270.12664693687361
    Total Energy =                       -270.1266469368736693
  @DF-RHF Final Energy:  -270.12615673262474
    Total Energy =                       -270.1261567326249633
  @DF-RHF Final Energy:  -270.12679838600627
    Total Energy =                       -270.1267983860062145
  @DF-RHF Final Energy:  -270.12682173801579
    Total Energy =                       -270.1268217380156784
  Basis Set: CC-PVTZ
  Basis Set:
  @DF-RHF Final Energy:  -270.12675446391415
    Total Energy =                       -270.1267544639142670
  Basis Set: CC-PVTZ
  Basis Set:
  Basis Set: CC-PVTZ
  Basis Set:
  @DF-RHF Final Energy:  -270.12685197279711
    Total Energy =                       -270.1268519727969419
  Basis Set: CC-PVTZ
  Basis Set:
  Basis Set: CC-PVTZ
  Basis Set:
  @DF-RHF Final Energy:  -270.12685373641631
    Total Energy =                       -270.1268537364160807
  Basis Set: CC-PVTZ
  Basis Set:
  Charge       = 0
  Multiplicity = 1
  Basis Set: CC-PVTZ
  Basis Set:

    Orbital Energies (a.u.)
    -----------------------

    Doubly Occupied:

       1A    -20.534983     2A    -11.321327     3A    -11.231630
       4A    -11.229787     5A    -11.226925     6A    -11.219281
       7A     -1.396661     8A     -1.085835     9A     -1.010089
      10A     -0.953301    11A     -0.835458    12A     -0.734364
      13A     -0.657232    14A     -0.655058    15A     -0.627313
      16A     -0.599448    17A     -0.577999    18A     -0.554007
      19A     -0.540353    20A     -0.522142    21A     -0.506091
      22A     -0.490747    23A     -0.471055    24A     -0.400256

  @DF-RHF Final Energy:  -270.12685389044378

   => Energetics <=

    Nuclear Repulsion Energy =            237.0689428270546273
    One-Electron Energy =                -835.6289105312074526
    Two-Electron Energy =                 328.4331138137087009
    DFT Exchange-Correlation Energy =       0.0000000000000000
    Empirical Dispersion Energy =           0.0000000000000000
    PCM Polarization Energy =               0.0000000000000000
    EFP Energy =                            0.0000000000000000
    Total Energy =                       -270.1268538904440675
    Molecular point group: c1
  Basis Set: CC-PVTZ
  Basis Set:

  -Total Gradient:
     Atom            X                  Y                   Z
    ------   -----------------  -----------------  -----------------
       1        0.000021735035    -0.000006007524    -0.000015777705
       2       -0.000351392407    -0.001505379606    -0.000212961473
       3        0.000230469852     0.001500169570     0.000322455332
       4        0.000180386346     0.000772416808     0.000088746992
       5       -0.000073308104    -0.000752178994    -0.000191743679
       6        0.000001792569    -0.000004358465    -0.000000282679
       7       -0.000000109215    -0.000002626352    -0.000004561462
       8       -0.000000377202    -0.000009100424     0.000011951145
       9       -0.000004901608    -0.000000617061    -0.000001186877
      10       -0.000005820313     0.000007486541    -0.000005212088
      11       -0.000004710439     0.000000841649    -0.000002500061
      12        0.000003494593    -0.000004429540     0.000006716801
      13        0.000002306458     0.000002215877     0.000003822583
      14       -0.000001398406    -0.000007405860    -0.000002145279
      15        0.000006679214    -0.000001809182     0.000003441934
      16       -0.000004846374     0.000010782563    -0.000000763481

  **** Optimization is complete! (in 13 steps) ****
    Final optimized geometry and variables:
    Molecular point group: c1

    Geometry (in Angstrom), charge = 0, multiplicity = 1:

    O           -2.166438324137     0.429579638483    -0.039111448852
    C           -1.049831426192     0.218406957415    -0.385798128948
    C           -0.002033990270    -0.149425960736     0.656647015052
    C           -0.663859127347     0.299777952230    -1.843821331493
    C            1.461436813104    -0.200043701343     0.226670971013
    H           -0.303629896723    -1.119368683462     1.042884366879
    H           -0.134541998718     0.547712555771     1.475891099388
    C            2.379951351105    -0.588008998310     1.381210879942
    H            1.589404191508    -0.910838176292    -0.582590627590
    H            1.768025463908     0.766583491172    -0.160483531976
    H            3.414910936774    -0.617678213007     1.062220038351
    H            2.124718937295    -1.567114141741     1.771932458041
    H            2.304175832294     0.122524095180     2.197008623388
    H            0.109652019221     1.044202045185    -1.991132694817
    H           -1.534175686579     0.558164581130    -2.426584492484
    H           -0.265504016626    -0.649469296665    -2.184078474952

  Mulliken Charges: (a.u.)
   Center  Symbol    Alpha    Beta     Spin     Total
       1     O     4.17653  4.17653  0.00000 -0.35306
       2     C     2.86118  2.86118  0.00000  0.27763
       3     C     3.09607  3.09607  0.00000 -0.19215
       4     C     3.16245  3.16245  0.00000 -0.32489
       5     C     3.09546  3.09546  0.00000 -0.19091
       6     H     0.44058  0.44058  0.00000  0.11885
       7     H     0.43730  0.43730  0.00000  0.12541
       8     C     3.14990  3.14990  0.00000 -0.29979
       9     H     0.45085  0.45085  0.00000  0.09830
      10     H     0.44963  0.44963  0.00000  0.10075
      11     H     0.44606  0.44606  0.00000  0.10789
      12     H     0.45337  0.45337  0.00000  0.09327
      13     H     0.45243  0.45243  0.00000  0.09515
      14     H     0.44831  0.44831  0.00000  0.10338
      15     H     0.43202  0.43202  0.00000  0.13596
      16     H     0.44789  0.44789  0.00000  0.10423

   Total alpha = 24.00000, Total beta = 24.00000, Total charge = -0.00000

*** Psi4 exiting successfully. Buy a developer a beer!
