  ==> Input File <==

--------------------------------------------------------------------------
set {
	reference rhf
	basis 6-31G*
}

set_num_threads( 1 )
memory 2 gb

molecule MOL {
0 1

H	 -3.261111	 -0.295142	 1.469456
C	 -3.306842	 -0.277400	 0.373456
C	 -2.660244	 0.921717	 -0.272021
O	 -3.838538	 -1.161155	 -0.216482
C	 -1.220012	 1.144545	 0.209990
H	 -2.705793	 0.797307	 -1.347733
H	 -3.263782	 1.790044	 -0.010477
C	 -0.252658	 0.041456	 -0.226725
H	 -0.873521	 2.100229	 -0.171974
H	 -1.211708	 1.231594	 1.295398
C	 1.180775	 0.282413	 0.250794
H	 -0.266029	 -0.034465	 -1.312038
H	 -0.597733	 -0.921000	 0.146291
C	 2.148627	 -0.814315	 -0.201312
H	 1.516199	 1.249228	 -0.115937
H	 1.192670	 0.346017	 1.338083
C	 3.580890	 -0.659131	 0.322722
H	 2.166869	 -0.852443	 -1.289387
H	 1.762857	 -1.776509	 0.128956
C	 3.887709	 0.706680	 0.939198
H	 4.268271	 -0.830912	 -0.501867
H	 3.783631	 -1.439453	 1.053417
H	 3.678467	 1.508220	 0.235622
H	 3.301533	 0.889971	 1.833500
H	 4.934972	 0.777045	 1.217197

	symmetry c1
}
set optking {
	frozen_dihedral = ("
		6 3 5 8,
		6 3 2 4,
		3 5 8 12,
		12 8 11 14,
		8 11 14 18
	")
}

ee = energy('scf')
oeprop('DIPOLE', 'QUADRUPOLE', 'MULLIKEN_CHARGES')
f=open( 'psi4out.xyz', 'w' )
f.write( "25  " )
f.write( str(ee) + "\n" )
f.write( MOL.save_string_xyz() )
f.close()
--------------------------------------------------------------------------

    Molecular point group: c1

    Geometry (in Angstrom), charge = 0, multiplicity = 1:

       Center              X                  Y                   Z               Mass
    ------------   -----------------  -----------------  -----------------  -----------------
           H         -3.209913158958    -0.311956373398     1.334503158520     1.007825032070
           C         -3.255644158958    -0.294214373398     0.238503158520    12.000000000000
           C         -2.609046158958     0.904902626602    -0.406973841480    12.000000000000
           O         -3.787340158958    -1.177969373398    -0.351434841480    15.994914619560
           C         -1.168814158958     1.127730626602     0.075037158520    12.000000000000
           H         -2.654595158958     0.780492626602    -1.482685841480     1.007825032070
           H         -3.212584158958     1.773229626602    -0.145429841480     1.007825032070
           C         -0.201460158958     0.024641626602    -0.361677841480    12.000000000000
           H         -0.822323158958     2.083414626602    -0.306926841480     1.007825032070
           H         -1.160510158958     1.214779626602     1.160445158520     1.007825032070
           C          1.231972841042     0.265598626602     0.115841158520    12.000000000000
           H         -0.214831158958    -0.051279373398    -1.446990841480     1.007825032070
           H         -0.546535158958    -0.937814373398     0.011338158520     1.007825032070
           C          2.199824841042    -0.831129373398    -0.336264841480    12.000000000000
           H          1.567396841042     1.232413626602    -0.250889841480     1.007825032070
           H          1.243867841042     0.329202626602     1.203130158520     1.007825032070
           C          3.632087841042    -0.675945373398     0.187769158520    12.000000000000
           H          2.218066841042    -0.869257373398    -1.424339841480     1.007825032070
           H          1.814054841042    -1.793323373398    -0.005996841480     1.007825032070
           C          3.938906841042     0.689865626602     0.804245158520    12.000000000000
           H          4.319468841042    -0.847726373398    -0.636819841480     1.007825032070
           H          3.834828841042    -1.456267373398     0.918464158520     1.007825032070
           H          3.729664841042     1.491405626602     0.100669158520     1.007825032070
           H          3.352730841042     0.873156626602     1.698547158520     1.007825032070
           H          4.986169841042     0.760230626602     1.082244158520     1.007825032070

  Charge       = 0
  Multiplicity = 1
  Basis Set: 6-31G*
  Basis Set:

    Orbital Energies (a.u.)
    -----------------------

    Doubly Occupied:

       1A    -20.561812     2A    -11.325964     3A    -11.235001
       4A    -11.234356     5A    -11.223094     6A    -11.219148
       7A    -11.216586     8A    -11.215593     9A    -11.210282
      10A     -1.401794    11A     -1.104228    12A     -1.070535
      13A     -1.011038    14A     -0.940587    15A     -0.880534
      16A     -0.823878    17A     -0.787662    18A     -0.771223
      19A     -0.665473    20A     -0.663734    21A     -0.639153
      22A     -0.623730    23A     -0.603536    24A     -0.588900
      25A     -0.573351    26A     -0.552952    27A     -0.534779
      28A     -0.520490    29A     -0.518361    30A     -0.495727
      31A     -0.488568    32A     -0.482507    33A     -0.461337
      34A     -0.447964    35A     -0.442114    36A     -0.409338

  @DF-RHF Final Energy:  -387.11278181818051

   => Energetics <=

    Nuclear Repulsion Energy =            442.1833541000414129
    One-Electron Energy =               -1400.7016418372281805
    Two-Electron Energy =                 571.4055059190034171
    DFT Exchange-Correlation Energy =       0.0000000000000000
    Empirical Dispersion Energy =           0.0000000000000000
    PCM Polarization Energy =               0.0000000000000000
    EFP Energy =                            0.0000000000000000
    Total Energy =                       -387.1127818181832936

  Mulliken Charges: (a.u.)
   Center  Symbol    Alpha    Beta     Spin     Total
       1     H     0.43267  0.43267  0.00000  0.13466
       2     C     2.83078  2.83078  0.00000  0.33843
       3     C     3.20808  3.20808  0.00000 -0.41617
       4     O     4.23781  4.23781  0.00000 -0.47561
       5     C     3.16647  3.16647  0.00000 -0.33294
       6     H     0.39973  0.39973  0.00000  0.20054
       7     H     0.40678  0.40678  0.00000  0.18644
       8     C     3.15355  3.15355  0.00000 -0.30710
       9     H     0.41302  0.41302  0.00000  0.17395
      10     H     0.41983  0.41983  0.00000  0.16034
      11     C     3.15705  3.15705  0.00000 -0.31409
      12     H     0.41839  0.41839  0.00000  0.16323
      13     H     0.41873  0.41873  0.00000  0.16254
      14     C     3.15556  3.15556  0.00000 -0.31112
      15     H     0.42054  0.42054  0.00000  0.15892
      16     H     0.42239  0.42239  0.00000  0.15523
      17     C     3.15461  3.15461  0.00000 -0.30923
      18     H     0.42057  0.42057  0.00000  0.15887
      19     H     0.41960  0.41960  0.00000  0.16079
      20     C     3.24463  3.24463  0.00000 -0.48926
      21     H     0.41965  0.41965  0.00000  0.16070
      22     H     0.42016  0.42016  0.00000  0.15969
      23     H     0.42133  0.42133  0.00000  0.15733
      24     H     0.42023  0.42023  0.00000  0.15953
      25     H     0.41783  0.41783  0.00000  0.16434

   Total alpha = 36.00000, Total beta = 36.00000, Total charge =  0.00000
