  ==> Input File <==

--------------------------------------------------------------------------
set {
	reference rhf
	basis 6-31G*
}

set_num_threads( 4 )
memory 2 gb

molecule MOL {
0 1

O	 3.225979	 0.970355	 -0.599647
C	 2.701189	 0.057885	 -0.047330
C	 1.245376	 -0.013843	 0.345420
O	 3.347903	 -1.046386	 0.304773
C	 0.455112	 1.231400	 -0.050772
H	 0.838542	 -0.913825	 -0.103701
H	 1.208210	 -0.175333	 1.419774
C	 -0.998893	 1.219485	 0.433193
H	 0.482531	 1.345121	 -1.130325
H	 0.957290	 2.103070	 0.354729
C	 -1.883438	 0.145884	 -0.207175
H	 -1.431207	 2.195402	 0.224832
H	 -1.019646	 1.105716	 1.516076
C	 -3.347647	 0.245583	 0.225435
H	 -1.822183	 0.231698	 -1.291012
H	 -1.510341	 -0.844814	 0.042401
C	 -4.335101	 -0.051295	 -0.904579
H	 -3.540021	 1.243116	 0.616783
H	 -3.527565	 -0.443758	 1.048926
C	 -5.795094	 0.054150	 -0.465258
H	 -4.156041	 0.636004	 -1.728715
H	 -4.147225	 -1.049657	 -1.294138
H	 -6.470300	 -0.161696	 -1.287520
H	 -6.024223	 1.052221	 -0.102560
H	 -6.015070	 -0.646021	 0.335770
C	 4.728119	 -1.109107	 -0.004993
H	 4.882018	 -1.033965	 -1.071845
H	 5.068212	 -2.067527	 0.355250
H	 5.265056	 -0.311663	 0.488280

	symmetry c1
}
set optking {
	frozen_dihedral = ("
		17 14 11 15
	")
}

ee = optimize('scf')
oeprop('DIPOLE', 'QUADRUPOLE', 'MULLIKEN_CHARGES')
f=open( 'psi4out.xyz', 'w' )
f.write( "29  " )
f.write( str(ee) + "\n" )
f.write( MOL.save_string_xyz() )
f.close()
--------------------------------------------------------------------------

    Molecular point group: c1
  Charge       = 0
  Multiplicity = 1
  Basis Set: 6-31G*
  Basis Set:
  @DF-RHF Final Energy:  -501.04009757519202
    Total Energy =                       -501.0400975751921351
    Molecular point group: c1
  Basis Set: 6-31G*
  Basis Set:
  Basis Set: 6-31G*
  Basis Set:
  @DF-RHF Final Energy:  -501.04032246091242
    Total Energy =                       -501.0403224609116251
  Basis Set: 6-31G*
  Basis Set:
  Basis Set: 6-31G*
  Basis Set:
  @DF-RHF Final Energy:  -501.04042515413096
    Total Energy =                       -501.0404251541308440
  Basis Set: 6-31G*
  Basis Set:
  Basis Set: 6-31G*
  Basis Set:
  @DF-RHF Final Energy:  -501.04043123249801
    Total Energy =                       -501.0404312324981220
  Basis Set: 6-31G*
  Basis Set:
  Basis Set: 6-31G*
  Basis Set:
  @DF-RHF Final Energy:  -501.04042626514229
    Total Energy =                       -501.0404262651428553
  Basis Set: 6-31G*
  Basis Set:
  Basis Set: 6-31G*
  Basis Set:
  @DF-RHF Final Energy:  -501.04043491370453
    Total Energy =                       -501.0404349137044164
  Basis Set: 6-31G*
  Basis Set:
  Charge       = 0
  Multiplicity = 1
  Basis Set: 6-31G*
  Basis Set:

    Orbital Energies (a.u.)
    -----------------------

    Doubly Occupied:

       1A    -20.603396     2A    -20.545216     3A    -11.372036
       4A    -11.280681     5A    -11.234800     6A    -11.219093
       7A    -11.218078     8A    -11.215981     9A    -11.215590
      10A    -11.214173    11A    -11.208769    12A     -1.469091
      13A     -1.362537    14A     -1.097181    15A     -1.066167
      16A     -1.019280    17A     -0.976658    18A     -0.928369
      19A     -0.861998    20A     -0.800751    21A     -0.790213
      22A     -0.764037    23A     -0.701077    24A     -0.682306
      25A     -0.671940    26A     -0.645766    27A     -0.627563
      28A     -0.605983    29A     -0.597391    30A     -0.579876
      31A     -0.564431    32A     -0.552608    33A     -0.531878
      34A     -0.529983    35A     -0.517819    36A     -0.510055
      37A     -0.497175    38A     -0.476558    39A     -0.471813
      40A     -0.462082    41A     -0.456042    42A     -0.453128
      43A     -0.441451    44A     -0.435504

  @DF-RHF Final Energy:  -501.04043529219905

   => Energetics <=

    Nuclear Repulsion Energy =            609.5191499709009122
    One-Electron Energy =               -1890.1661122035472999
    Two-Electron Energy =                 779.6065269404467699
    DFT Exchange-Correlation Energy =       0.0000000000000000
    Empirical Dispersion Energy =           0.0000000000000000
    PCM Polarization Energy =               0.0000000000000000
    EFP Energy =                            0.0000000000000000
    Total Energy =                       -501.0404352921995041
    Molecular point group: c1
  Basis Set: 6-31G*
  Basis Set:

  -Total Gradient:
     Atom            X                  Y                   Z
    ------   -----------------  -----------------  -----------------
       1       -0.000009056692     0.000002099210     0.000001200498
       2       -0.000000310511    -0.000007179282    -0.000001593222
       3        0.000010545812    -0.000003940377     0.000010574288
       4        0.000001635588    -0.000004670950     0.000003572278
       5       -0.000010947066     0.000000994460    -0.000045689127
       6        0.000008408452     0.000011542298     0.000003411370
       7        0.000007909790    -0.000002141154    -0.000000435304
       8       -0.000017452747     0.000016409641     0.000037197855
       9        0.000011717446     0.000020518336    -0.000006455466
      10        0.000003027213    -0.000017919587     0.000006729249
      11        0.000268884895     0.005858997191     0.000279997692
      12       -0.000004457748    -0.000005279875     0.000004832486
      13       -0.000004798225     0.000016829894     0.000008353142
      14        0.000107147797    -0.004776211290     0.000757807474
      15       -0.000302432394    -0.003872406306    -0.000418804935
      16       -0.000025268649    -0.000011382839     0.000014945153
      17       -0.000100383764     0.002778918812    -0.000663653489
      18        0.000028172726     0.000016541553     0.000008576792
      19        0.000023022058    -0.000010651133    -0.000001125909
      20        0.000015781043    -0.000015253117     0.000008448914
      21       -0.000008514907     0.000004810827     0.000003549310
      22       -0.000009202872     0.000001314218    -0.000013275661
      23        0.000008991193    -0.000006406455     0.000000958602
      24       -0.000000094308     0.000002865204    -0.000005098639
      25       -0.000001550070     0.000001284468     0.000005462996
      26       -0.000000272996     0.000000648370     0.000001017391
      27       -0.000000322477    -0.000000006651    -0.000000182548
      28       -0.000000432267    -0.000000169045    -0.000000091115
      29        0.000000253680    -0.000000156419    -0.000000230073

  **** Optimization is complete! (in 7 steps) ****
    Final optimized geometry and variables:
    Molecular point group: c1

    Geometry (in Angstrom), charge = 0, multiplicity = 1:

    O            3.264499211986     0.811159093860    -0.493583000277
    C            2.723281701948    -0.093940483870     0.054986522401
    C            1.262411060388    -0.148366753449     0.431401220550
    O            3.353523866800    -1.204423381514     0.417282898101
    C            0.490698349963     1.104400643993     0.022105409761
    H            0.851228977736    -1.045742777127    -0.018719234094
    H            1.211572773070    -0.305201886072     1.505867625301
    C           -0.969077205386     1.111902644831     0.487948196265
    H            0.532886978831     1.215623932093    -1.057293170822
    H            0.998125822927     1.970961999560     0.431986262722
    C           -1.865653265128     0.066110439726    -0.178628119885
    H           -1.382746100889     2.097616903098     0.288556261028
    H           -1.006923495666     0.982939864857     1.568923692549
    C           -3.329739090956     0.120406603683     0.295985494904
    H           -1.825060021459     0.178438946708    -1.260465886282
    H           -1.476175365043    -0.930834386620     0.013218760506
    C           -4.342111497692    -0.172835105742    -0.813475132835
    H           -3.544132732507     1.110122208151     0.695769727968
    H           -3.476617718965    -0.571948586701     1.121431351072
    C           -5.788914207093    -0.156530989555    -0.322730031083
    H           -4.219498329586     0.562045064542    -1.605849991909
    H           -4.123476215234    -1.141200804128    -1.259847914608
    H           -6.482158156132    -0.356444451331    -1.133948566442
    H           -6.047518890266     0.809124092685     0.102850002991
    H           -5.951585329550    -0.908604461029     0.444189581998
    C            4.736423092226    -1.283355553662     0.123586199189
    H            4.903391696381    -1.212773616727    -0.941614574973
    H            5.061590807205    -2.244546600123     0.490151926725
    H            5.276536481072    -0.490644713282     0.621002077579

  Mulliken Charges: (a.u.)
   Center  Symbol    Alpha    Beta     Spin     Total
       1     O     4.28595  4.28595  0.00000 -0.57189
       2     C     2.60484  2.60484  0.00000  0.79031
       3     C     3.20957  3.20957  0.00000 -0.41914
       4     O     4.30745  4.30745  0.00000 -0.61490
       5     C     3.15445  3.15445  0.00000 -0.30889
       6     H     0.39899  0.39899  0.00000  0.20202
       7     H     0.40116  0.40116  0.00000  0.19768
       8     C     3.15777  3.15777  0.00000 -0.31555
       9     H     0.41292  0.41292  0.00000  0.17417
      10     H     0.40869  0.40869  0.00000  0.18263
      11     C     3.15738  3.15738  0.00000 -0.31476
      12     H     0.41797  0.41797  0.00000  0.16406
      13     H     0.42345  0.42345  0.00000  0.15310
      14     C     3.15208  3.15208  0.00000 -0.30415
      15     H     0.42073  0.42073  0.00000  0.15855
      16     H     0.42231  0.42231  0.00000  0.15537
      17     C     3.15289  3.15289  0.00000 -0.30578
      18     H     0.42266  0.42266  0.00000  0.15468
      19     H     0.42171  0.42171  0.00000  0.15659
      20     C     3.23992  3.23992  0.00000 -0.47984
      21     H     0.42222  0.42222  0.00000  0.15555
      22     H     0.42320  0.42320  0.00000  0.15361
      23     H     0.41915  0.41915  0.00000  0.16171
      24     H     0.42165  0.42165  0.00000  0.15670
      25     H     0.42179  0.42179  0.00000  0.15641
      26     C     3.09240  3.09240  0.00000 -0.18481
      27     H     0.40908  0.40908  0.00000  0.18184
      28     H     0.40851  0.40851  0.00000  0.18297
      29     H     0.40912  0.40912  0.00000  0.18176

   Total alpha = 44.00000, Total beta = 44.00000, Total charge = -0.00000
