  ==> Input File <==

--------------------------------------------------------------------------
set {
	reference rhf
	basis cc-pvtz
}

set_num_threads( 4 )
memory 2 gb

molecule MOL {
0 1

H	 -3.642953	 0.223825	 0.000000
C	 -2.571844	 0.155001	 0.000000
C	 -1.957580	 -1.086132	 0.000000
C	 -1.807160	 1.303787	 0.000000
H	 -2.551493	 -1.979629	 0.000000
C	 -0.582719	 -1.174294	 0.000000
H	 -2.279934	 2.266806	 0.000000
C	 -0.427220	 1.213406	 0.000000
H	 -0.094904	 -2.127556	 0.000000
C	 0.196908	 -0.024061	 0.000000
H	 0.151409	 2.115254	 0.000000
C	 1.690041	 -0.173233	 0.000000
C	 2.320216	 -1.253246	 -0.849183
O	 2.369155	 0.547969	 0.658811
H	 1.961788	 -2.232007	 -0.553319
H	 3.390116	 -1.208459	 -0.722542
H	 2.073686	 -1.111975	 -1.894767

	symmetry c1
}
set optking {
	frozen_dihedral = ("
		13 12 10 8
	")
}

ee = optimize('scf')
oeprop('DIPOLE', 'QUADRUPOLE', 'MULLIKEN_CHARGES')
f=open( 'psi4out.xyz', 'w' )
f.write( "17  " )
f.write( str(ee) + "\n" )
f.write( MOL.save_string_xyz() )
f.close()
--------------------------------------------------------------------------

    Molecular point group: c1
  Charge       = 0
  Multiplicity = 1
  Basis Set: CC-PVTZ
  Basis Set:
  @DF-RHF Final Energy:  -382.60107408095956
    Total Energy =                       -382.6010740809595063
    Molecular point group: c1
  Basis Set: CC-PVTZ
  Basis Set:
  Basis Set: CC-PVTZ
  Basis Set:
  @DF-RHF Final Energy:  -382.60083126449751
    Total Energy =                       -382.6008312644977423
  Basis Set: CC-PVTZ
  Basis Set:
  Basis Set: CC-PVTZ
  Basis Set:
  @DF-RHF Final Energy:  -382.60179755817882
    Total Energy =                       -382.6017975581792143
  Basis Set: CC-PVTZ
  Basis Set:
  Basis Set: CC-PVTZ
  Basis Set:
  @DF-RHF Final Energy:  -382.60286260986197
    Total Energy =                       -382.6028626098623135
  Basis Set: CC-PVTZ
  Basis Set:
  Basis Set: CC-PVTZ
  Basis Set:
  @DF-RHF Final Energy:  -382.60287441362982
    Total Energy =                       -382.6028744136299338
  Basis Set: CC-PVTZ
  Basis Set:
  Basis Set: CC-PVTZ
  Basis Set:
  @DF-RHF Final Energy:  -382.60287604262999
    Total Energy =                       -382.6028760426299868
  Basis Set: CC-PVTZ
  Basis Set:
  Charge       = 0
  Multiplicity = 1
  Basis Set: CC-PVTZ
  Basis Set:

    Orbital Energies (a.u.)
    -----------------------

    Doubly Occupied:

       1A    -20.542688     2A    -11.328493     3A    -11.245757
       4A    -11.243969     5A    -11.242377     6A    -11.239958
       7A    -11.239293     8A    -11.237434     9A    -11.229844
      10A     -1.403513    11A     -1.171385    12A     -1.053664
      13A     -1.030645    14A     -0.999699    15A     -0.864105
      16A     -0.840123    17A     -0.764333    18A     -0.710610
      19A     -0.661565    20A     -0.651445    21A     -0.627754
      22A     -0.618879    23A     -0.603379    24A     -0.594057
      25A     -0.559410    26A     -0.530400    27A     -0.519003
      28A     -0.505578    29A     -0.496734    30A     -0.414414
      31A     -0.350012    32A     -0.347200

  @DF-RHF Final Energy:  -382.60287634867660

   => Energetics <=

    Nuclear Repulsion Energy =            404.2631689400827213
    One-Electron Energy =               -1319.9966480635932840
    Two-Electron Energy =                 533.1306027748339602
    DFT Exchange-Correlation Energy =       0.0000000000000000
    Empirical Dispersion Energy =           0.0000000000000000
    PCM Polarization Energy =               0.0000000000000000
    EFP Energy =                            0.0000000000000000
    Total Energy =                       -382.6028763486765456
    Molecular point group: c1
  Basis Set: CC-PVTZ
  Basis Set:

  -Total Gradient:
     Atom            X                  Y                   Z
    ------   -----------------  -----------------  -----------------
       1       -0.000003300227    -0.000006934162    -0.000007184594
       2        0.000020592805     0.000054245358     0.000009313565
       3        0.000044742388    -0.000029609459    -0.000002803663
       4       -0.000044209559    -0.000008845260     0.000006963859
       5       -0.000006339220     0.000008281237    -0.000001654725
       6       -0.000062791035    -0.000032490414     0.000006606790
       7       -0.000000912027    -0.000002175838     0.000002152938
       8       -0.000018149791    -0.000025972308    -0.003320421887
       9        0.000001671216     0.000013810443     0.000004537699
      10        0.000094806035     0.000947255815     0.003624370842
      11        0.000000610342    -0.000002081648     0.000003113257
      12       -0.000085261705    -0.002834830099     0.002044826854
      13        0.000083050591     0.001931909407    -0.002347600486
      14       -0.000027903320    -0.000001721784    -0.000012892084
      15       -0.000000978440    -0.000003655360    -0.000002412449
      16       -0.000002160516    -0.000010054444    -0.000011961040
      17        0.000006532461     0.000002868517     0.000005045122

  **** Optimization is complete! (in 7 steps) ****
    Final optimized geometry and variables:
    Molecular point group: c1

    Geometry (in Angstrom), charge = 0, multiplicity = 1:

    H           -3.631237329873     0.323730951186    -0.000055588494
    C           -2.562375329871     0.227859916265     0.013523251220
    C           -1.981507459917    -1.025131802057     0.018148149095
    C           -1.765685554327     1.358866756312     0.023252965914
    H           -2.596527895683    -1.904303186847     0.013056279656
    C           -0.604786308460    -1.148186956055     0.021118389487
    H           -2.214874984098     2.333226694897     0.012789934144
    C           -0.391959870649     1.235381838591     0.050070765602
    H           -0.166923847142    -2.127158334791     0.013649558433
    C            0.198755805739    -0.019880677196     0.054551719544
    H            0.233321497153     2.105493304919     0.073880106438
    C            1.698114222077    -0.100691114121     0.041643560878
    C            2.348898105265    -1.164338848416    -0.811874355572
    O            2.350561421143     0.700551265382     0.628753091568
    H            2.095715525915    -2.157940907362    -0.461957695683
    H            3.419603568757    -1.036897192665    -0.777003776701
    H            1.997209496966    -1.080225868703    -1.833270608577

  Mulliken Charges: (a.u.)
   Center  Symbol    Alpha    Beta     Spin     Total
       1     H     0.42069  0.42069  0.00000  0.15862
       2     C     3.07782  3.07782  0.00000 -0.15565
       3     C     3.07009  3.07009  0.00000 -0.14017
       4     C     3.06960  3.06960  0.00000 -0.13919
       5     H     0.42177  0.42177  0.00000  0.15647
       6     C     3.08969  3.08969  0.00000 -0.17937
       7     H     0.42072  0.42072  0.00000  0.15856
       8     C     3.08518  3.08518  0.00000 -0.17036
       9     H     0.42369  0.42369  0.00000  0.15263
      10     C     2.98468  2.98468  0.00000  0.03063
      11     H     0.41148  0.41148  0.00000  0.17705
      12     C     2.86028  2.86028  0.00000  0.27944
      13     C     3.15841  3.15841  0.00000 -0.31681
      14     O     4.17579  4.17579  0.00000 -0.35158
      15     H     0.45096  0.45096  0.00000  0.09808
      16     H     0.43411  0.43411  0.00000  0.13178
      17     H     0.44506  0.44506  0.00000  0.10988

   Total alpha = 32.00000, Total beta = 32.00000, Total charge = -0.00000
