  ==> Input File <==

--------------------------------------------------------------------------
set {
	reference rhf
	basis cc-pvtz
}

set_num_threads( 4 )
memory 2 gb

molecule MOL {
0 1

H	 -1.835082	 1.385983	 0.000069
C	 -1.300516	 0.441153	 -0.000028
O	 -0.006604	 0.654344	 -0.000106
O	 -1.828920	 -0.612308	 0.000113
C	 0.647086	 0.762183	 1.261196
C	 2.114790	 1.004397	 1.000660
H	 0.485714	 -0.150303	 1.817331
H	 0.201100	 1.574395	 1.817408
H	 2.547061	 0.185466	 0.439890
H	 2.642472	 1.091445	 1.942907
H	 2.261017	 1.918826	 0.439940

	symmetry c1
}
set optking {
	frozen_dihedral = ("
		5 3 2 4
	")
}

ee = optimize('scf')
oeprop('DIPOLE', 'QUADRUPOLE', 'MULLIKEN_CHARGES')
f=open( 'psi4out.xyz', 'w' )
f.write( "11  " )
f.write( str(ee) + "\n" )
f.write( MOL.save_string_xyz() )
f.close()
--------------------------------------------------------------------------

    Molecular point group: c1
  Charge       = 0
  Multiplicity = 1
  Basis Set: CC-PVTZ
  Basis Set:
  @DF-RHF Final Energy:  -266.91184978783122
    Total Energy =                       -266.9118497878313292
    Molecular point group: c1
  Basis Set: CC-PVTZ
  Basis Set:
  Basis Set: CC-PVTZ
  Basis Set:
  @DF-RHF Final Energy:  -266.91187933396873
    Total Energy =                       -266.9118793339688409
  Basis Set: CC-PVTZ
  Basis Set:
  Basis Set: CC-PVTZ
  Basis Set:
  @DF-RHF Final Energy:  -266.91294236153897
    Total Energy =                       -266.9129423615389669
  Basis Set: CC-PVTZ
  Basis Set:
  Basis Set: CC-PVTZ
  Basis Set:
  @DF-RHF Final Energy:  -266.91313582391297
    Total Energy =                       -266.9131358239129099
  Basis Set: CC-PVTZ
  Basis Set:
  Basis Set: CC-PVTZ
  Basis Set:
  @DF-RHF Final Energy:  -266.91314035882567
    Total Energy =                       -266.9131403588255580
  Basis Set: CC-PVTZ
  Basis Set:
  Charge       = 0
  Multiplicity = 1
  Basis Set: CC-PVTZ
  Basis Set:

    Orbital Energies (a.u.)
    -----------------------

    Doubly Occupied:

       1A    -20.585459     2A    -20.560713     3A    -11.373825
       4A    -11.299721     5A    -11.227024     6A     -1.470186
       7A     -1.382148     8A     -1.049817     9A     -0.888634
      10A     -0.828368    11A     -0.743468    12A     -0.693227
      13A     -0.649602    14A     -0.641762    15A     -0.564426
      16A     -0.542627    17A     -0.536404    18A     -0.507652
      19A     -0.467522    20A     -0.456782

  @DF-RHF Final Energy:  -266.91314113266537

   => Energetics <=

    Nuclear Repulsion Energy =            177.4088587398297534
    One-Electron Energy =                -715.7052734755712891
    Two-Electron Energy =                 271.3832736030760771
    DFT Exchange-Correlation Energy =       0.0000000000000000
    Empirical Dispersion Energy =           0.0000000000000000
    PCM Polarization Energy =               0.0000000000000000
    EFP Energy =                            0.0000000000000000
    Total Energy =                       -266.9131411326654870
    Molecular point group: c1
  Basis Set: CC-PVTZ
  Basis Set:

  -Total Gradient:
     Atom            X                  Y                   Z
    ------   -----------------  -----------------  -----------------
       1        0.000018951984    -0.000024599291    -0.000024788818
       2       -0.000041468646     0.000052544902     0.001113722202
       3        0.000123427273    -0.000677206609    -0.000346974850
       4       -0.000029516755     0.000114768774    -0.000712600646
       5       -0.000119827963     0.000512351775    -0.000128179670
       6        0.000040596231     0.000015173488     0.000058282674
       7       -0.000030177197     0.000020162124     0.000007310649
       8        0.000027820288    -0.000004096887     0.000031999290
       9       -0.000009454797    -0.000000492531     0.000000732642
      10        0.000028466405    -0.000005415112    -0.000000145387
      11       -0.000008816823    -0.000003190631     0.000000641912

  **** Optimization is complete! (in 6 steps) ****
    Final optimized geometry and variables:
    Molecular point group: c1

    Geometry (in Angstrom), charge = 0, multiplicity = 1:

    H           -1.816776046752     0.927434455155    -0.480680947618
    C           -1.244922576027     0.000821983933    -0.448747881039
    O            0.076544489016     0.201963059216    -0.470744821706
    O           -1.751436924722    -1.054928926443    -0.432370600749
    C            0.722106118358     0.307571371119     0.791323160688
    C            2.192178705486     0.552811950094     0.550626793640
    H            0.563722635914    -0.610281372783     1.343646710792
    H            0.282213630181     1.126181048267     1.353303182352
    H            2.623975056644    -0.264173979982    -0.012219838850
    H            2.711315551483     0.633754021521     1.498298540743
    H            2.340497270908     1.470049092933    -0.004454584933

  Mulliken Charges: (a.u.)
   Center  Symbol    Alpha    Beta     Spin     Total
       1     H     0.46493  0.46493  0.00000  0.07015
       2     C     2.83828  2.83828  0.00000  0.32343
       3     O     4.15959  4.15959  0.00000 -0.31918
       4     O     4.16362  4.16362  0.00000 -0.32724
       5     C     2.96757  2.96757  0.00000  0.06486
       6     C     3.13401  3.13401  0.00000 -0.26802
       7     H     0.45445  0.45445  0.00000  0.09110
       8     H     0.46607  0.46607  0.00000  0.06785
       9     H     0.44597  0.44597  0.00000  0.10806
      10     H     0.45588  0.45588  0.00000  0.08825
      11     H     0.44963  0.44963  0.00000  0.10074

   Total alpha = 20.00000, Total beta = 20.00000, Total charge = -0.00000
