  ==> Input File <==

--------------------------------------------------------------------------
set {
	reference rhf
	basis cc-pvtz
}

set_num_threads( 4 )
memory 2 gb

molecule MOL {
0 1

H	 -1.052811	 -0.917523	 -0.287107
N	 -0.712187	 0.000026	 -0.093397
C	 0.734067	 -0.000020	 0.038424
H	 -1.147465	 0.302816	 0.751763
H	 1.140372	 -0.872115	 -0.458226
H	 1.140363	 0.872301	 -0.457869
H	 1.095085	 -0.000244	 1.065614

	symmetry c1
}
set optking {
	frozen_dihedral = ("
		1 2 3 7
	")
}

ee = optimize('scf')
oeprop('DIPOLE', 'QUADRUPOLE', 'MULLIKEN_CHARGES')
f=open( 'psi4out.xyz', 'w' )
f.write( "7  " )
f.write( str(ee) + "\n" )
f.write( MOL.save_string_xyz() )
f.close()
--------------------------------------------------------------------------

    Molecular point group: c1
  Charge       = 0
  Multiplicity = 1
  Basis Set: CC-PVTZ
  Basis Set:
  @DF-RHF Final Energy:   -95.25099687061604
    Total Energy =                        -95.2509968706160919
    Molecular point group: c1
  Basis Set: CC-PVTZ
  Basis Set:
  Basis Set: CC-PVTZ
  Basis Set:
  @DF-RHF Final Energy:   -95.25124276092771
    Total Energy =                        -95.2512427609276813
  Basis Set: CC-PVTZ
  Basis Set:
  Basis Set: CC-PVTZ
  Basis Set:
  @DF-RHF Final Energy:   -95.25130096090312
    Total Energy =                        -95.2513009609031513
  Basis Set: CC-PVTZ
  Basis Set:
  Basis Set: CC-PVTZ
  Basis Set:
  @DF-RHF Final Energy:   -95.25130343023105
    Total Energy =                        -95.2513034302311183
  Basis Set: CC-PVTZ
  Basis Set:
  Charge       = 0
  Multiplicity = 1
  Basis Set: CC-PVTZ
  Basis Set:

    Orbital Energies (a.u.)
    -----------------------

    Doubly Occupied:

       1A    -15.525788     2A    -11.235440     3A     -1.169121
       4A     -0.897637     5A     -0.667767     6A     -0.599644
       7A     -0.560572     8A     -0.519361     9A     -0.381506

  @DF-RHF Final Energy:   -95.25130365692090

   => Energetics <=

    Nuclear Repulsion Energy =             42.3409257259188152
    One-Electron Energy =                -212.0707871691231503
    Two-Electron Energy =                  74.4785577862834032
    DFT Exchange-Correlation Energy =       0.0000000000000000
    Empirical Dispersion Energy =           0.0000000000000000
    PCM Polarization Energy =               0.0000000000000000
    EFP Energy =                            0.0000000000000000
    Total Energy =                        -95.2513036569209248
    Molecular point group: c1
  Basis Set: CC-PVTZ
  Basis Set:

  -Total Gradient:
     Atom            X                  Y                   Z
    ------   -----------------  -----------------  -----------------
       1        0.000185226834     0.000460035974    -0.002487813908
       2       -0.000292447486     0.000093122342     0.003121675288
       3        0.000132588141    -0.002899578879    -0.000646428343
       4        0.000007279345     0.000002269545    -0.000002569226
       5       -0.000019459991     0.000004857694    -0.000001079670
       6        0.000008066740    -0.000004650594     0.000001114002
       7       -0.000021253582     0.002343943918     0.000015101858

  **** Optimization is complete! (in 5 steps) ****
    Final optimized geometry and variables:
    Molecular point group: c1

    Geometry (in Angstrom), charge = 0, multiplicity = 1:

    H           -1.066315690020    -0.897846415352    -0.270224220945
    N           -0.714706204222     0.012457651058    -0.076046938127
    C            0.736148607079     0.023518716072     0.035712389586
    H           -1.160801996756     0.354967825180     0.745002729011
    H            1.158305438044    -0.837666687164    -0.465899011773
    H            1.144858979838     0.907634122132    -0.440708297235
    H            1.089136259081     0.019786864755     1.063230291425

  Mulliken Charges: (a.u.)
   Center  Symbol    Alpha    Beta     Spin     Total
       1     H     0.42605  0.42605  0.00000  0.14791
       2     N     3.69066  3.69066  0.00000 -0.38131
       3     C     3.06847  3.06847  0.00000 -0.13694
       4     H     0.42681  0.42681  0.00000  0.14637
       5     H     0.45951  0.45951  0.00000  0.08098
       6     H     0.46053  0.46053  0.00000  0.07895
       7     H     0.46798  0.46798  0.00000  0.06404

   Total alpha =  9.00000, Total beta =  9.00000, Total charge = -0.00000
