  ==> Input File <==

--------------------------------------------------------------------------
set {
	reference rhf
	basis 6-31G*
}

set_num_threads( 4 )
memory 2 gb

molecule MOL {
0 1

H	 -2.499100	 -0.730091	 -0.745082
O	 -2.347518	 -0.290803	 0.079804
C	 -1.184022	 0.487508	 -0.006784
C	 0.062599	 -0.378592	 0.031606
H	 -1.176523	 1.099369	 -0.904519
H	 -1.187323	 1.153111	 0.844927
O	 1.171513	 0.459272	 -0.058250
H	 0.050699	 -1.089204	 -0.797170
H	 0.078739	 -0.954914	 0.954740
C	 2.306098	 -0.012397	 0.597027
H	 2.635162	 -0.965345	 0.186859
H	 3.090833	 0.718295	 0.458530
H	 2.125531	 -0.139109	 1.662452

	symmetry c1
}
set optking {
	frozen_dihedral = ("
		10 7 4 8
	")
}

ee = optimize('scf')
oeprop('DIPOLE', 'QUADRUPOLE', 'MULLIKEN_CHARGES')
f=open( 'psi4out.xyz', 'w' )
f.write( "13  " )
f.write( str(ee) + "\n" )
f.write( MOL.save_string_xyz() )
f.close()
--------------------------------------------------------------------------

    Molecular point group: c1
  Charge       = 0
  Multiplicity = 1
  Basis Set: 6-31G*
  Basis Set:
  @DF-RHF Final Energy:  -267.94895907249867
    Total Energy =                       -267.9489590724986101
    Molecular point group: c1
  Basis Set: 6-31G*
  Basis Set:
  Basis Set: 6-31G*
  Basis Set:
  @DF-RHF Final Energy:  -267.94904771326952
    Total Energy =                       -267.9490477132695787
  Basis Set: 6-31G*
  Basis Set:
  Basis Set: 6-31G*
  Basis Set:
  @DF-RHF Final Energy:  -267.94907799790712
    Total Energy =                       -267.9490779979071817
  Basis Set: 6-31G*
  Basis Set:
  Charge       = 0
  Multiplicity = 1
  Basis Set: 6-31G*
  Basis Set:

    Orbital Energies (a.u.)
    -----------------------

    Doubly Occupied:

       1A    -20.561052     2A    -20.559755     3A    -11.270643
       4A    -11.270383     5A    -11.268368     6A     -1.386554
       7A     -1.364554     8A     -1.018037     9A     -0.914378
      10A     -0.840743    11A     -0.708406    12A     -0.675136
      13A     -0.658444    14A     -0.633620    15A     -0.600005
      16A     -0.573288    17A     -0.537425    18A     -0.490048
      19A     -0.483711    20A     -0.444128    21A     -0.414660

  @DF-RHF Final Energy:  -267.94907839118184

   => Energetics <=

    Nuclear Repulsion Energy =            190.2301493050542263
    One-Electron Energy =                -743.0117791258604711
    Two-Electron Energy =                 284.8325514296243455
    DFT Exchange-Correlation Energy =       0.0000000000000000
    Empirical Dispersion Energy =           0.0000000000000000
    PCM Polarization Energy =               0.0000000000000000
    EFP Energy =                            0.0000000000000000
    Total Energy =                       -267.9490783911819562
    Molecular point group: c1
  Basis Set: 6-31G*
  Basis Set:

  -Total Gradient:
     Atom            X                  Y                   Z
    ------   -----------------  -----------------  -----------------
       1       -0.000027203459    -0.000022367535    -0.000000969604
       2       -0.000020787993    -0.000028602109    -0.000039776202
       3       -0.000001029239     0.000014771886     0.000025369760
       4        0.001505014626    -0.001618424151     0.002507168515
       5       -0.000003725755     0.000010735175    -0.000000384243
       6        0.000040564267     0.000009291788    -0.000002077455
       7        0.000426020443    -0.001002872592    -0.002819064705
       8       -0.001340668936     0.001649608385    -0.001370729145
       9       -0.000002206119    -0.000003031438     0.000004856667
      10       -0.000533335955     0.000978742275     0.001714996920
      11       -0.000020080933     0.000010276192    -0.000003629739
      12        0.000002387102     0.000003681749    -0.000003015722
      13       -0.000024948045    -0.000001809624    -0.000012745047

  **** Optimization is complete! (in 4 steps) ****
    Final optimized geometry and variables:
    Molecular point group: c1

    Geometry (in Angstrom), charge = 0, multiplicity = 1:

    H           -2.471135734916    -0.752279198088    -0.907952579567
    O           -2.336964172422    -0.324231243158    -0.074135139181
    C           -1.168500460467     0.450350022153    -0.123471277980
    C            0.075605033903    -0.420923676177    -0.067341889174
    H           -1.137200986788     1.072489668271    -1.013611211178
    H           -1.189995675723     1.107079418387     0.735105533684
    O            1.191703726441     0.410768806560    -0.175054524921
    H            0.055595933215    -1.133656479606    -0.892250351886
    H            0.082650053451    -0.982152825638     0.863008479512
    C            2.341393274702    -0.047113867660     0.465455415316
    H            2.679127757491    -0.996356468914     0.054390501820
    H            3.114535951223     0.693216523276     0.312658917993
    H            2.176887085055    -0.171152277105     1.533353313238

  Mulliken Charges: (a.u.)
   Center  Symbol    Alpha    Beta     Spin     Total
       1     H     0.28111  0.28111  0.00000  0.43778
       2     O     4.37106  4.37106  0.00000 -0.74212
       3     C     3.00448  3.00448  0.00000 -0.00896
       4     C     2.99711  2.99711  0.00000  0.00578
       5     H     0.42156  0.42156  0.00000  0.15689
       6     H     0.41091  0.41091  0.00000  0.17818
       7     O     4.30894  4.30894  0.00000 -0.61787
       8     H     0.43393  0.43393  0.00000  0.13215
       9     H     0.42326  0.42326  0.00000  0.15347
      10     C     3.08015  3.08015  0.00000 -0.16030
      11     H     0.42868  0.42868  0.00000  0.14264
      12     H     0.41147  0.41147  0.00000  0.17707
      13     H     0.42735  0.42735  0.00000  0.14531

   Total alpha = 21.00000, Total beta = 21.00000, Total charge = -0.00000
