  ==> Input File <==

--------------------------------------------------------------------------
set {
	reference rhf
	basis cc-pvtz
}

set_num_threads( 4 )
memory 2 gb

molecule MOL {
0 1

H	 -2.662722	 0.958741	 -0.622726
N	 -1.683587	 1.011794	 -0.439557
C	 -0.913394	 0.622911	 -1.606482
H	 -1.485080	 0.397066	 0.321167
C	 0.567484	 0.697701	 -1.313135
H	 -1.142833	 -0.380703	 -1.962377
H	 -1.134137	 1.312579	 -2.413750
O	 0.881195	 -0.248324	 -0.336237
H	 1.134648	 0.499500	 -2.221548
H	 0.820921	 1.696104	 -0.964008
C	 2.208068	 -0.234417	 0.074171
H	 2.725499	 -1.027054	 -0.446768
H	 2.688377	 0.712084	 -0.164856
H	 2.295137	 -0.403407	 1.144883

	symmetry c1
}
set optking {
	frozen_dihedral = ("
		5 8 11 13
	")
}

ee = optimize('scf')
oeprop('DIPOLE', 'QUADRUPOLE', 'MULLIKEN_CHARGES')
f=open( 'psi4out.xyz', 'w' )
f.write( "14  " )
f.write( str(ee) + "\n" )
f.write( MOL.save_string_xyz() )
f.close()
--------------------------------------------------------------------------

    Molecular point group: c1
  Charge       = 0
  Multiplicity = 1
  Basis Set: CC-PVTZ
  Basis Set:
  @DF-RHF Final Energy:  -248.22281839434032
    Total Energy =                       -248.2228183943404929
    Molecular point group: c1
  Basis Set: CC-PVTZ
  Basis Set:
  Basis Set: CC-PVTZ
  Basis Set:
  @DF-RHF Final Energy:  -248.22335810338581
    Total Energy =                       -248.2233581033859195
  Basis Set: CC-PVTZ
  Basis Set:
  Basis Set: CC-PVTZ
  Basis Set:
  @DF-RHF Final Energy:  -248.22347410447014
    Total Energy =                       -248.2234741044701423
  Basis Set: CC-PVTZ
  Basis Set:
  Charge       = 0
  Multiplicity = 1
  Basis Set: CC-PVTZ
  Basis Set:

    Orbital Energies (a.u.)
    -----------------------

    Doubly Occupied:

       1A    -20.548156     2A    -15.523164     3A    -11.264403
       4A    -11.263339     5A    -11.239486     6A     -1.380995
       7A     -1.175639     8A     -1.000509     9A     -0.907861
      10A     -0.815560    11A     -0.683896    12A     -0.674308
      13A     -0.645901    14A     -0.611937    15A     -0.607516
      16A     -0.541046    17A     -0.533995    18A     -0.497791
      19A     -0.473801    20A     -0.415921    21A     -0.383562

  @DF-RHF Final Energy:  -248.22347501771011

   => Energetics <=

    Nuclear Repulsion Energy =            194.4894621955510559
    One-Electron Energy =                -723.0483006812414715
    Two-Electron Energy =                 280.3353634679804145
    DFT Exchange-Correlation Energy =       0.0000000000000000
    Empirical Dispersion Energy =           0.0000000000000000
    PCM Polarization Energy =               0.0000000000000000
    EFP Energy =                            0.0000000000000000
    Total Energy =                       -248.2234750177100295
    Molecular point group: c1
  Basis Set: CC-PVTZ
  Basis Set:

  -Total Gradient:
     Atom            X                  Y                   Z
    ------   -----------------  -----------------  -----------------
       1        0.000010759988     0.000001200027    -0.000021618894
       2        0.000017184477    -0.000002734889    -0.000004488647
       3       -0.000018660971    -0.000044549242    -0.000003640055
       4        0.000013321154     0.000010778188    -0.000010703450
       5       -0.000442975393     0.001399733010     0.001421480103
       6       -0.000013098470     0.000000926806     0.000001657660
       7       -0.000014169177     0.000007595770    -0.000002863586
       8        0.000898508691    -0.002156353081    -0.002569027184
       9       -0.000013873832    -0.000032511269     0.000048271707
      10        0.000020001098     0.000013787105    -0.000008721885
      11       -0.001049653495     0.001647915536     0.003300516327
      12        0.000011168766    -0.000005458561     0.000003921961
      13        0.000631487455    -0.000863006271    -0.002148022535
      14       -0.000050000289     0.000022676872    -0.000006761521

  **** Optimization is complete! (in 4 steps) ****
    Final optimized geometry and variables:
    Molecular point group: c1

    Geometry (in Angstrom), charge = 0, multiplicity = 1:

    H           -2.876940410397     0.586617964378     0.103473852375
    N           -1.896492251515     0.646051370558     0.277300868029
    C           -1.135077742787     0.262541254238    -0.897019306308
    H           -1.686572043300     0.032067770408     1.035484755061
    C            0.348047804716     0.344968948748    -0.617055612266
    H           -1.362639378220    -0.741755321402    -1.252116048810
    H           -1.366347534136     0.952038601621    -1.701616170646
    O            0.670896550771    -0.598121390397     0.360964935353
    H            0.904860015863     0.148831191371    -1.532232489275
    H            0.598956965649     1.344246032677    -0.271214930286
    C            1.997908469684    -0.604729182197     0.785587446725
    H            2.551121857391    -1.403043201617     0.298615200129
    H            2.498311074250     0.330874573038     0.557096265881
    H            2.024438725582    -0.766834270861     1.854794231148

  Mulliken Charges: (a.u.)
   Center  Symbol    Alpha    Beta     Spin     Total
       1     H     0.43032  0.43032  0.00000  0.13936
       2     N     3.69426  3.69426  0.00000 -0.38852
       3     C     3.02357  3.02357  0.00000 -0.04713
       4     H     0.42225  0.42225  0.00000  0.15550
       5     C     2.96841  2.96841  0.00000  0.06318
       6     H     0.46470  0.46470  0.00000  0.07060
       7     H     0.45873  0.45873  0.00000  0.08254
       8     O     4.18360  4.18360  0.00000 -0.36719
       9     H     0.47061  0.47061  0.00000  0.05877
      10     H     0.46773  0.46773  0.00000  0.06454
      11     C     3.02825  3.02825  0.00000 -0.05650
      12     H     0.46285  0.46285  0.00000  0.07430
      13     H     0.47220  0.47220  0.00000  0.05560
      14     H     0.45253  0.45253  0.00000  0.09494

   Total alpha = 21.00000, Total beta = 21.00000, Total charge = -0.00000
