  ==> Input File <==

--------------------------------------------------------------------------
set {
	reference rhf
	basis 6-31G*
}

set_num_threads( 4 )
memory 2 gb

molecule MOL {
0 1

O	 1.205426	 1.294956	 0.172456
C	 1.122059	 0.121804	 -0.000188
C	 -0.157047	 -0.641140	 -0.244520
O	 2.172624	 -0.688929	 0.000216
C	 -1.398955	 0.244811	 -0.254447
H	 -0.044048	 -1.171166	 -1.186357
H	 -0.227829	 -1.409751	 0.520321
C	 -2.680084	 -0.552721	 -0.503476
H	 -1.287481	 1.009646	 -1.016749
H	 -1.471260	 0.771124	 0.692268
C	 -3.929439	 0.327058	 -0.513754
H	 -2.602018	 -1.078713	 -1.452852
H	 -2.785516	 -1.319284	 0.261597
H	 -3.869651	 1.082793	 -1.291534
H	 -4.823196	 -0.262474	 -0.692438
H	 -4.054795	 0.840008	 0.435355
C	 3.452279	 -0.082609	 0.000533
H	 3.583069	 0.529321	 -0.880332
H	 4.163299	 -0.894027	 0.001117
H	 3.582335	 0.529955	 0.881077

	symmetry c1
}
set optking {
	frozen_dihedral = ("
		1 2 4 17
	")
}

ee = optimize('scf')
oeprop('DIPOLE', 'QUADRUPOLE', 'MULLIKEN_CHARGES')
f=open( 'psi4out.xyz', 'w' )
f.write( "20  " )
f.write( str(ee) + "\n" )
f.write( MOL.save_string_xyz() )
f.close()
--------------------------------------------------------------------------

    Molecular point group: c1
  Charge       = 0
  Multiplicity = 1
  Basis Set: 6-31G*
  Basis Set:
  @DF-RHF Final Energy:  -383.94093954704164
    Total Energy =                       -383.9409395470415802
    Molecular point group: c1
  Basis Set: 6-31G*
  Basis Set:
  Basis Set: 6-31G*
  Basis Set:
  @DF-RHF Final Energy:  -383.93952532472150
    Total Energy =                       -383.9395253247217852
  Basis Set: 6-31G*
  Basis Set:
  Basis Set: 6-31G*
  Basis Set:
  @DF-RHF Final Energy:  -383.94101467036865
    Total Energy =                       -383.9410146703687587
  Basis Set: 6-31G*
  Basis Set:
  Basis Set: 6-31G*
  Basis Set:
  @DF-RHF Final Energy:  -383.94102248430119
    Total Energy =                       -383.9410224843011292
  Basis Set: 6-31G*
  Basis Set:
  Basis Set: 6-31G*
  Basis Set:
  @DF-RHF Final Energy:  -383.94102451713275
    Total Energy =                       -383.9410245171326324
  Basis Set: 6-31G*
  Basis Set:
  Basis Set: 6-31G*
  Basis Set:
  @DF-RHF Final Energy:  -383.94102606794826
    Total Energy =                       -383.9410260679483144
  Basis Set: 6-31G*
  Basis Set:
  Charge       = 0
  Multiplicity = 1
  Basis Set: 6-31G*
  Basis Set:

    Orbital Energies (a.u.)
    -----------------------

    Doubly Occupied:

       1A    -20.603285     2A    -20.545837     3A    -11.372515
       4A    -11.281209     5A    -11.235759     6A    -11.220373
       7A    -11.219389     8A    -11.210693     9A     -1.469114
      10A     -1.363032    11A     -1.088786    12A     -1.024341
      13A     -0.969151    14A     -0.886087    15A     -0.804103
      16A     -0.767581    17A     -0.696747    18A     -0.683520
      19A     -0.672065    20A     -0.646057    21A     -0.597849
      22A     -0.592189    23A     -0.578983    24A     -0.540180
      25A     -0.536850    26A     -0.522738    27A     -0.500828
      28A     -0.478304    29A     -0.473556    30A     -0.470607
      31A     -0.455667    32A     -0.436897

  @DF-RHF Final Energy:  -383.94102639773217

   => Energetics <=

    Nuclear Repulsion Energy =            381.0349860173596994
    One-Electron Energy =               -1278.0634389799556629
    Two-Electron Energy =                 513.0874265648636765
    DFT Exchange-Correlation Energy =       0.0000000000000000
    Empirical Dispersion Energy =           0.0000000000000000
    PCM Polarization Energy =               0.0000000000000000
    EFP Energy =                            0.0000000000000000
    Total Energy =                       -383.9410263977323439
    Molecular point group: c1
  Basis Set: 6-31G*
  Basis Set:

  -Total Gradient:
     Atom            X                  Y                   Z
    ------   -----------------  -----------------  -----------------
       1       -0.000503494499    -0.000358557382     0.003453684539
       2        0.000773721755     0.000500760809    -0.006584642814
       3        0.000004262467     0.000004759099     0.000154609606
       4       -0.000379094573    -0.000004408503     0.005717091704
       5        0.000004509407    -0.000012082377    -0.000026767890
       6        0.000011707877    -0.000001666905    -0.000026075995
       7        0.000001392281    -0.000003485869    -0.000026326588
       8       -0.000001336260    -0.000000705210     0.000005021302
       9        0.000000058470    -0.000004817303     0.000008180908
      10       -0.000001914131     0.000007371100     0.000012933549
      11        0.000003537757     0.000002288009    -0.000002357686
      12        0.000000656442    -0.000001314574    -0.000000971678
      13        0.000000698601     0.000001148534    -0.000000142538
      14        0.000000023199     0.000000991334     0.000000877252
      15        0.000002375513    -0.000000907319    -0.000000510944
      16       -0.000000846553    -0.000000744731     0.000000735033
      17        0.000088354701    -0.000137049242    -0.002754959908
      18       -0.000005265021    -0.000004024450     0.000027152195
      19       -0.000007035269    -0.000005053758     0.000018775981
      20        0.000007687832     0.000017498741     0.000023693972

  **** Optimization is complete! (in 7 steps) ****
    Final optimized geometry and variables:
    Molecular point group: c1

    Geometry (in Angstrom), charge = 0, multiplicity = 1:

    O            1.204787727100     1.297354564636     0.239797759559
    C            1.116510108496     0.117873632437     0.123131954861
    C           -0.164233901251    -0.648979733740    -0.098374420113
    O            2.159134420831    -0.700252237220     0.203653106968
    C           -1.409179612453     0.232612497654    -0.086119798804
    H           -0.065306929425    -1.174349841207    -1.044959124419
    H           -0.218784053276    -1.421287631359     0.663477041553
    C           -2.691043160232    -0.567999697630    -0.320971550146
    H           -1.310898336505     1.001949056999    -0.845420580933
    H           -1.470090737131     0.753424647949     0.864696445240
    C           -3.943280208319     0.307642931630    -0.309592373579
    H           -2.624437329761    -1.089009249841    -1.273984506807
    H           -2.783314568726    -1.338673518256     0.441633329811
    H           -3.896674023355     1.067426492511    -1.084323747979
    H           -4.837486988887    -0.283984407202    -0.478873803848
    H           -4.057199936720     0.815436605058     0.643734503315
    C            3.443681636954    -0.104534616814     0.221648686253
    H            3.590487720368     0.504556032351    -0.659034508697
    H            4.148085704890    -0.921640646805     0.232282663127
    H            3.568428912701     0.508516602363     1.102398877952

  Mulliken Charges: (a.u.)
   Center  Symbol    Alpha    Beta     Spin     Total
       1     O     4.28521  4.28521  0.00000 -0.57042
       2     C     2.60515  2.60515  0.00000  0.78970
       3     C     3.20845  3.20845  0.00000 -0.41690
       4     O     4.30746  4.30746  0.00000 -0.61492
       5     C     3.15118  3.15118  0.00000 -0.30237
       6     H     0.40133  0.40133  0.00000  0.19735
       7     H     0.40006  0.40006  0.00000  0.19987
       8     C     3.15423  3.15423  0.00000 -0.30846
       9     H     0.41129  0.41129  0.00000  0.17741
      10     H     0.41258  0.41258  0.00000  0.17484
      11     C     3.23931  3.23931  0.00000 -0.47862
      12     H     0.42304  0.42304  0.00000  0.15393
      13     H     0.42287  0.42287  0.00000  0.15427
      14     H     0.41994  0.41994  0.00000  0.16011
      15     H     0.41873  0.41873  0.00000  0.16253
      16     H     0.41997  0.41997  0.00000  0.16006
      17     C     3.09253  3.09253  0.00000 -0.18506
      18     H     0.41076  0.41076  0.00000  0.17848
      19     H     0.40830  0.40830  0.00000  0.18340
      20     H     0.40760  0.40760  0.00000  0.18479

   Total alpha = 32.00000, Total beta = 32.00000, Total charge =  0.00000
