  ==> Input File <==

--------------------------------------------------------------------------
set {
	reference rhf
	basis 6-31G*
}

set_num_threads( 4 )
memory 2 gb

molecule MOL {
0 1

H	 1.148083	 -1.049780	 0.784252
O	 1.319262	 -0.618148	 -0.041729
C	 0.709265	 0.639550	 -0.033818
C	 -0.487514	 0.750750	 -0.941527
H	 1.469721	 1.346427	 -0.345642
H	 0.418044	 0.922058	 0.977322
C	 -0.871674	 -0.162424	 -1.810606
H	 -1.048056	 1.667817	 -0.845280
H	 -0.327078	 -1.079218	 -1.946011
H	 -1.739555	 -0.016731	 -2.428289

	symmetry c1
}
set optking {
	frozen_dihedral = ("
		5 3 2 1
	")
}

ee = optimize('scf')
oeprop('DIPOLE', 'QUADRUPOLE', 'MULLIKEN_CHARGES')
f=open( 'psi4out.xyz', 'w' )
f.write( "10  " )
f.write( str(ee) + "\n" )
f.write( MOL.save_string_xyz() )
f.close()
--------------------------------------------------------------------------

    Molecular point group: c1
  Charge       = 0
  Multiplicity = 1
  Basis Set: 6-31G*
  Basis Set:
  @DF-RHF Final Energy:  -191.91437935867003
    Total Energy =                       -191.9143793586701463
    Molecular point group: c1
  Basis Set: 6-31G*
  Basis Set:
  Basis Set: 6-31G*
  Basis Set:
  @DF-RHF Final Energy:  -191.91492315556960
    Total Energy =                       -191.9149231555695962
  Basis Set: 6-31G*
  Basis Set:
  Basis Set: 6-31G*
  Basis Set:
  @DF-RHF Final Energy:  -191.91503835307850
    Total Energy =                       -191.9150383530784438
  Basis Set: 6-31G*
  Basis Set:
  Basis Set: 6-31G*
  Basis Set:
  @DF-RHF Final Energy:  -191.91504186959895
    Total Energy =                       -191.9150418695988378
  Basis Set: 6-31G*
  Basis Set:
  Charge       = 0
  Multiplicity = 1
  Basis Set: 6-31G*
  Basis Set:

    Orbital Energies (a.u.)
    -----------------------

    Doubly Occupied:

       1A    -20.559342     2A    -11.278740     3A    -11.224345
       4A    -11.211388     5A     -1.367365     6A     -1.053589
       7A     -0.924597     8A     -0.758966     9A     -0.701212
      10A     -0.651500    11A     -0.610174    12A     -0.575135
      13A     -0.511315    14A     -0.505099    15A     -0.445125
      16A     -0.357570

  @DF-RHF Final Energy:  -191.91504247223958

   => Energetics <=

    Nuclear Repulsion Energy =            119.2199800837389176
    One-Electron Energy =                -496.7991194124484764
    Two-Electron Energy =                 185.6640968564700245
    DFT Exchange-Correlation Energy =       0.0000000000000000
    Empirical Dispersion Energy =           0.0000000000000000
    PCM Polarization Energy =               0.0000000000000000
    EFP Energy =                            0.0000000000000000
    Total Energy =                       -191.9150424722395485
    Molecular point group: c1
  Basis Set: 6-31G*
  Basis Set:

  -Total Gradient:
     Atom            X                  Y                   Z
    ------   -----------------  -----------------  -----------------
       1        0.001392334463     0.000683419023     0.000784117637
       2       -0.001620301175    -0.000813092671    -0.000618121880
       3       -0.000137191270     0.000028874865    -0.001611058023
       4        0.000017102702     0.000043891520     0.000020750555
       5        0.000350283714     0.000090216808     0.001435897549
       6       -0.000006422227    -0.000010122140    -0.000007445419
       7        0.000032631048    -0.000000732776    -0.000032527085
       8       -0.000007673793    -0.000006279281     0.000002628020
       9       -0.000012519975    -0.000012746851     0.000009524356
      10       -0.000008243487    -0.000003428498     0.000016234289

  **** Optimization is complete! (in 5 steps) ****
    Final optimized geometry and variables:
    Molecular point group: c1

    Geometry (in Angstrom), charge = 0, multiplicity = 1:

    H            0.931626233869    -1.217294036764     1.345434405717
    O            1.111986528981    -0.713596833011     0.566765309432
    C            0.467703728548     0.529581401331     0.639295252498
    C           -0.701644056013     0.642923222463    -0.299723692463
    H            1.198324044462     1.300011906922     0.410566866336
    H            0.128632795375     0.730719543300     1.654238591303
    C           -1.118996361330    -0.305235751393    -1.112731110884
    H           -1.207876194454     1.595986798708    -0.276941142756
    H           -0.625869951000    -1.257948894697    -1.161930350252
    H           -1.963684718560    -0.152597619507    -1.760466805369

  Mulliken Charges: (a.u.)
   Center  Symbol    Alpha    Beta     Spin     Total
       1     H     0.27757  0.27757  0.00000  0.44485
       2     O     4.36931  4.36931  0.00000 -0.73863
       3     C     3.00290  3.00290  0.00000 -0.00579
       4     C     3.08910  3.08910  0.00000 -0.17820
       5     H     0.41396  0.41396  0.00000  0.17208
       6     H     0.42669  0.42669  0.00000  0.14661
       7     C     3.19237  3.19237  0.00000 -0.38475
       8     H     0.41281  0.41281  0.00000  0.17438
       9     H     0.40146  0.40146  0.00000  0.19707
      10     H     0.41381  0.41381  0.00000  0.17237

   Total alpha = 16.00000, Total beta = 16.00000, Total charge = -0.00000
