  ==> Input File <==

--------------------------------------------------------------------------
set {
	reference rhf
	basis 6-31G*
}

set_num_threads( 4 )
memory 2 gb

molecule MOL {
0 1

H	 2.845955	 -0.323208	 0.022310
C	 1.900140	 0.071967	 -0.330070
C	 0.778463	 -0.508087	 0.517968
H	 1.782469	 -0.206877	 -1.370777
H	 1.922247	 1.149867	 -0.254252
N	 -0.540928	 0.005139	 0.058438
H	 0.716718	 -1.581298	 0.454712
H	 0.859711	 -0.198647	 1.550086
O	 -0.787822	 1.153362	 0.258191
O	 -1.264264	 -0.774553	 -0.483193

	symmetry c1
}
set optking {
	frozen_dihedral = ("
		9 6 3 2
	")
}

ee = optimize('scf')
oeprop('DIPOLE', 'QUADRUPOLE', 'MULLIKEN_CHARGES')
f=open( 'psi4out.xyz', 'w' )
f.write( "10  " )
f.write( str(ee) + "\n" )
f.write( MOL.save_string_xyz() )
f.close()
--------------------------------------------------------------------------

    Molecular point group: c1
  Charge       = 0
  Multiplicity = 1
  Basis Set: 6-31G*
  Basis Set:
  @DF-RHF Final Energy:  -282.70038477290359
    Total Energy =                       -282.7003847729035897
    Molecular point group: c1
  Basis Set: 6-31G*
  Basis Set:
  Basis Set: 6-31G*
  Basis Set:
  @DF-RHF Final Energy:  -282.69814807111572
    Total Energy =                       -282.6981480711157815
  Basis Set: 6-31G*
  Basis Set:
  Basis Set: 6-31G*
  Basis Set:
  @DF-RHF Final Energy:  -282.70044518460401
    Total Energy =                       -282.7004451846039501
  Basis Set: 6-31G*
  Basis Set:
  Basis Set: 6-31G*
  Basis Set:
  @DF-RHF Final Energy:  -282.70049584962004
    Total Energy =                       -282.7004958496201539
  Basis Set: 6-31G*
  Basis Set:
  Charge       = 0
  Multiplicity = 1
  Basis Set: 6-31G*
  Basis Set:

    Orbital Energies (a.u.)
    -----------------------

    Doubly Occupied:

       1A    -20.604090     2A    -20.600396     3A    -15.848656
       4A    -11.303764     5A    -11.252889     6A     -1.632300
       7A     -1.417899     8A     -1.127728     9A     -0.967432
      10A     -0.837729    11A     -0.760730    12A     -0.736328
      13A     -0.725681    14A     -0.657648    15A     -0.590625
      16A     -0.561816    17A     -0.548043    18A     -0.485465
      19A     -0.477964    20A     -0.449771

  @DF-RHF Final Energy:  -282.70049630170161

   => Energetics <=

    Nuclear Repulsion Energy =            186.2447687860749852
    One-Electron Energy =                -754.7166261885828362
    Two-Electron Energy =                 285.7713611008060752
    DFT Exchange-Correlation Energy =       0.0000000000000000
    Empirical Dispersion Energy =           0.0000000000000000
    PCM Polarization Energy =               0.0000000000000000
    EFP Energy =                            0.0000000000000000
    Total Energy =                       -282.7004963017017189
    Molecular point group: c1
  Basis Set: 6-31G*
  Basis Set:

  -Total Gradient:
     Atom            X                  Y                   Z
    ------   -----------------  -----------------  -----------------
       1       -0.000001255776     0.000002381920     0.000002451665
       2       -0.000018727119    -0.000032777602    -0.000023828292
       3        0.000000483532    -0.000026205579     0.000052400276
       4       -0.000012273615    -0.000005335140     0.000020138228
       5        0.000016661737     0.000023522313    -0.000013392156
       6        0.000114213932     0.000276716415    -0.000026069004
       7       -0.000003299450    -0.000014848573     0.000016656252
       8       -0.000000487947     0.000013319061    -0.000025615449
       9       -0.000036614016    -0.000166007936     0.000046429783
      10       -0.000058701275    -0.000070764878    -0.000049171303

  **** Optimization is complete! (in 5 steps) ****
    Final optimized geometry and variables:
    Molecular point group: c1

    Geometry (in Angstrom), charge = 0, multiplicity = 1:

    H            2.840726061720    -0.311157922066     0.023564579943
    C            1.890012976251     0.074558062736    -0.325345919834
    C            0.774644454300    -0.509266730419     0.530974379410
    H            1.767201679686    -0.209817161255    -1.363788413558
    H            1.904482017082     1.153613418950    -0.252873703144
    N           -0.540221991524     0.003171708340     0.061210649472
    H            0.718580245256    -1.582655130461     0.463430241585
    H            0.857359932409    -0.196219020114     1.560641954368
    O           -0.770865325828     1.156769312415     0.261069693076
    O           -1.264954367405    -0.761187613916    -0.496083502682

  Mulliken Charges: (a.u.)
   Center  Symbol    Alpha    Beta     Spin     Total
       1     H     0.40487  0.40487  0.00000  0.19026
       2     C     3.25769  3.25769  0.00000 -0.51538
       3     C     3.09080  3.09080  0.00000 -0.18160
       4     H     0.40114  0.40114  0.00000  0.19772
       5     H     0.39394  0.39394  0.00000  0.21213
       6     N     3.21957  3.21957  0.00000  0.56085
       7     H     0.38601  0.38601  0.00000  0.22799
       8     H     0.38763  0.38763  0.00000  0.22474
       9     O     4.23066  4.23066  0.00000 -0.46132
      10     O     4.22770  4.22770  0.00000 -0.45539

   Total alpha = 20.00000, Total beta = 20.00000, Total charge =  0.00000
