  ==> Input File <==

--------------------------------------------------------------------------
set {
	reference rhf
	basis 6-31G*
}

set_num_threads( 1 )
memory 2 gb

molecule MOL {
0 1

O	 0.074228	 1.262779	 -0.000085
C	 0.028650	 0.075053	 -0.000277
C	 -1.233602	 -0.752807	 0.000328
O	 1.109162	 -0.694619	 -0.000298
C	 -2.501530	 0.091881	 0.000126
H	 -1.193807	 -1.406641	 -0.865785
H	 -1.193516	 -1.405779	 0.867015
H	 -2.545121	 0.729328	 -0.874513
H	 -3.377167	 -0.548497	 0.000561
H	 -2.544818	 0.730135	 0.874258
C	 1.266747	 -1.581021	 1.092884
H	 1.324342	 -1.031996	 2.021684
H	 2.189688	 -2.109922	 0.913147
H	 0.440301	 -2.275374	 1.141175

	symmetry c1
}
set optking {
	frozen_dihedral = ("
		4 2 3 6
	")
}

ee = energy('scf')
oeprop('DIPOLE', 'QUADRUPOLE', 'MULLIKEN_CHARGES')
f=open( 'psi4out.xyz', 'w' )
f.write( "14  " )
f.write( str(ee) + "\n" )
f.write( MOL.save_string_xyz() )
f.close()
--------------------------------------------------------------------------

    Molecular point group: c1

    Geometry (in Angstrom), charge = 0, multiplicity = 1:

       Center              X                  Y                   Z               Mass
    ------------   -----------------  -----------------  -----------------  -----------------
           O          0.270732396024     1.538649556565    -0.195650925248    15.994914619560
           C          0.225154396024     0.350923556565    -0.195842925248    12.000000000000
           C         -1.037097603976    -0.476936443435    -0.195237925248    12.000000000000
           O          1.305666396024    -0.418748443435    -0.195863925248    15.994914619560
           C         -2.305025603976     0.367751556565    -0.195439925248    12.000000000000
           H         -0.997302603976    -1.130770443435    -1.061350925248     1.007825032070
           H         -0.997011603976    -1.129908443435     0.671449074752     1.007825032070
           H         -2.348616603976     1.005198556565    -1.070078925248     1.007825032070
           H         -3.180662603976    -0.272626443435    -0.195004925248     1.007825032070
           H         -2.348313603976     1.006005556565     0.678692074752     1.007825032070
           C          1.463251396024    -1.305150443435     0.897318074752    12.000000000000
           H          1.520846396024    -0.756125443435     1.826118074752     1.007825032070
           H          2.386192396024    -1.834051443435     0.717581074752     1.007825032070
           H          0.636805396024    -1.999503443435     0.945609074752     1.007825032070

  Charge       = 0
  Multiplicity = 1
  Basis Set: 6-31G*
  Basis Set:

    Orbital Energies (a.u.)
    -----------------------

    Doubly Occupied:

       1A    -20.593779     2A    -20.554049     3A    -11.374857
       4A    -11.298008     5A    -11.241784     6A    -11.219042
       7A     -1.465893     8A     -1.370296     9A     -1.062515
      10A     -0.986337    11A     -0.899311    12A     -0.769260
      13A     -0.702297    14A     -0.681141    15A     -0.680182
      16A     -0.632256    17A     -0.610257    18A     -0.563378
      19A     -0.547745    20A     -0.524513    21A     -0.513215
      22A     -0.487517    23A     -0.459199    24A     -0.435110

  @DF-RHF Final Energy:  -305.84668554884911

   => Energetics <=

    Nuclear Repulsion Energy =            248.8152715593575977
    One-Electron Energy =                -909.9799542763626050
    Two-Electron Energy =                 355.3179971681562392
    DFT Exchange-Correlation Energy =       0.0000000000000000
    Empirical Dispersion Energy =           0.0000000000000000
    PCM Polarization Energy =               0.0000000000000000
    EFP Energy =                            0.0000000000000000
    Total Energy =                       -305.8466855488487681

  Mulliken Charges: (a.u.)
   Center  Symbol    Alpha    Beta     Spin     Total
       1     O     4.25925  4.25925  0.00000 -0.51849
       2     C     2.61093  2.61093  0.00000  0.77815
       3     C     3.22155  3.22155  0.00000 -0.44309
       4     O     4.30394  4.30394  0.00000 -0.60789
       5     C     3.23743  3.23743  0.00000 -0.47485
       6     H     0.39830  0.39830  0.00000  0.20341
       7     H     0.40677  0.40677  0.00000  0.18646
       8     H     0.40791  0.40791  0.00000  0.18417
       9     H     0.41900  0.41900  0.00000  0.16200
      10     H     0.41038  0.41038  0.00000  0.17924
      11     C     3.09798  3.09798  0.00000 -0.19596
      12     H     0.41054  0.41054  0.00000  0.17891
      13     H     0.39852  0.39852  0.00000  0.20295
      14     H     0.41750  0.41750  0.00000  0.16500

   Total alpha = 24.00000, Total beta = 24.00000, Total charge =  0.00000
