  ==> Input File <==

--------------------------------------------------------------------------
set {
	reference rhf
	basis cc-pvtz
}

set_num_threads( 4 )
memory 2 gb

molecule MOL {
0 1

H	 -1.088256	 -1.364742	 0.152233
O	 -1.432053	 -0.565244	 -0.200812
C	 -0.727158	 0.534527	 0.310686
C	 0.680222	 0.664433	 -0.252229
H	 -1.306802	 1.408001	 0.044211
H	 -0.690821	 0.490158	 1.397609
C	 0.730408	 0.772103	 -1.773391
H	 1.152187	 1.534265	 0.192599
H	 1.250275	 -0.203633	 0.067381
H	 0.221440	 1.662200	 -2.126668
H	 1.753524	 0.828660	 -2.124941
H	 0.267653	 -0.089866	 -2.244372

	symmetry c1
}
set optking {
	frozen_dihedral = ("
		8 4 3 2
	")
}

ee = optimize('scf')
oeprop('DIPOLE', 'QUADRUPOLE', 'MULLIKEN_CHARGES')
f=open( 'psi4out.xyz', 'w' )
f.write( "12  " )
f.write( str(ee) + "\n" )
f.write( MOL.save_string_xyz() )
f.close()
--------------------------------------------------------------------------

    Molecular point group: c1
  Charge       = 0
  Multiplicity = 1
  Basis Set: CC-PVTZ
  Basis Set:
  @DF-RHF Final Energy:  -193.19073180836085
    Total Energy =                       -193.1907318083609653
    Molecular point group: c1
  Basis Set: CC-PVTZ
  Basis Set:
  Basis Set: CC-PVTZ
  Basis Set:
  @DF-RHF Final Energy:  -193.19089222180170
    Total Energy =                       -193.1908922218018176
  Basis Set: CC-PVTZ
  Basis Set:
  Basis Set: CC-PVTZ
  Basis Set:
  @DF-RHF Final Energy:  -193.19092059558264
    Total Energy =                       -193.1909205955826678
  Basis Set: CC-PVTZ
  Basis Set:
  Basis Set: CC-PVTZ
  Basis Set:
  @DF-RHF Final Energy:  -193.19092282091106
    Total Energy =                       -193.1909228209109131
  Basis Set: CC-PVTZ
  Basis Set:
  Charge       = 0
  Multiplicity = 1
  Basis Set: CC-PVTZ
  Basis Set:

    Orbital Energies (a.u.)
    -----------------------

    Doubly Occupied:

       1A    -20.546976     2A    -11.266152     3A    -11.218085
       4A    -11.205921     5A     -1.364917     6A     -1.049779
       7A     -0.922567     8A     -0.814436     9A     -0.682452
      10A     -0.639992    11A     -0.626194    12A     -0.568004
      13A     -0.530265    14A     -0.521045    15A     -0.485287
      16A     -0.468053    17A     -0.433441

  @DF-RHF Final Energy:  -193.19092297123484

   => Energetics <=

    Nuclear Repulsion Energy =            133.2788333848650382
    One-Electron Energy =                -526.2523810287677861
    Two-Electron Energy =                 199.7826246726679642
    DFT Exchange-Correlation Energy =       0.0000000000000000
    Empirical Dispersion Energy =           0.0000000000000000
    PCM Polarization Energy =               0.0000000000000000
    EFP Energy =                            0.0000000000000000
    Total Energy =                       -193.1909229712347837
    Molecular point group: c1
  Basis Set: CC-PVTZ
  Basis Set:

  -Total Gradient:
     Atom            X                  Y                   Z
    ------   -----------------  -----------------  -----------------
       1        0.000004822769     0.000008626004     0.000002094415
       2       -0.000277943283     0.000446349139    -0.000605856971
       3        0.000310496631    -0.000476668518     0.000664208774
       4        0.000305966398    -0.000519455026     0.000681904707
       5       -0.000005519835    -0.000013547715    -0.000008872250
       6       -0.000002193459     0.000002369684     0.000001805695
       7        0.000017257847     0.000010194401    -0.000013533079
       8       -0.000337733530     0.000550084977    -0.000734904472
       9        0.000007027594     0.000001017517    -0.000001548674
      10        0.000005055608     0.000005164481     0.000004297224
      11       -0.000020801797     0.000000046150     0.000008745237
      12       -0.000006434942    -0.000014181095     0.000001659392

  **** Optimization is complete! (in 5 steps) ****
    Final optimized geometry and variables:
    Molecular point group: c1

    Geometry (in Angstrom), charge = 0, multiplicity = 1:

    H           -0.825754023573    -1.670293493840     0.571842072849
    O           -1.222566184418    -0.869304734441     0.280677842010
    C           -0.506437806478     0.228527740248     0.780756961290
    C            0.904276396880     0.335376034898     0.220901336967
    H           -1.079789017606     1.104076052331     0.502997217190
    H           -0.471038064663     0.196450525234     1.866781424536
    C            0.949335850263     0.447623751161    -1.299458769226
    H            1.374570847591     1.208928899753     0.663992958233
    H            1.484932284841    -0.525857511412     0.544550054827
    H            0.419122510061     1.331753883538    -1.637716170050
    H            1.971636297404     0.518923637045    -1.652235474311
    H            0.488756435020    -0.411569982745    -1.768913929109

  Mulliken Charges: (a.u.)
   Center  Symbol    Alpha    Beta     Spin     Total
       1     H     0.39456  0.39456  0.00000  0.21089
       2     O     4.20353  4.20353  0.00000 -0.40706
       3     C     2.97474  2.97474  0.00000  0.05052
       4     C     3.09250  3.09250  0.00000 -0.18501
       5     H     0.45931  0.45931  0.00000  0.08137
       6     H     0.46205  0.46205  0.00000  0.07590
       7     C     3.14408  3.14408  0.00000 -0.28815
       8     H     0.45453  0.45453  0.00000  0.09094
       9     H     0.45909  0.45909  0.00000  0.08182
      10     H     0.45605  0.45605  0.00000  0.08791
      11     H     0.45056  0.45056  0.00000  0.09888
      12     H     0.44900  0.44900  0.00000  0.10200

   Total alpha = 17.00000, Total beta = 17.00000, Total charge =  0.00000
