  ==> Input File <==

--------------------------------------------------------------------------
set {
	reference rhf
	basis 6-31G*
}

set_num_threads( 1 )
memory 2 gb

molecule MOL {
0 1

O	 2.025183	 0.132352	 -1.022283
C	 2.701189	 0.057885	 -0.047330
C	 2.943722	 1.171266	 0.942795
O	 3.347903	 -1.046386	 0.304773
C	 2.208823	 2.461625	 0.586405
H	 2.657075	 0.796392	 1.919777
H	 4.017622	 1.333058	 0.990314
C	 2.527326	 3.632078	 1.522935
H	 1.139064	 2.275332	 0.581152
H	 2.469270	 2.738525	 -0.429428
C	 2.041513	 3.455821	 2.964472
H	 2.070373	 4.528180	 1.109511
H	 3.601036	 3.814167	 1.523471
C	 2.285183	 4.693769	 3.829984
H	 0.977149	 3.225821	 2.957619
H	 2.535381	 2.603008	 3.424665
C	 1.808409	 4.527188	 5.273961
H	 1.782594	 5.549833	 3.383002
H	 3.348007	 4.930629	 3.828554
C	 2.051917	 5.769210	 6.130573
H	 0.746750	 4.289467	 5.277186
H	 2.312909	 3.674611	 5.723821
H	 1.703666	 5.620309	 7.147999
H	 1.531411	 6.632673	 5.725975
H	 3.109582	 6.013348	 6.175480
C	 4.728119	 -1.109107	 -0.004993
H	 4.882018	 -1.033965	 -1.071845
H	 5.068212	 -2.067527	 0.355250
H	 5.265056	 -0.311663	 0.488280

	symmetry c1
}
set optking {
	frozen_dihedral = ("
		21 17 14 11,
		17 14 11 15,
		15 11 8 5,
		6 3 5 9,
		11 8 5 9,
		2 4 26 27,
		6 3 2 1
	")
}

ee = energy('scf')
oeprop('DIPOLE', 'QUADRUPOLE', 'MULLIKEN_CHARGES')
f=open( 'psi4out.xyz', 'w' )
f.write( "29  " )
f.write( str(ee) + "\n" )
f.write( MOL.save_string_xyz() )
f.close()
--------------------------------------------------------------------------

    Molecular point group: c1

    Geometry (in Angstrom), charge = 0, multiplicity = 1:

       Center              X                  Y                   Z               Mass
    ------------   -----------------  -----------------  -----------------  -----------------
           O         -0.599853237549    -1.994600624260    -2.871413033481    15.994914619560
           C          0.076152762451    -2.069067624260    -1.896460033481    12.000000000000
           C          0.318685762451    -0.955686624260    -0.906335033481    12.000000000000
           O          0.722866762451    -3.173338624260    -1.544357033481    15.994914619560
           C         -0.416213237549     0.334672375740    -1.262725033481    12.000000000000
           H          0.032038762451    -1.330560624260     0.070646966519     1.007825032070
           H          1.392585762451    -0.793894624260    -0.858816033481     1.007825032070
           C         -0.097710237549     1.505125375740    -0.326195033481    12.000000000000
           H         -1.485972237549     0.148379375740    -1.267978033481     1.007825032070
           H         -0.155766237549     0.611572375740    -2.278558033481     1.007825032070
           C         -0.583523237549     1.328868375740     1.115341966519    12.000000000000
           H         -0.554663237549     2.401227375740    -0.739619033481     1.007825032070
           H          0.975999762451     1.687214375740    -0.325659033481     1.007825032070
           C         -0.339853237549     2.566816375740     1.980853966519    12.000000000000
           H         -1.647887237549     1.098868375740     1.108488966519     1.007825032070
           H         -0.089655237549     0.476055375740     1.575534966519     1.007825032070
           C         -0.816627237549     2.400235375740     3.424830966519    12.000000000000
           H         -0.842442237549     3.422880375740     1.533871966519     1.007825032070
           H          0.722970762451     2.803676375740     1.979423966519     1.007825032070
           C         -0.573119237549     3.642257375740     4.281442966519    12.000000000000
           H         -1.878286237549     2.162514375740     3.428055966519     1.007825032070
           H         -0.312127237549     1.547658375740     3.874690966519     1.007825032070
           H         -0.921370237549     3.493356375740     5.298868966519     1.007825032070
           H         -1.093625237549     4.505720375740     3.876844966519     1.007825032070
           H          0.484545762451     3.886395375740     4.326349966519     1.007825032070
           C          2.103082762451    -3.236059624260    -1.854123033481    12.000000000000
           H          2.256981762451    -3.160917624260    -2.920975033481     1.007825032070
           H          2.443175762451    -4.194479624260    -1.493880033481     1.007825032070
           H          2.640019762451    -2.438615624260    -1.360850033481     1.007825032070

  Charge       = 0
  Multiplicity = 1
  Basis Set: 6-31G*
  Basis Set:

    Orbital Energies (a.u.)
    -----------------------

    Doubly Occupied:

       1A    -20.587922     2A    -20.554661     3A    -11.373478
       4A    -11.296302     5A    -11.236690     6A    -11.220473
       7A    -11.219251     8A    -11.217569     9A    -11.217072
      10A    -11.215890    11A    -11.210139    12A     -1.463781
      13A     -1.367814    14A     -1.099250    15A     -1.066750
      16A     -1.015381    17A     -0.982054    18A     -0.940001
      19A     -0.867011    20A     -0.803281    21A     -0.792893
      22A     -0.764352    23A     -0.699462    24A     -0.680810
      25A     -0.676817    26A     -0.652675    27A     -0.628449
      28A     -0.618736    29A     -0.599658    30A     -0.587724
      31A     -0.565274    32A     -0.559055    33A     -0.541892
      34A     -0.532269    35A     -0.518959    36A     -0.501416
      37A     -0.490300    38A     -0.482097    39A     -0.472979
      40A     -0.467079    41A     -0.463675    42A     -0.451367
      43A     -0.442499    44A     -0.431012

  @DF-RHF Final Energy:  -501.02102577174435

   => Energetics <=

    Nuclear Repulsion Energy =            613.8185749780299147
    One-Electron Energy =               -1898.5265418205729020
    Two-Electron Energy =                 783.6869410707993211
    DFT Exchange-Correlation Energy =       0.0000000000000000
    Empirical Dispersion Energy =           0.0000000000000000
    PCM Polarization Energy =               0.0000000000000000
    EFP Energy =                            0.0000000000000000
    Total Energy =                       -501.0210257717437798

  Mulliken Charges: (a.u.)
   Center  Symbol    Alpha    Beta     Spin     Total
       1     O     4.25769  4.25769  0.00000 -0.51539
       2     C     2.61397  2.61397  0.00000  0.77206
       3     C     3.21719  3.21719  0.00000 -0.43437
       4     O     4.30910  4.30910  0.00000 -0.61820
       5     C     3.15386  3.15386  0.00000 -0.30772
       6     H     0.39666  0.39666  0.00000  0.20669
       7     H     0.40892  0.40892  0.00000  0.18216
       8     C     3.15624  3.15624  0.00000 -0.31248
       9     H     0.41148  0.41148  0.00000  0.17704
      10     H     0.40988  0.40988  0.00000  0.18024
      11     C     3.15488  3.15488  0.00000 -0.30975
      12     H     0.41807  0.41807  0.00000  0.16386
      13     H     0.42541  0.42541  0.00000  0.14919
      14     C     3.15025  3.15025  0.00000 -0.30050
      15     H     0.42181  0.42181  0.00000  0.15638
      16     H     0.42443  0.42443  0.00000  0.15114
      17     C     3.15149  3.15149  0.00000 -0.30297
      18     H     0.42303  0.42303  0.00000  0.15395
      19     H     0.42449  0.42449  0.00000  0.15103
      20     C     3.23938  3.23938  0.00000 -0.47875
      21     H     0.42238  0.42238  0.00000  0.15525
      22     H     0.42363  0.42363  0.00000  0.15274
      23     H     0.41901  0.41901  0.00000  0.16199
      24     H     0.42138  0.42138  0.00000  0.15725
      25     H     0.42203  0.42203  0.00000  0.15594
      26     C     3.09403  3.09403  0.00000 -0.18806
      27     H     0.40867  0.40867  0.00000  0.18267
      28     H     0.40008  0.40008  0.00000  0.19983
      29     H     0.42060  0.42060  0.00000  0.15881

   Total alpha = 44.00000, Total beta = 44.00000, Total charge = -0.00000
