  ==> Input File <==

--------------------------------------------------------------------------
set {
	reference rhf
	basis 6-31G*
}

set_num_threads( 4 )
memory 2 gb

molecule MOL {
0 1

H	 -1.070890	 -1.366565	 0.180696
O	 -1.422729	 -0.573567	 -0.196946
C	 -0.731407	 0.539437	 0.309156
C	 0.680193	 0.672443	 -0.251532
H	 -1.319765	 1.404033	 0.030086
H	 -0.700012	 0.506517	 1.397677
C	 1.768237	 0.680995	 0.822614
H	 0.856076	 -0.146012	 -0.943517
H	 0.732394	 1.593604	 -0.827969
H	 1.791818	 -0.256129	 1.370736
H	 2.749937	 0.818684	 0.381849
H	 1.612452	 1.486168	 1.536540

	symmetry c1
}
set optking {
	frozen_dihedral = ("
		8 4 3 2
	")
}

ee = optimize('scf')
oeprop('DIPOLE', 'QUADRUPOLE', 'MULLIKEN_CHARGES')
f=open( 'psi4out.xyz', 'w' )
f.write( "12  " )
f.write( str(ee) + "\n" )
f.write( MOL.save_string_xyz() )
f.close()
--------------------------------------------------------------------------

    Molecular point group: c1
  Charge       = 0
  Multiplicity = 1
  Basis Set: 6-31G*
  Basis Set:
  @DF-RHF Final Energy:  -193.10318945944911
    Total Energy =                       -193.1031894594491121
    Molecular point group: c1
  Basis Set: 6-31G*
  Basis Set:
  Basis Set: 6-31G*
  Basis Set:
  @DF-RHF Final Energy:  -193.10363011431446
    Total Energy =                       -193.1036301143144271
  Basis Set: 6-31G*
  Basis Set:
  Basis Set: 6-31G*
  Basis Set:
  @DF-RHF Final Energy:  -193.10372602844467
    Total Energy =                       -193.1037260284446688
  Basis Set: 6-31G*
  Basis Set:
  Basis Set: 6-31G*
  Basis Set:
  @DF-RHF Final Energy:  -193.10372888991051
    Total Energy =                       -193.1037288899105420
  Basis Set: 6-31G*
  Basis Set:
  Charge       = 0
  Multiplicity = 1
  Basis Set: 6-31G*
  Basis Set:

    Orbital Energies (a.u.)
    -----------------------

    Doubly Occupied:

       1A    -20.552139     2A    -11.267935     3A    -11.219129
       4A    -11.217355     5A     -1.358681     6A     -1.050053
       7A     -0.919981     8A     -0.817786     9A     -0.691100
      10A     -0.637643    11A     -0.594405    12A     -0.572052
      13A     -0.564663    14A     -0.508500    15A     -0.488168
      16A     -0.463897    17A     -0.428842

  @DF-RHF Final Energy:  -193.10372904970117

   => Energetics <=

    Nuclear Repulsion Energy =            130.9674143969860722
    One-Electron Energy =                -521.4376290577567943
    Two-Electron Energy =                 197.3664856110694927
    DFT Exchange-Correlation Energy =       0.0000000000000000
    Empirical Dispersion Energy =           0.0000000000000000
    PCM Polarization Energy =               0.0000000000000000
    EFP Energy =                            0.0000000000000000
    Total Energy =                       -193.1037290497012009
    Molecular point group: c1
  Basis Set: 6-31G*
  Basis Set:

  -Total Gradient:
     Atom            X                  Y                   Z
    ------   -----------------  -----------------  -----------------
       1        0.000005387868    -0.000011914019     0.000000846308
       2        0.000038570755    -0.000083121679     0.000147855448
       3       -0.000045069823     0.000165849637    -0.000234585429
       4        0.000102196437    -0.000179673791     0.000293191997
       5        0.000022417885     0.000006438750    -0.000026795517
       6        0.000003509489    -0.000027907611    -0.000003765467
       7       -0.000006058804    -0.000037125936    -0.000020252353
       8       -0.000058546665     0.000118836119    -0.000160201051
       9       -0.000045997728     0.000029214004     0.000018216403
      10       -0.000003076101     0.000017429883    -0.000002220243
      11       -0.000003027701    -0.000022842033     0.000009697754
      12       -0.000010305608     0.000024816677    -0.000021987850

  **** Optimization is complete! (in 5 steps) ****
    Final optimized geometry and variables:
    Molecular point group: c1

    Geometry (in Angstrom), charge = 0, multiplicity = 1:

    H           -1.050039987075    -1.662089883971    -0.077413697849
    O           -1.479363220494    -0.867182407196    -0.361557553449
    C           -0.780938816893     0.244261031733     0.139842638631
    C            0.644861099940     0.381635697354    -0.431698333334
    H           -1.383507020693     1.102074332732    -0.125393805386
    H           -0.747513178493     0.203379158372     1.227349056410
    C            1.738040181935     0.389699403190     0.637851672006
    H            0.810330717599    -0.438632150689    -1.123794701874
    H            0.718767618400     1.289209265269    -1.023695493418
    H            1.720167490785    -0.523203387280     1.227605216912
    H            2.723518477256     0.475485139038     0.191664062533
    H            1.612551110639     1.224062468655     1.322145284767

  Mulliken Charges: (a.u.)
   Center  Symbol    Alpha    Beta     Spin     Total
       1     H     0.28391  0.28391  0.00000  0.43218
       2     O     4.36967  4.36967  0.00000 -0.73934
       3     C     2.99552  2.99552  0.00000  0.00896
       4     C     3.17508  3.17508  0.00000 -0.35017
       5     H     0.41365  0.41365  0.00000  0.17270
       6     H     0.42844  0.42844  0.00000  0.14311
       7     C     3.24374  3.24374  0.00000 -0.48748
       8     H     0.41351  0.41351  0.00000  0.17298
       9     H     0.41592  0.41592  0.00000  0.16817
      10     H     0.42384  0.42384  0.00000  0.15232
      11     H     0.41701  0.41701  0.00000  0.16599
      12     H     0.41971  0.41971  0.00000  0.16058

   Total alpha = 17.00000, Total beta = 17.00000, Total charge =  0.00000
