  ==> Input File <==

--------------------------------------------------------------------------
set {
	reference rhf
	basis 6-31G*
}

set_num_threads( 4 )
memory 2 gb

molecule MOL {
0 1

H	 3.089270	 -1.380733	 0.000000
O	 2.178328	 -1.639175	 0.000000
C	 1.368216	 -0.558384	 0.000000
C	 0.202981	 -0.501768	 0.753873
C	 1.735248	 0.518321	 -0.788305
H	 -0.080839	 -1.340782	 1.366686
C	 -0.593723	 0.630362	 0.719033
H	 2.635043	 0.475893	 -1.371096
C	 0.932034	 1.647945	 -0.817512
H	 -1.493137	 0.662512	 1.306741
C	 -0.234581	 1.711057	 -0.065982
C	 1.320474	 2.808272	 -1.662276
H	 -0.851935	 2.591434	 -0.094542
O	 2.296894	 2.852127	 -2.339938
H	 0.630248	 3.656506	 -1.625731

	symmetry c1
}
set optking {
	frozen_dihedral = ("
		4 3 2 1
	")
}

ee = optimize('scf')
oeprop('DIPOLE', 'QUADRUPOLE', 'MULLIKEN_CHARGES')
f=open( 'psi4out.xyz', 'w' )
f.write( "15  " )
f.write( str(ee) + "\n" )
f.write( MOL.save_string_xyz() )
f.close()
--------------------------------------------------------------------------

    Molecular point group: c1
  Charge       = 0
  Multiplicity = 1
  Basis Set: 6-31G*
  Basis Set:
  @DF-RHF Final Energy:  -418.28373824365133
    Total Energy =                       -418.2837382436513280
    Molecular point group: c1
  Basis Set: 6-31G*
  Basis Set:
  Basis Set: 6-31G*
  Basis Set:
  @DF-RHF Final Energy:  -418.28537691765064
    Total Energy =                       -418.2853769176507512
  Basis Set: 6-31G*
  Basis Set:
  Basis Set: 6-31G*
  Basis Set:
  @DF-RHF Final Energy:  -418.28450818675930
    Total Energy =                       -418.2845081867592398
  Basis Set: 6-31G*
  Basis Set:
  Basis Set: 6-31G*
  Basis Set:
  @DF-RHF Final Energy:  -418.28551940191744
    Total Energy =                       -418.2855194019173268
  Basis Set: 6-31G*
  Basis Set:
  Basis Set: 6-31G*
  Basis Set:
  @DF-RHF Final Energy:  -418.28553537335000
    Total Energy =                       -418.2855353733509673
  Basis Set: 6-31G*
  Basis Set:
  Charge       = 0
  Multiplicity = 1
  Basis Set: 6-31G*
  Basis Set:

    Orbital Energies (a.u.)
    -----------------------

    Doubly Occupied:

       1A    -20.595099     2A    -20.566600     3A    -11.335100
       4A    -11.308692     5A    -11.253072     6A    -11.251206
       7A    -11.249699     8A    -11.245962     9A    -11.244772
      10A     -1.413364    11A     -1.407140    12A     -1.170118
      13A     -1.049422    14A     -1.026131    15A     -0.899794
      16A     -0.850880    17A     -0.797127    18A     -0.750975
      19A     -0.699903    20A     -0.669530    21A     -0.660045
      22A     -0.629413    23A     -0.616718    24A     -0.607202
      25A     -0.560927    26A     -0.549979    27A     -0.533423
      28A     -0.512954    29A     -0.486121    30A     -0.425777
      31A     -0.352833    32A     -0.332681

  @DF-RHF Final Energy:  -418.28553797467913

   => Energetics <=

    Nuclear Repulsion Energy =            403.0318688538299625
    One-Electron Energy =               -1368.5294977397516050
    Two-Electron Energy =                 547.2120909112420577
    DFT Exchange-Correlation Energy =       0.0000000000000000
    Empirical Dispersion Energy =           0.0000000000000000
    PCM Polarization Energy =               0.0000000000000000
    EFP Energy =                            0.0000000000000000
    Total Energy =                       -418.2855379746795279
    Molecular point group: c1
  Basis Set: 6-31G*
  Basis Set:

  -Total Gradient:
     Atom            X                  Y                   Z
    ------   -----------------  -----------------  -----------------
       1       -0.000092437050     0.000121898307     0.002875036769
       2        0.000662511272     0.000239466461    -0.002813401937
       3       -0.001897732232    -0.001249868581    -0.001506934506
       4        0.001204535206     0.000719041388     0.001546832165
       5        0.000086082730     0.000036867875    -0.000097060281
       6        0.000025110480    -0.000039871579     0.000002197749
       7        0.000025712823     0.000130730562    -0.000011386115
       8       -0.000049801341     0.000023773790     0.000033982645
       9        0.000072680381     0.000037803694     0.000028781748
      10        0.000027629933    -0.000024023947    -0.000005490703
      11       -0.000054229570    -0.000075737525    -0.000000523678
      12       -0.000081714901     0.000039127513     0.000018941211
      13        0.000040264666     0.000029541132    -0.000051687724
      14        0.000027597219    -0.000007163519    -0.000010440132
      15        0.000003790384     0.000018414435    -0.000008847207

  **** Optimization is complete! (in 6 steps) ****
    Final optimized geometry and variables:
    Molecular point group: c1

    Geometry (in Angstrom), charge = 0, multiplicity = 1:

    H            1.974089417146    -2.282148101168     0.543660378460
    O            1.050672600380    -2.493136530794     0.531910163418
    C            0.301452434553    -1.361142500811     0.477294397313
    C           -0.858525141384    -1.313266551693     1.243094931931
    C            0.657073379572    -0.284678335337    -0.309205841004
    H           -1.108609008969    -2.160972453019     1.853536221656
    C           -1.667017293575    -0.194003638939     1.204405217970
    H            1.547790590940    -0.308425176676    -0.909990986999
    C           -0.152861159021     0.846652093589    -0.332674132531
    H           -2.564481666613    -0.165528978699     1.795032546977
    C           -1.316154911367     0.893793905745     0.417358382800
    C            0.229896584621     2.009556685157    -1.172859379900
    H           -1.941401341866     1.768946602197     0.391600634708
    O            1.216080656911     2.064112572295    -1.837028718514
    H           -0.470225241714     2.849724816115    -1.147312009716

  Mulliken Charges: (a.u.)
   Center  Symbol    Alpha    Beta     Spin     Total
       1     H     0.26958  0.26958  0.00000  0.46083
       2     O     4.38211  4.38211  0.00000 -0.76423
       3     C     2.80308  2.80308  0.00000  0.39384
       4     C     3.11046  3.11046  0.00000 -0.22091
       5     C     3.12609  3.12609  0.00000 -0.25219
       6     H     0.38591  0.38591  0.00000  0.22819
       7     C     3.09858  3.09858  0.00000 -0.19716
       8     H     0.37824  0.37824  0.00000  0.24352
       9     C     3.04821  3.04821  0.00000 -0.09642
      10     H     0.39257  0.39257  0.00000  0.21487
      11     C     3.11179  3.11179  0.00000 -0.22359
      12     C     2.83216  2.83216  0.00000  0.33568
      13     H     0.39257  0.39257  0.00000  0.21486
      14     O     4.24782  4.24782  0.00000 -0.49564
      15     H     0.42083  0.42083  0.00000  0.15834

   Total alpha = 32.00000, Total beta = 32.00000, Total charge = -0.00000
