  ==> Input File <==

--------------------------------------------------------------------------
set {
	reference rhf
	basis cc-pvtz
}

set_num_threads( 4 )
memory 2 gb

molecule MOL {
0 1

H	 -1.106518	 -2.003079	 -1.120962
C	 -1.024878	 -1.044518	 -1.623097
O	 -0.775228	 0.000056	 -0.739966
H	 -1.972485	 -0.831710	 -2.097339
H	 -0.269576	 -1.123009	 -2.398333
C	 0.406133	 -0.000384	 0.036994
C	 1.526415	 -0.003194	 -0.997339
C	 0.498772	 1.259027	 0.900673
C	 0.495883	 -1.257378	 0.904465
H	 1.452279	 0.872071	 -1.630204
H	 1.451276	 -0.881020	 -1.626529
H	 2.497919	 -0.002741	 -0.517601
H	 0.368981	 2.144239	 0.289753
H	 1.470064	 1.313479	 1.377660
H	 -0.248448	 1.271586	 1.684297
H	 0.363971	 -2.144195	 0.296316
H	 1.467114	 -1.312636	 1.381470
H	 -0.251246	 -1.265768	 1.688235

	symmetry c1
}
set optking {
	frozen_dihedral = ("
		2 3 6 7
	")
}

ee = optimize('scf')
oeprop('DIPOLE', 'QUADRUPOLE', 'MULLIKEN_CHARGES')
f=open( 'psi4out.xyz', 'w' )
f.write( "18  " )
f.write( str(ee) + "\n" )
f.write( MOL.save_string_xyz() )
f.close()
--------------------------------------------------------------------------

    Molecular point group: c1
  Charge       = 0
  Multiplicity = 1
  Basis Set: CC-PVTZ
  Basis Set:
  @DF-RHF Final Energy:  -271.26838705637374
    Total Energy =                       -271.2683870563733421
    Molecular point group: c1
  Basis Set: CC-PVTZ
  Basis Set:
  Basis Set: CC-PVTZ
  Basis Set:
  @DF-RHF Final Energy:  -271.27307549928776
    Total Energy =                       -271.2730754992874154
  Basis Set: CC-PVTZ
  Basis Set:
  Basis Set: CC-PVTZ
  Basis Set:
  @DF-RHF Final Energy:  -271.27599997767408
    Total Energy =                       -271.2759999776742461
  Basis Set: CC-PVTZ
  Basis Set:
  Basis Set: CC-PVTZ
  Basis Set:
  @DF-RHF Final Energy:  -271.27670302188409
    Total Energy =                       -271.2767030218836339
  Basis Set: CC-PVTZ
  Basis Set:
  Basis Set: CC-PVTZ
  Basis Set:
  @DF-RHF Final Energy:  -271.27674655856612
    Total Energy =                       -271.2767465585662876
  Basis Set: CC-PVTZ
  Basis Set:
  Basis Set: CC-PVTZ
  Basis Set:
  @DF-RHF Final Energy:  -271.27675285505643
    Total Energy =                       -271.2767528550564293
  Basis Set: CC-PVTZ
  Basis Set:
  Basis Set: CC-PVTZ
  Basis Set:
  @DF-RHF Final Energy:  -271.27675391425873
    Total Energy =                       -271.2767539142587339
  Basis Set: CC-PVTZ
  Basis Set:
  Charge       = 0
  Multiplicity = 1
  Basis Set: CC-PVTZ
  Basis Set:

    Orbital Energies (a.u.)
    -----------------------

    Doubly Occupied:

       1A    -20.540638     2A    -11.280131     3A    -11.258054
       4A    -11.207305     5A    -11.206839     6A    -11.201799
       7A     -1.373641     8A     -1.074666     9A     -0.946743
      10A     -0.940806    11A     -0.913194    12A     -0.753499
      13A     -0.656643    14A     -0.646651    15A     -0.639407
      16A     -0.593862    17A     -0.575963    18A     -0.553308
      19A     -0.534331    20A     -0.524873    21A     -0.515070
      22A     -0.488310    23A     -0.487938    24A     -0.440773
      25A     -0.407695

  @DF-RHF Final Energy:  -271.27675488659656

   => Energetics <=

    Nuclear Repulsion Energy =            272.6612080971193564
    One-Electron Energy =                -908.3516422343343493
    Two-Electron Energy =                 364.4136792506185998
    DFT Exchange-Correlation Energy =       0.0000000000000000
    Empirical Dispersion Energy =           0.0000000000000000
    PCM Polarization Energy =               0.0000000000000000
    EFP Energy =                            0.0000000000000000
    Total Energy =                       -271.2767548865963931
    Molecular point group: c1
  Basis Set: CC-PVTZ
  Basis Set:

  -Total Gradient:
     Atom            X                  Y                   Z
    ------   -----------------  -----------------  -----------------
       1       -0.000006693408     0.000001801579    -0.000007437872
       2        0.000009573060     0.000022093788    -0.000052147894
       3       -0.000028447826    -0.000091436597     0.000053788574
       4        0.000001285642     0.000000802845    -0.000000365401
       5       -0.000015374365    -0.000001372391     0.000002290548
       6       -0.000001007416     0.000103031053    -0.000023823750
       7        0.000012215930    -0.000042870947    -0.000020430143
       8        0.000010839810    -0.000005897479     0.000008662574
       9        0.000016553565    -0.000007940620     0.000017376467
      10        0.000004647154     0.000006304586     0.000001108891
      11        0.000003429995     0.000008001723     0.000002549097
      12       -0.000004717010    -0.000004329827     0.000001912275
      13        0.000012291784    -0.000007418761     0.000001981286
      14       -0.000004428849     0.000000485061     0.000015094334
      15       -0.000008217582     0.000011742568    -0.000009893382
      16       -0.000002091295     0.000012898716     0.000005238435
      17        0.000001269716    -0.000002322894    -0.000000956647
      18       -0.000001128905    -0.000003572402     0.000005052605

  **** Optimization is complete! (in 8 steps) ****
    Final optimized geometry and variables:
    Molecular point group: c1

    Geometry (in Angstrom), charge = 0, multiplicity = 1:

    H           -1.344378361302    -1.777619690774    -0.860469151931
    C           -1.312251146092    -0.792996191826    -1.315613849896
    O           -0.969675175044     0.203561425776    -0.408413107506
    H           -2.303143499558    -0.557607749118    -1.677360657129
    H           -0.641033660635    -0.827170759450    -2.167575503420
    C            0.273550163972     0.149491952513     0.263041968015
    C            1.439886063478     0.173658171209    -0.726657581386
    C            0.288015142060     1.415318512594     1.112948952375
    C            0.357034870149    -1.083476219628     1.165143445824
    H            1.339155056620     1.010568102856    -1.407266142036
    H            1.498244522191    -0.736782295092    -1.309990237422
    H            2.377602402286     0.278719602789    -0.194282597903
    H            0.211074994081     2.290737483922     0.480620853913
    H            1.201764046517     1.484567305837     1.691086202061
    H           -0.553574478826     1.416864888078     1.793962540631
    H            0.398795352828    -2.003159032398     0.595133491830
    H            1.250851489022    -1.039633328127     1.775991551850
    H           -0.503251181307    -1.126964768215     1.822086540880

  Mulliken Charges: (a.u.)
   Center  Symbol    Alpha    Beta     Spin     Total
       1     H     0.47005  0.47005  0.00000  0.05990
       2     C     3.04424  3.04424  0.00000 -0.08849
       3     O     4.18986  4.18986  0.00000 -0.37972
       4     H     0.44026  0.44026  0.00000  0.11948
       5     H     0.46950  0.46950  0.00000  0.06101
       6     C     2.87281  2.87281  0.00000  0.25439
       7     C     3.16542  3.16542  0.00000 -0.33084
       8     C     3.14153  3.14153  0.00000 -0.28306
       9     C     3.16346  3.16346  0.00000 -0.32693
      10     H     0.44498  0.44498  0.00000  0.11003
      11     H     0.44933  0.44933  0.00000  0.10135
      12     H     0.44805  0.44805  0.00000  0.10390
      13     H     0.44899  0.44899  0.00000  0.10201
      14     H     0.45938  0.45938  0.00000  0.08125
      15     H     0.44863  0.44863  0.00000  0.10273
      16     H     0.44948  0.44948  0.00000  0.10105
      17     H     0.44874  0.44874  0.00000  0.10252
      18     H     0.44529  0.44529  0.00000  0.10942

   Total alpha = 25.00000, Total beta = 25.00000, Total charge = -0.00000
