                              Psi4 1.0.54 Driver

  ==> Input File <==

--------------------------------------------------------------------------
set {
	reference rhf
	basis cc-pvtz
}

set_num_threads( 4 )
memory 2 gb

molecule MOL {
0 1

H	 -3.268214	 -0.875720	 0.463107
C	 -2.806015	 0.000007	 0.024886
N	 -1.391133	 0.000016	 0.301321
H	 -3.029448	 0.000055	 -1.045738
H	 -3.268126	 0.875758	 0.463150
C	 -0.895464	 -1.317802	 0.634854
C	 -1.029874	 0.959514	 1.322295
H	 -1.369667	 -1.704512	 1.541737
H	 -1.134507	 -1.997522	 -0.174419
C	 0.607981	 -1.290157	 0.837099
H	 -1.367034	 1.942322	 1.014885
H	 -1.513236	 0.728044	 2.276040
C	 0.473571	 0.987159	 1.524539
H	 0.945140	 -2.272965	 1.144509
H	 1.091343	 -1.058686	 -0.116647
N	 0.969240	 -0.330659	 1.858073
H	 0.712614	 1.666879	 2.333813
H	 0.947774	 1.373870	 0.617656
C	 2.384122	 -0.330650	 2.134508
H	 2.701168	 -1.320172	 2.439287
H	 2.602310	 0.353893	 2.944666
H	 2.985546	 -0.034274	 1.270443

	symmetry c1
}
set optking {
	frozen_dihedral = ("
		6 3 2 4
	")
}

ee,wfn = optimize('scf', return_wfn=True)
oeprop( wfn, 'DIPOLE', 'QUADRUPOLE', 'MULLIKEN_CHARGES')
f=open( 'psi4out.xyz', 'w' )
f.write( "22  " )
f.write( str(ee) + "\n" )
f.write( MOL.save_string_xyz() )
f.close()
--------------------------------------------------------------------------

    Molecular point group: c1
  Charge       = 0
  Multiplicity = 1
  Basis Set: CC-PVTZ
  Basis Set:
  @DF-RHF Final Energy:  -344.34501303168389
    Total Energy =                       -344.3450130316839477
    Molecular point group: c1
  Basis Set: CC-PVTZ
  Basis Set:
  Basis Set: CC-PVTZ
  Basis Set:
  @DF-RHF Final Energy:  -344.34561255072754
    Total Energy =                       -344.3456125507276511
  Basis Set: CC-PVTZ
  Basis Set:
  Basis Set: CC-PVTZ
  Basis Set:
  @DF-RHF Final Energy:  -344.34572347816510
    Total Energy =                       -344.3457234781651550
  Basis Set: CC-PVTZ
  Basis Set:
  Basis Set: CC-PVTZ
  Basis Set:
  @DF-RHF Final Energy:  -344.34572655636549
    Total Energy =                       -344.3457265563653209
  Basis Set: CC-PVTZ
  Basis Set:
  Charge       = 0
  Multiplicity = 1
  Basis Set: CC-PVTZ
  Basis Set:

    Orbital Energies (a.u.)
    -----------------------

    Doubly Occupied:

       1A    -15.537124     2A    -15.536086     3A    -11.237311
       4A    -11.237234     5A    -11.236437     6A    -11.236424
       7A    -11.233970     8A    -11.233869     9A     -1.255671
      10A     -1.204119    11A     -1.025234    12A     -0.992063
      13A     -0.912518    14A     -0.867212    15A     -0.836711
      16A     -0.755570    17A     -0.666151    18A     -0.636253
      19A     -0.631200    20A     -0.625003    21A     -0.621764
      22A     -0.581453    23A     -0.550630    24A     -0.549606
      25A     -0.541797    26A     -0.520172    27A     -0.497692
      28A     -0.487819    29A     -0.464914    30A     -0.456240
      31A     -0.351459    32A     -0.346136

  @DF-RHF Final Energy:  -344.34572690258290

   => Energetics <=

    Nuclear Repulsion Energy =            421.5789866783073876
    One-Electron Energy =               -1302.1177350747650507
    Two-Electron Energy =                 536.1930214938747667
    DFT Exchange-Correlation Energy =       0.0000000000000000
    Empirical Dispersion Energy =           0.0000000000000000
    PCM Polarization Energy =               0.0000000000000000
    EFP Energy =                            0.0000000000000000
    Total Energy =                       -344.3457269025828964
    Molecular point group: c1
  Basis Set: CC-PVTZ
  Basis Set:

  -Total Gradient:
     Atom            X                  Y                   Z
    ------   -----------------  -----------------  -----------------
       1        0.000003969058     0.000004517807     0.000011016108
       2       -0.000197935348    -0.005061537287     0.001040400810
       3        0.000802216178     0.000397780677    -0.004115201085
       4        0.000006596795     0.004146514917     0.000069618866
       5       -0.000008664259     0.000005579739     0.000013606415
       6       -0.000607104270     0.000549223436     0.002999631397
       7       -0.000016356034    -0.000026939597    -0.000051201653
       8       -0.000006498595    -0.000003258272     0.000006616360
       9        0.000001811958    -0.000007549866     0.000004750596
      10        0.000012644879    -0.000018990521     0.000000374729
      11        0.000002542117    -0.000000765256     0.000006687656
      12       -0.000003998283    -0.000000914916     0.000005258006
      13        0.000018726021     0.000017353469    -0.000000960985
      14        0.000002916361    -0.000001110851     0.000001753461
      15       -0.000003888784    -0.000001073888    -0.000001185670
      16       -0.000007618834    -0.000001616239     0.000003516592
      17        0.000001915998    -0.000000549615     0.000002176086
      18       -0.000002029139     0.000000648866    -0.000000373986
      19       -0.000001214193     0.000002690050     0.000004024134
      20        0.000000771539     0.000000346447    -0.000000429135
      21        0.000002541612    -0.000000032024    -0.000000116065
      22       -0.000001344778    -0.000000317077     0.000000037363

  **** Optimization is complete! (in 5 steps) ****
    Final optimized geometry and variables:
    Molecular point group: c1

    Geometry (in Angstrom), charge = 0, multiplicity = 1:

    H           -3.132292642061    -0.664772728836    -0.606568345105
    C           -2.616050659239     0.188201290705    -1.040919139494
    N           -1.192026878383     0.182769950750    -0.756131889235
    H           -2.797433211720     0.204591808427    -2.109926683986
    H           -3.076878548914     1.081221749585    -0.636605778734
    C           -0.696732949228    -1.140389119212    -0.439963624617
    C           -0.810602700712     1.122785982735     0.278463705647
    H           -1.158697395965    -1.529074558603     0.471907863241
    H           -0.953426325830    -1.815044233361    -1.248739511188
    C            0.809946333942    -1.126616800345    -0.264276429053
    H           -1.142876653037     2.113409842528    -0.006552871308
    H           -1.276787626466     0.879692980989     1.237746094549
    C            0.696574462148     1.141182743410     0.454027607906
    H            1.144696449491    -2.115565286306     0.026318541028
    H            1.278335948745    -0.888220315733    -1.223844013209
    N            1.195202840912    -0.181640547586     0.760986112169
    H            0.952548214309     1.809999367640     1.267453586873
    H            1.154490540721     1.538618804332    -0.456756149694
    C            2.614969008806    -0.189181032442     1.009438383416
    H            2.935040892197    -1.183617628371     1.294732853662
    H            2.851322499584     0.483966009539     1.824146268437
    H            3.200411274721     0.116930823675     0.137694929636

  Mulliken Charges: (a.u.)
   Center  Symbol    Alpha    Beta     Spin     Total
       1     H     0.46372  0.46372  0.00000  0.07255
       2     C     3.09404  3.09404  0.00000 -0.18808
       3     N     3.61630  3.61630  0.00000 -0.23261
       4     H     0.44953  0.44953  0.00000  0.10094
       5     H     0.45824  0.45824  0.00000  0.08353
       6     C     3.03639  3.03639  0.00000 -0.07279
       7     C     3.03476  3.03476  0.00000 -0.06952
       8     H     0.46762  0.46762  0.00000  0.06476
       9     H     0.45322  0.45322  0.00000  0.09356
      10     C     3.03708  3.03708  0.00000 -0.07416
      11     H     0.45372  0.45372  0.00000  0.09257
      12     H     0.46830  0.46830  0.00000  0.06339
      13     C     3.03686  3.03686  0.00000 -0.07371
      14     H     0.45403  0.45403  0.00000  0.09194
      15     H     0.46834  0.46834  0.00000  0.06332
      16     N     3.61285  3.61285  0.00000 -0.22569
      17     H     0.45401  0.45401  0.00000  0.09198
      18     H     0.46851  0.46851  0.00000  0.06297
      19     C     3.09843  3.09843  0.00000 -0.19686
      20     H     0.45200  0.45200  0.00000  0.09601
      21     H     0.45201  0.45201  0.00000  0.09598
      22     H     0.47005  0.47005  0.00000  0.05990

   Total alpha = 32.00000, Total beta = 32.00000, Total charge = -0.00000

*** Psi4 exiting successfully. Buy a developer a beer!
