                              Psi4 1.0.54 Driver

  ==> Input File <==

--------------------------------------------------------------------------
set {
	reference rhf
	basis cc-pvtz
}

set_num_threads( 4 )
memory 2 gb

molecule MOL {
0 1

H	 -3.642953	 0.223825	 0.000000
C	 -2.571844	 0.155001	 0.000000
C	 -1.957580	 -1.086132	 0.000000
C	 -1.807160	 1.303787	 0.000000
H	 -2.551493	 -1.979629	 0.000000
C	 -0.582719	 -1.174294	 0.000000
H	 -2.279934	 2.266806	 0.000000
C	 -0.427220	 1.213406	 0.000000
H	 -0.094904	 -2.127556	 0.000000
C	 0.196908	 -0.024061	 0.000000
H	 0.151409	 2.115254	 0.000000
C	 1.690041	 -0.173233	 0.000000
C	 2.289490	 -1.560792	 -0.000000
O	 2.392993	 0.786569	 0.000000
H	 1.973448	 -2.115299	 0.875568
H	 3.363973	 -1.470140	 -0.000000
H	 1.973448	 -2.115299	 -0.875568

	symmetry c1
}
set optking {
	frozen_dihedral = ("
		13 12 10 8
	")
}

ee,wfn = optimize('scf', return_wfn=True)
oeprop( wfn, 'DIPOLE', 'QUADRUPOLE', 'MULLIKEN_CHARGES')
f=open( 'psi4out.xyz', 'w' )
f.write( "17  " )
f.write( str(ee) + "\n" )
f.write( MOL.save_string_xyz() )
f.close()
--------------------------------------------------------------------------

    Molecular point group: c1
  Charge       = 0
  Multiplicity = 1
  Basis Set: CC-PVTZ
  Basis Set:
  @DF-RHF Final Energy:  -382.60407420221907
    Total Energy =                       -382.6040742022191807
    Molecular point group: c1
  Basis Set: CC-PVTZ
  Basis Set:
  Basis Set: CC-PVTZ
  Basis Set:
  @DF-RHF Final Energy:  -382.60551291452572
    Total Energy =                       -382.6055129145256615
  Basis Set: CC-PVTZ
  Basis Set:
  Basis Set: CC-PVTZ
  Basis Set:
  @DF-RHF Final Energy:  -382.60580562037478
    Total Energy =                       -382.6058056203743263
  Basis Set: CC-PVTZ
  Basis Set:
  Basis Set: CC-PVTZ
  Basis Set:
  @DF-RHF Final Energy:  -382.60582190761693
    Total Energy =                       -382.6058219076167006
  Basis Set: CC-PVTZ
  Basis Set:
  Basis Set: CC-PVTZ
  Basis Set:
  @DF-RHF Final Energy:  -382.60582457894151
    Total Energy =                       -382.6058245789413377
  Basis Set: CC-PVTZ
  Basis Set:
  Charge       = 0
  Multiplicity = 1
  Basis Set: CC-PVTZ
  Basis Set:

    Orbital Energies (a.u.)
    -----------------------

    Doubly Occupied:

       1A    -20.540364     2A    -11.327786     3A    -11.246961
       4A    -11.244548     5A    -11.242569     6A    -11.238921
       7A    -11.238864     8A    -11.236577     9A    -11.228842
      10A     -1.401866    11A     -1.171172    12A     -1.053428
      13A     -1.030718    14A     -0.998781    15A     -0.864608
      16A     -0.838801    17A     -0.763512    18A     -0.713623
      19A     -0.658491    20A     -0.651970    21A     -0.628800
      22A     -0.609428    23A     -0.602707    24A     -0.601572
      25A     -0.554959    26A     -0.529097    27A     -0.522431
      28A     -0.503521    29A     -0.497855    30A     -0.414401
      31A     -0.351058    32A     -0.346777

  @DF-RHF Final Energy:  -382.60582475184088

   => Energetics <=

    Nuclear Repulsion Energy =            404.5052349292740814
    One-Electron Energy =               -1320.5121023307385713
    Two-Electron Energy =                 533.4010426496234913
    DFT Exchange-Correlation Energy =       0.0000000000000000
    Empirical Dispersion Energy =           0.0000000000000000
    PCM Polarization Energy =               0.0000000000000000
    EFP Energy =                            0.0000000000000000
    Total Energy =                       -382.6058247518409416
    Molecular point group: c1
  Basis Set: CC-PVTZ
  Basis Set:

  -Total Gradient:
     Atom            X                  Y                   Z
    ------   -----------------  -----------------  -----------------
       1       -0.000004514724    -0.000007640458     0.000000352911
       2        0.000008498414     0.000034805081     0.000000577443
       3        0.000022236700    -0.000014604418    -0.000005297170
       4       -0.000018999196    -0.000013135518    -0.000002323442
       5       -0.000007370035     0.000004638844    -0.000000785317
       6       -0.000021906491    -0.000014679727     0.000005358992
       7        0.000002486097     0.000000588327     0.000000345018
       8       -0.000001940891    -0.000022925417    -0.000002371620
       9        0.000000059476     0.000002792507     0.000002305293
      10       -0.000035516256     0.000019102478     0.000066129976
      11        0.000005716386     0.000002799973    -0.000000490540
      12        0.000088688819     0.000035037426    -0.000197358272
      13       -0.000017724247     0.000015864530     0.000060624527
      14       -0.000029040009    -0.000046171205     0.000070797868
      15        0.000002982301    -0.000006405812     0.000005249526
      16        0.000008191036    -0.000007131761     0.000001151247
      17       -0.000001847380     0.000017065150    -0.000004266439

  **** Optimization is complete! (in 6 steps) ****
    Final optimized geometry and variables:
    Molecular point group: c1

    Geometry (in Angstrom), charge = 0, multiplicity = 1:

    H           -3.633708193228     0.343958461015     0.000085613279
    C           -2.564851325796     0.245718332469     0.000026079357
    C           -1.987591148857    -1.007671662659     0.000093942887
    C           -1.765401033910     1.376655782549    -0.000133974635
    H           -2.603894900830    -1.885849320772     0.000202445871
    C           -0.610173841578    -1.132515570464     0.000018802593
    H           -2.213565728389     2.351487695176    -0.000201643702
    C           -0.393583580457     1.250429612108    -0.000216271021
    H           -0.178579130489    -2.113331465764     0.000063627119
    C            0.198187646710    -0.006916364057    -0.000117166183
    H            0.236178271524     2.116571662389    -0.000359559078
    C            1.696834593991    -0.090739799353    -0.000310935747
    C            2.355251529189    -1.451334425272    -0.000206097389
    O            2.357308176886     0.898504765558     0.000682910056
    H            2.062678464445    -2.018804643203     0.875236567201
    H            3.424996726951    -1.315008649608     0.000298075039
    H            2.063469400590    -2.018519910342    -0.876094749779

  Mulliken Charges: (a.u.)
   Center  Symbol    Alpha    Beta     Spin     Total
       1     H     0.42019  0.42019  0.00000  0.15963
       2     C     3.07203  3.07203  0.00000 -0.14407
       3     C     3.07821  3.07821  0.00000 -0.15642
       4     C     3.07505  3.07505  0.00000 -0.15010
       5     H     0.42241  0.42241  0.00000  0.15517
       6     C     3.08628  3.08628  0.00000 -0.17256
       7     H     0.42024  0.42024  0.00000  0.15952
       8     C     3.07344  3.07344  0.00000 -0.14687
       9     H     0.42142  0.42142  0.00000  0.15717
      10     C     3.01383  3.01383  0.00000 -0.02766
      11     H     0.40672  0.40672  0.00000  0.18655
      12     C     2.83164  2.83164  0.00000  0.33672
      13     C     3.16798  3.16798  0.00000 -0.33597
      14     O     4.18435  4.18435  0.00000 -0.36871
      15     H     0.44721  0.44721  0.00000  0.10559
      16     H     0.43179  0.43179  0.00000  0.13643
      17     H     0.44720  0.44720  0.00000  0.10559

   Total alpha = 32.00000, Total beta = 32.00000, Total charge = -0.00000

*** Psi4 exiting successfully. Buy a developer a beer!
