  ==> Input File <==

--------------------------------------------------------------------------
set {
	reference rhf
	basis 6-31G*
}

set_num_threads( 4 )
memory 2 gb

molecule MOL {
0 1

H	 2.143544	 -1.153932	 -2.396742
O	 2.540829	 -0.522605	 -1.812542
C	 1.639065	 -0.029464	 -0.940297
C	 2.089300	 0.912126	 -0.020167
C	 0.315233	 -0.423904	 -0.936207
H	 3.122795	 1.202292	 -0.043638
C	 1.214344	 1.453983	 0.898478
H	 -0.058728	 -1.147359	 -1.633554
C	 -0.536158	 0.140425	 0.000000
H	 1.570422	 2.180311	 1.605240
C	 -0.120869	 1.073910	 0.922870
N	 -1.935604	 -0.280333	 0.000000
H	 -0.811541	 1.485291	 1.629370
O	 -2.161694	 -1.452901	 0.000000
O	 -2.770341	 0.571417	 0.000000

	symmetry c1
}
set optking {
	frozen_dihedral = ("
		11 9 12 14
	")
}

ee = optimize('scf')
oeprop('DIPOLE', 'QUADRUPOLE', 'MULLIKEN_CHARGES')
f=open( 'psi4out.xyz', 'w' )
f.write( "15  " )
f.write( str(ee) + "\n" )
f.write( MOL.save_string_xyz() )
f.close()
--------------------------------------------------------------------------

    Molecular point group: c1
  Charge       = 0
  Multiplicity = 1
  Basis Set: 6-31G*
  Basis Set:
  @DF-RHF Final Energy:  -509.02219963849336
    Total Energy =                       -509.0221996384937029
    Molecular point group: c1
  Basis Set: 6-31G*
  Basis Set:
  Basis Set: 6-31G*
  Basis Set:
  @DF-RHF Final Energy:  -509.01676956973330
    Total Energy =                       -509.0167695697327872
  Basis Set: 6-31G*
  Basis Set:
  Basis Set: 6-31G*
  Basis Set:
  @DF-RHF Final Energy:  -509.02251081604595
    Total Energy =                       -509.0225108160461787
  Basis Set: 6-31G*
  Basis Set:
  Basis Set: 6-31G*
  Basis Set:
  @DF-RHF Final Energy:  -509.02279312928351
    Total Energy =                       -509.0227931292834000
  Basis Set: 6-31G*
  Basis Set:
  Basis Set: 6-31G*
  Basis Set:
  @DF-RHF Final Energy:  -509.02279623324421
    Total Energy =                       -509.0227962332440939
  Basis Set: 6-31G*
  Basis Set:
  Charge       = 0
  Multiplicity = 1
  Basis Set: 6-31G*
  Basis Set:

    Orbital Energies (a.u.)
    -----------------------

    Doubly Occupied:

       1A    -20.617216     2A    -20.608130     3A    -20.607793
       4A    -15.858944     5A    -11.332511     6A    -11.314188
       7A    -11.268428     8A    -11.268180     9A    -11.264055
      10A    -11.257631    11A     -1.639758    12A     -1.438124
      13A     -1.423720    14A     -1.202155    15A     -1.095872
      16A     -1.048080    17A     -0.966049    18A     -0.882442
      19A     -0.829534    20A     -0.789517    21A     -0.759863
      22A     -0.734646    23A     -0.720624    24A     -0.710560
      25A     -0.670359    26A     -0.635491    27A     -0.617354
      28A     -0.593708    29A     -0.562298    30A     -0.547588
      31A     -0.526434    32A     -0.490537    33A     -0.488878
      34A     -0.454114    35A     -0.375059    36A     -0.343364

  @DF-RHF Final Energy:  -509.02279697321154

   => Energetics <=

    Nuclear Repulsion Energy =            503.1562263149258456
    One-Electron Energy =               -1692.4716431281053701
    Two-Electron Energy =                 680.2926198399679834
    DFT Exchange-Correlation Energy =       0.0000000000000000
    Empirical Dispersion Energy =           0.0000000000000000
    PCM Polarization Energy =               0.0000000000000000
    EFP Energy =                            0.0000000000000000
    Total Energy =                       -509.0227969732115980
    Molecular point group: c1
  Basis Set: 6-31G*
  Basis Set:

  -Total Gradient:
     Atom            X                  Y                   Z
    ------   -----------------  -----------------  -----------------
       1       -0.000003419534     0.000010895030    -0.000008975614
       2        0.000007986141    -0.000013174642     0.000009916858
       3       -0.000011112271     0.000007280761     0.000016218109
       4       -0.000003846464     0.000025155005    -0.000030940824
       5       -0.000052709510     0.000110984879    -0.000044411754
       6        0.000001097147     0.000002646742    -0.000000472127
       7        0.000013960887    -0.000044712332     0.000028368226
       8       -0.000008025954    -0.000005494367    -0.000007420013
       9       -0.001809596557     0.005164189331    -0.002229193368
      10       -0.000000572992     0.000001530736    -0.000004727697
      11        0.001283695474    -0.003774065899     0.003126604704
      12        0.000143165926    -0.001437561790    -0.006796332609
      13       -0.000000431328    -0.000002184803    -0.000000223383
      14        0.000395425929    -0.000146537832     0.005943780930
      15        0.000044383116     0.000101049186    -0.000002191434

  **** Optimization is complete! (in 6 steps) ****
    Final optimized geometry and variables:
    Molecular point group: c1

    Geometry (in Angstrom), charge = 0, multiplicity = 1:

    H            2.176504729213    -1.263454726557    -2.170796495742
    O            2.568489551025    -0.623832307992    -1.592159796560
    C            1.664768410129    -0.127895065193    -0.725330695671
    C            2.114953467149     0.806555786289     0.202599508284
    C            0.339085054620    -0.520269240531    -0.725006844825
    H            3.151469456250     1.086182270101     0.190130164204
    C            1.238316991863     1.348904073246     1.118864422889
    H           -0.029443808138    -1.264782971113    -1.405719676124
    C           -0.515121162924     0.070858044516     0.187632227214
    H            1.597785553468     2.060295034655     1.839062573199
    C           -0.103788076605     0.989222486205     1.123436379731
    N           -1.902359462354    -0.378790528398     0.215829996400
    H           -0.801713937186     1.412152812343     1.818448255504
    O           -2.094455484314    -1.556485431098     0.193212222647
    O           -2.747380889142     0.457860184710     0.305983329917

  Mulliken Charges: (a.u.)
   Center  Symbol    Alpha    Beta     Spin     Total
       1     H     0.26737  0.26737  0.00000  0.46525
       2     O     4.37468  4.37468  0.00000 -0.74935
       3     C     2.79301  2.79301  0.00000  0.41398
       4     C     3.11235  3.11235  0.00000 -0.22471
       5     C     3.13440  3.13440  0.00000 -0.26880
       6     H     0.38161  0.38161  0.00000  0.23678
       7     C     3.09820  3.09820  0.00000 -0.19640
       8     H     0.37677  0.37677  0.00000  0.24646
       9     C     2.89601  2.89601  0.00000  0.20798
      10     H     0.38658  0.38658  0.00000  0.22685
      11     C     3.09931  3.09931  0.00000 -0.19863
      12     N     3.25654  3.25654  0.00000  0.48692
      13     H     0.37238  0.37238  0.00000  0.25524
      14     O     4.22680  4.22680  0.00000 -0.45361
      15     O     4.22399  4.22399  0.00000 -0.44797

   Total alpha = 36.00000, Total beta = 36.00000, Total charge =  0.00000
