                              Psi4 1.0.54 Driver

  ==> Input File <==

--------------------------------------------------------------------------
set {
	reference rhf
	basis cc-pvtz
}

set_num_threads( 4 )
memory 2 gb

molecule MOL {
0 1

H	 -0.059860	 -6.139011	 0.272136
C	 0.288257	 -5.113181	 0.247698
C	 -0.881540	 -4.138723	 0.166099
H	 0.877271	 -4.943736	 1.142902
H	 0.949176	 -5.009499	 -0.606383
C	 -0.437181	 -2.684035	 0.128739
H	 -1.542674	 -4.277925	 1.014208
H	 -1.469207	 -4.355657	 -0.722812
N	 -1.569494	 -1.784740	 0.075171
H	 0.128850	 -2.459091	 1.027726
H	 0.247634	 -2.535878	 -0.711596
C	 -1.215959	 -0.382435	 0.027143
H	 -2.145275	 -2.014126	 -0.707886
C	 -2.451944	 0.502410	 -0.038737
H	 -0.653723	 -0.146277	 0.925640
H	 -0.559320	 -0.150999	 -0.816859
C	 -3.752217	 -0.292550	 0.005776
H	 -2.407325	 1.093801	 -0.946480
H	 -2.431979	 1.206234	 0.790023
H	 -3.817783	 -0.982946	 -0.828547
H	 -4.612613	 0.364348	 -0.042306
H	 -3.830160	 -0.871666	 0.919868

	symmetry c1
}
set optking {
	frozen_dihedral = ("
		15 12 14 18
	")
}

ee,wfn = optimize('scf', return_wfn=True)
oeprop( wfn, 'DIPOLE', 'QUADRUPOLE', 'MULLIKEN_CHARGES')
f=open( 'psi4out.xyz', 'w' )
f.write( "22  " )
f.write( str(ee) + "\n" )
f.write( MOL.save_string_xyz() )
f.close()
--------------------------------------------------------------------------

    Molecular point group: c1
  Charge       = 0
  Multiplicity = 1
  Basis Set: CC-PVTZ
  Basis Set:
  @DF-RHF Final Energy:  -290.47703399620826
    Total Energy =                       -290.4770339962086609
    Molecular point group: c1
  Basis Set: CC-PVTZ
  Basis Set:
  Basis Set: CC-PVTZ
  Basis Set:
  @DF-RHF Final Energy:  -290.47728931875821
    Total Energy =                       -290.4772893187583236
  Basis Set: CC-PVTZ
  Basis Set:
  Basis Set: CC-PVTZ
  Basis Set:
  @DF-RHF Final Energy:  -290.48016815561124
    Total Energy =                       -290.4801681556111248
  Basis Set: CC-PVTZ
  Basis Set:
  Basis Set: CC-PVTZ
  Basis Set:
  @DF-RHF Final Energy:  -290.48045929152869
    Total Energy =                       -290.4804592915285752
  Basis Set: CC-PVTZ
  Basis Set:
  Basis Set: CC-PVTZ
  Basis Set:
  @DF-RHF Final Energy:  -290.48048352100511
    Total Energy =                       -290.4804835210054534
  Basis Set: CC-PVTZ
  Basis Set:
  Basis Set: CC-PVTZ
  Basis Set:
  @DF-RHF Final Energy:  -290.48049328776307
    Total Energy =                       -290.4804932877629540
  Basis Set: CC-PVTZ
  Basis Set:
  Charge       = 0
  Multiplicity = 1
  Basis Set: CC-PVTZ
  Basis Set:

    Orbital Energies (a.u.)
    -----------------------

    Doubly Occupied:

       1A    -15.528268     2A    -11.237014     3A    -11.236377
       4A    -11.212165     5A    -11.212090     6A    -11.207762
       7A    -11.202317     8A     -1.207120     9A     -1.056565
      10A     -1.021487    11A     -0.927440    12A     -0.881259
      13A     -0.805463    14A     -0.786620    15A     -0.667366
      16A     -0.628868    17A     -0.622024    18A     -0.601096
      19A     -0.575228    20A     -0.567014    21A     -0.533436
      22A     -0.530020    23A     -0.504801    24A     -0.486299
      25A     -0.485181    26A     -0.471382    27A     -0.458891
      28A     -0.451177    29A     -0.359178

  @DF-RHF Final Energy:  -290.48049421445450

   => Energetics <=

    Nuclear Repulsion Energy =            318.4047789833919637
    One-Electron Energy =               -1022.8427291289669938
    Two-Electron Energy =                 413.9574559311206485
    DFT Exchange-Correlation Energy =       0.0000000000000000
    Empirical Dispersion Energy =           0.0000000000000000
    PCM Polarization Energy =               0.0000000000000000
    EFP Energy =                            0.0000000000000000
    Total Energy =                       -290.4804942144544384
    Molecular point group: c1
  Basis Set: CC-PVTZ
  Basis Set:

  -Total Gradient:
     Atom            X                  Y                   Z
    ------   -----------------  -----------------  -----------------
       1        0.000002874189    -0.000001845116     0.000000145045
       2       -0.000002297059    -0.000005578300     0.000003129842
       3        0.000003868729     0.000000703347     0.000003137449
       4        0.000000131130    -0.000000363435    -0.000000344020
       5       -0.000001805600     0.000000821801    -0.000000394995
       6        0.000008038436     0.000006591659     0.000003952522
       7        0.000001599348    -0.000002281563    -0.000000734030
       8       -0.000000085290     0.000002416802     0.000000250097
       9        0.000006239891     0.000020925274    -0.000031723702
      10        0.000006256727    -0.000004298477    -0.000000336919
      11       -0.000001638213     0.000000493740     0.000002518419
      12       -0.000863424269    -0.001210332543     0.001292947782
      13       -0.000020479824    -0.000005327155    -0.000012552632
      14       -0.000821364162    -0.001255706494    -0.001285824749
      15        0.000883081727     0.001227428153    -0.000853360548
      16       -0.000010117682    -0.000025544328    -0.000002236393
      17       -0.000005737375     0.000019972931     0.000043249804
      18        0.000821519460     0.001251986735     0.000867753807
      19       -0.000010578993    -0.000015192698    -0.000005160137
      20        0.000005582990     0.000004232270    -0.000000304646
      21        0.000007143648    -0.000014756844    -0.000014411467
      22       -0.000008807812     0.000005654239    -0.000009700526

  **** Optimization is complete! (in 7 steps) ****
    Final optimized geometry and variables:
    Molecular point group: c1

    Geometry (in Angstrom), charge = 0, multiplicity = 1:

    H            1.727039199084    -4.064051580439     0.142772111643
    C            1.981684699946    -3.011096135199     0.166750039087
    C            0.736258952787    -2.142317644275     0.029663548817
    H            2.493221073006    -2.817024198679     1.103600824033
    H            2.684714327297    -2.823385863805    -0.637929105881
    C            1.048939815072    -0.653514158382     0.059172992929
    H            0.036363691762    -2.366161050538     0.827042841088
    H            0.230646447478    -2.383216624217    -0.902483382506
    N           -0.154385558466     0.143074708752    -0.047524721173
    H            1.533532285138    -0.407453687304     0.999232391167
    H            1.770343487814    -0.419280146960    -0.729533461273
    C            0.093037984268     1.570440552556    -0.051571254837
    H           -0.653642880899    -0.120882738888    -0.870215767482
    C           -1.185282899676     2.443817973082    -0.095442036680
    H            0.652203632443     1.805533233115     0.846548225276
    H            0.743003177519     1.857581024851    -0.881168584281
    C           -2.520299240300     1.706252226656    -0.021331292779
    H           -1.166401036069     3.054800022951    -0.991487428468
    H           -1.144166873913     3.146429628764     0.729707653137
    H           -2.674554343546     1.053264005354    -0.872866301111
    H           -3.333653525428     2.423168428218    -0.014031170663
    H           -2.591253384275     1.101704053458     0.872360770916

  Mulliken Charges: (a.u.)
   Center  Symbol    Alpha    Beta     Spin     Total
       1     H     0.44763  0.44763  0.00000  0.10474
       2     C     3.15366  3.15366  0.00000 -0.30731
       3     C     3.08117  3.08117  0.00000 -0.16234
       4     H     0.45469  0.45469  0.00000  0.09062
       5     H     0.45609  0.45609  0.00000  0.08781
       6     C     3.02162  3.02162  0.00000 -0.04324
       7     H     0.44890  0.44890  0.00000  0.10220
       8     H     0.45992  0.45992  0.00000  0.08015
       9     N     3.63871  3.63871  0.00000 -0.27741
      10     H     0.45902  0.45902  0.00000  0.08195
      11     H     0.47501  0.47501  0.00000  0.04999
      12     C     3.03539  3.03539  0.00000 -0.07078
      13     H     0.44200  0.44200  0.00000  0.11600
      14     C     3.09538  3.09538  0.00000 -0.19075
      15     H     0.45760  0.45760  0.00000  0.08481
      16     H     0.46717  0.46717  0.00000  0.06566
      17     C     3.14675  3.14675  0.00000 -0.29350
      18     H     0.45127  0.45127  0.00000  0.09747
      19     H     0.45198  0.45198  0.00000  0.09604
      20     H     0.46025  0.46025  0.00000  0.07950
      21     H     0.44979  0.44979  0.00000  0.10041
      22     H     0.44600  0.44600  0.00000  0.10799

   Total alpha = 29.00000, Total beta = 29.00000, Total charge = -0.00000

*** Psi4 exiting successfully. Buy a developer a beer!
