                              Psi4 1.0.54 Driver

  ==> Input File <==

--------------------------------------------------------------------------
set {
	reference rhf
	basis cc-pvtz
}

set_num_threads( 4 )
memory 2 gb

molecule MOL {
0 1

H	 0.000127	 -1.562631	 -1.169050
N	 0.000110	 -1.426812	 -0.179693
C	 1.210240	 -0.731385	 0.222409
C	 -1.210128	 -0.731567	 0.222407
H	 2.064543	 -1.275870	 -0.161515
H	 1.274309	 -0.775727	 1.306426
C	 1.257787	 0.728888	 -0.226245
H	 -1.274207	 -0.775921	 1.306424
H	 -2.064344	 -1.276168	 -0.161533
C	 -1.257899	 0.728702	 -0.226235
H	 1.335215	 0.766750	 -1.310902
H	 2.146764	 1.210686	 0.168829
C	 -0.000111	 1.474037	 0.219642
H	 -2.146944	 1.210378	 0.168846
H	 -1.335344	 0.766557	 -1.310890
H	 -0.000119	 1.557604	 1.304196
H	 -0.000194	 2.486538	 -0.168964

	symmetry c1
}
ee,wfn = energy('scf', return_wfn=True)
oeprop( wfn, 'DIPOLE', 'QUADRUPOLE', 'MULLIKEN_CHARGES')
oeprop( wfn, 'GRID_ESP')
f=open( 'psi4out.xyz', 'w' )
f.write( "17  " )
f.write( str(ee) + "\n" )
f.write( MOL.save_string_xyz() )
f.close()
--------------------------------------------------------------------------

    Molecular point group: c1

    Geometry (in Angstrom), charge = 0, multiplicity = 1:

       Center              X                  Y                   Z               Mass
    ------------   -----------------  -----------------  -----------------  -----------------
           H          0.000126849334    -1.562569787513    -1.169039757580     1.007825032070
           N          0.000109849334    -1.426750787513    -0.179682757580    14.003074004780
           C          1.210239849334    -0.731323787513     0.222419242420    12.000000000000
           C         -1.210128150666    -0.731505787513     0.222417242420    12.000000000000
           H          2.064542849334    -1.275808787513    -0.161504757580     1.007825032070
           H          1.274308849333    -0.775665787513     1.306436242420     1.007825032070
           C          1.257786849333     0.728949212487    -0.226234757580    12.000000000000
           H         -1.274207150666    -0.775859787513     1.306434242420     1.007825032070
           H         -2.064344150666    -1.276106787513    -0.161522757580     1.007825032070
           C         -1.257899150666     0.728763212487    -0.226224757580    12.000000000000
           H          1.335214849334     0.766811212487    -1.310891757580     1.007825032070
           H          2.146763849333     1.210747212487     0.168839242420     1.007825032070
           C         -0.000111150666     1.474098212487     0.219652242420    12.000000000000
           H         -2.146944150666     1.210439212487     0.168856242420     1.007825032070
           H         -1.335344150666     0.766618212487    -1.310879757580     1.007825032070
           H         -0.000119150666     1.557665212487     1.304206242420     1.007825032070
           H         -0.000194150666     2.486599212487    -0.168953757580     1.007825032070

  Charge       = 0
  Multiplicity = 1
  Basis Set: CC-PVTZ
  Basis Set:

    Orbital Energies (a.u.)
    -----------------------

    Doubly Occupied:

       1A    -15.527546     2A    -11.235958     3A    -11.235942
       4A    -11.212919     5A    -11.210088     6A    -11.210012
       7A     -1.211181     8A     -1.055877     9A     -1.011938
      10A     -0.863311    11A     -0.844697    12A     -0.772731
      13A     -0.665890    14A     -0.618274    15A     -0.610848
      16A     -0.607046    17A     -0.547768    18A     -0.528365
      19A     -0.522256    20A     -0.490520    21A     -0.488009
      22A     -0.457190    23A     -0.445205    24A     -0.350900

  @DF-RHF Final Energy:  -250.27583880215792

   => Energetics <=

    Nuclear Repulsion Energy =            260.0902194069821007
    One-Electron Energy =                -853.2830251654615950
    Two-Electron Energy =                 342.9169669563216303
    DFT Exchange-Correlation Energy =       0.0000000000000000
    Empirical Dispersion Energy =           0.0000000000000000
    PCM Polarization Energy =               0.0000000000000000
    EFP Energy =                            0.0000000000000000
    Total Energy =                       -250.2758388021578639

  Mulliken Charges: (a.u.)
   Center  Symbol    Alpha    Beta     Spin     Total
       1     H     0.45186  0.45186  0.00000  0.09628
       2     N     3.63478  3.63478  0.00000 -0.26956
       3     C     3.04805  3.04805  0.00000 -0.09611
       4     C     3.04805  3.04805  0.00000 -0.09611
       5     H     0.44651  0.44651  0.00000  0.10699
       6     H     0.45742  0.45742  0.00000  0.08516
       7     C     3.10137  3.10137  0.00000 -0.20274
       8     H     0.45742  0.45742  0.00000  0.08515
       9     H     0.44650  0.44650  0.00000  0.10699
      10     C     3.10137  3.10137  0.00000 -0.20273
      11     H     0.45746  0.45746  0.00000  0.08507
      12     H     0.44764  0.44764  0.00000  0.10472
      13     C     3.09800  3.09800  0.00000 -0.19600
      14     H     0.44764  0.44764  0.00000  0.10472
      15     H     0.45747  0.45747  0.00000  0.08507
      16     H     0.45399  0.45399  0.00000  0.09202
      17     H     0.44447  0.44447  0.00000  0.11107

   Total alpha = 24.00000, Total beta = 24.00000, Total charge =  0.00000

*** Psi4 exiting successfully. Buy a developer a beer!
