  ==> Input File <==

--------------------------------------------------------------------------
set {
	reference rhf
	basis 6-31G*
}

set_num_threads( 1 )
memory 2 gb

molecule MOL {
0 1

H	 3.894224	 0.342957	 0.103333
N	 3.091006	 -0.254810	 0.135903
C	 1.863931	 0.528541	 0.122770
H	 3.159545	 -0.785693	 0.983426
C	 0.644089	 -0.385443	 0.074046
H	 1.880471	 1.152056	 -0.765945
H	 1.776838	 1.204031	 0.977478
C	 -0.679275	 0.379305	 0.025956
H	 0.735222	 -1.033089	 -0.793182
H	 0.652358	 -1.036763	 0.947574
C	 -1.903357	 -0.536963	 -0.023547
H	 -0.686946	 1.032639	 -0.845219
H	 -0.755635	 1.030676	 0.895284
C	 -3.225172	 0.228290	 0.028445
H	 -1.867824	 -1.134999	 -0.931459
H	 -1.860449	 -1.239604	 0.805977
H	 -3.313397	 0.915643	 -0.808262
H	 -4.073500	 -0.448134	 -0.008893
H	 -3.306061	 0.809945	 0.942516

	symmetry c1
}
set optking {
	frozen_dihedral = ("
		6 3 5 9,
		12 8 5 9,
		1 2 3 6
	")
}

ee = energy('scf')
oeprop('DIPOLE', 'QUADRUPOLE', 'MULLIKEN_CHARGES')
f=open( 'psi4out.xyz', 'w' )
f.write( "19  " )
f.write( str(ee) + "\n" )
f.write( MOL.save_string_xyz() )
f.close()
--------------------------------------------------------------------------

    Molecular point group: c1

    Geometry (in Angstrom), charge = 0, multiplicity = 1:

       Center              X                  Y                   Z               Mass
    ------------   -----------------  -----------------  -----------------  -----------------
           H          3.895468922028     0.345108002400     0.032734296833     1.007825032070
           N          3.092250922028    -0.252658997600     0.065304296833    14.003074004780
           C          1.865175922028     0.530692002400     0.052171296833    12.000000000000
           H          3.160789922028    -0.783541997600     0.912827296833     1.007825032070
           C          0.645333922028    -0.383291997600     0.003447296833    12.000000000000
           H          1.881715922028     1.154207002400    -0.836543703167     1.007825032070
           H          1.778082922028     1.206182002400     0.906879296833     1.007825032070
           C         -0.678030077972     0.381456002400    -0.044642703167    12.000000000000
           H          0.736466922028    -1.030937997600    -0.863780703167     1.007825032070
           H          0.653602922028    -1.034611997600     0.876975296833     1.007825032070
           C         -1.902112077972    -0.534811997600    -0.094145703167    12.000000000000
           H         -0.685701077972     1.034790002400    -0.915817703167     1.007825032070
           H         -0.754390077972     1.032827002400     0.824685296833     1.007825032070
           C         -3.223927077972     0.230441002400    -0.042153703167    12.000000000000
           H         -1.866579077972    -1.132847997600    -1.002057703167     1.007825032070
           H         -1.859204077972    -1.237452997600     0.735378296833     1.007825032070
           H         -3.312152077972     0.917794002400    -0.878860703167     1.007825032070
           H         -4.072255077972    -0.445982997600    -0.079491703167     1.007825032070
           H         -3.304816077972     0.812096002400     0.871917296833     1.007825032070

  Charge       = 0
  Multiplicity = 1
  Basis Set: 6-31G*
  Basis Set:

    Orbital Energies (a.u.)
    -----------------------

    Doubly Occupied:

       1A    -15.532492     2A    -11.239739     3A    -11.213937
       4A    -11.212728     5A    -11.209464     6A    -11.207527
       7A     -1.176609     8A     -1.072954     9A     -0.998388
      10A     -0.900191    11A     -0.812982    12A     -0.789271
      13A     -0.664562    14A     -0.642324    15A     -0.616675
      16A     -0.588473    17A     -0.564297    18A     -0.549305
      19A     -0.529509    20A     -0.499049    21A     -0.480432
      22A     -0.465067    23A     -0.461023    24A     -0.449706
      25A     -0.380985

  @DF-RHF Final Energy:  -251.35167018437176

   => Energetics <=

    Nuclear Repulsion Energy =            245.6510005741806140
    One-Electron Energy =                -825.4899082777897092
    Two-Electron Energy =                 328.4872375192368850
    DFT Exchange-Correlation Energy =       0.0000000000000000
    Empirical Dispersion Energy =           0.0000000000000000
    PCM Polarization Energy =               0.0000000000000000
    EFP Energy =                            0.0000000000000000
    Total Energy =                       -251.3516701843721535

  Mulliken Charges: (a.u.)
   Center  Symbol    Alpha    Beta     Spin     Total
       1     H     0.33248  0.33248  0.00000  0.33504
       2     N     3.92190  3.92190  0.00000 -0.84381
       3     C     3.06023  3.06023  0.00000 -0.12047
       4     H     0.33537  0.33537  0.00000  0.32926
       5     C     3.15155  3.15155  0.00000 -0.30310
       6     H     0.42086  0.42086  0.00000  0.15827
       7     H     0.43475  0.43475  0.00000  0.13050
       8     C     3.15492  3.15492  0.00000 -0.30983
       9     H     0.41313  0.41313  0.00000  0.17374
      10     H     0.42769  0.42769  0.00000  0.14463
      11     C     3.15086  3.15086  0.00000 -0.30172
      12     H     0.42342  0.42342  0.00000  0.15316
      13     H     0.42496  0.42496  0.00000  0.15007
      14     C     3.23933  3.23933  0.00000 -0.47865
      15     H     0.42176  0.42176  0.00000  0.15648
      16     H     0.42333  0.42333  0.00000  0.15333
      17     H     0.42183  0.42183  0.00000  0.15635
      18     H     0.41938  0.41938  0.00000  0.16125
      19     H     0.42225  0.42225  0.00000  0.15549

   Total alpha = 25.00000, Total beta = 25.00000, Total charge =  0.00000
