  ==> Input File <==

--------------------------------------------------------------------------
set {
	reference rhf
	basis 6-31G*
}

set_num_threads( 1 )
memory 2 gb

molecule MOL {
0 1

H	 -3.407059	 -1.043082	 0.000000
O	 -3.119761	 -0.140267	 0.000000
C	 -1.777559	 -0.059267	 0.000000
C	 -0.970776	 -1.119373	 -0.402835
C	 -1.210131	 1.136558	 0.422013
H	 -1.418619	 -2.042785	 -0.728500
C	 0.400994	 -0.979250	 -0.382003
H	 -1.853479	 1.939573	 0.727861
C	 0.163413	 1.261380	 0.437247
H	 1.035513	 -1.788925	 -0.690078
C	 0.984585	 0.211707	 0.037887
H	 0.603640	 2.187861	 0.764194
C	 2.453100	 0.360043	 0.059581
O	 3.226178	 -0.487106	 -0.265146
H	 2.813782	 1.334367	 0.405654

	symmetry c1
}
set optking {
	frozen_dihedral = ("
		7 11 13 14
	")
}

ee = energy('scf')
oeprop('DIPOLE', 'QUADRUPOLE', 'MULLIKEN_CHARGES')
f=open( 'psi4out.xyz', 'w' )
f.write( "15  " )
f.write( str(ee) + "\n" )
f.write( MOL.save_string_xyz() )
f.close()
--------------------------------------------------------------------------

    Molecular point group: c1

    Geometry (in Angstrom), charge = 0, multiplicity = 1:

       Center              X                  Y                   Z               Mass
    ------------   -----------------  -----------------  -----------------  -----------------
           H         -3.406911508157    -1.045527171005     0.013892757775     1.007825032070
           O         -3.119613508157    -0.142712171005     0.013892757775    15.994914619560
           C         -1.777411508157    -0.061712171005     0.013892757775    12.000000000000
           C         -0.970628508157    -1.121818171005    -0.388942242225    12.000000000000
           C         -1.209983508157     1.134112828995     0.435905757775    12.000000000000
           H         -1.418471508157    -2.045230171005    -0.714607242225     1.007825032070
           C          0.401141491843    -0.981695171005    -0.368110242225    12.000000000000
           H         -1.853331508157     1.937127828995     0.741753757775     1.007825032070
           C          0.163560491843     1.258934828995     0.451139757775    12.000000000000
           H          1.035660491843    -1.791370171005    -0.676185242225     1.007825032070
           C          0.984732491843     0.209261828995     0.051779757775    12.000000000000
           H          0.603787491843     2.185415828995     0.778086757775     1.007825032070
           C          2.453247491843     0.357597828995     0.073473757775    12.000000000000
           O          3.226325491843    -0.489551171005    -0.251253242225    15.994914619560
           H          2.813929491843     1.331921828995     0.419546757775     1.007825032070

  Charge       = 0
  Multiplicity = 1
  Basis Set: 6-31G*
  Basis Set:

    Orbital Energies (a.u.)
    -----------------------

    Doubly Occupied:

       1A    -20.609239     2A    -20.556156     3A    -11.328178
       4A    -11.322742     5A    -11.260432     6A    -11.256405
       7A    -11.244124     8A    -11.239085     9A    -11.238863
      10A     -1.430940    11A     -1.397360    12A     -1.170426
      13A     -1.041324    14A     -1.038418    15A     -0.888711
      16A     -0.866402    17A     -0.794488    18A     -0.757277
      19A     -0.713191    20A     -0.666026    21A     -0.642493
      22A     -0.628080    23A     -0.612953    24A     -0.607424
      25A     -0.575571    26A     -0.557214    27A     -0.549195
      28A     -0.505268    29A     -0.483668    30A     -0.418791
      31A     -0.357632    32A     -0.327535

  @DF-RHF Final Energy:  -418.28923298028280

   => Energetics <=

    Nuclear Repulsion Energy =            401.3552294780394050
    One-Electron Energy =               -1365.1177640705020622
    Two-Electron Energy =                 545.4733016121781475
    DFT Exchange-Correlation Energy =       0.0000000000000000
    Empirical Dispersion Energy =           0.0000000000000000
    PCM Polarization Energy =               0.0000000000000000
    EFP Energy =                            0.0000000000000000
    Total Energy =                       -418.2892329802845097

  Mulliken Charges: (a.u.)
   Center  Symbol    Alpha    Beta     Spin     Total
       1     H     0.26862  0.26862  0.00000  0.46277
       2     O     4.37391  4.37391  0.00000 -0.74781
       3     C     2.78755  2.78755  0.00000  0.42490
       4     C     3.14508  3.14508  0.00000 -0.29016
       5     C     3.12775  3.12775  0.00000 -0.25551
       6     H     0.39701  0.39701  0.00000  0.20598
       7     C     3.07831  3.07831  0.00000 -0.15663
       8     H     0.38655  0.38655  0.00000  0.22690
       9     C     3.09263  3.09263  0.00000 -0.18526
      10     H     0.37466  0.37466  0.00000  0.25067
      11     C     3.06841  3.06841  0.00000 -0.13681
      12     H     0.38991  0.38991  0.00000  0.22019
      13     C     2.83030  2.83030  0.00000  0.33940
      14     O     4.25461  4.25461  0.00000 -0.50922
      15     H     0.42470  0.42470  0.00000  0.15060

   Total alpha = 32.00000, Total beta = 32.00000, Total charge = -0.00000
