  ==> Input File <==

--------------------------------------------------------------------------
set {
	reference rhf
	basis 6-31G*
}

set_num_threads( 4 )
memory 2 gb

molecule MOL {
0 1

H	 -3.407059	 -1.043082	 0.000000
O	 -3.119761	 -0.140267	 0.000000
C	 -1.777559	 -0.059267	 0.000000
C	 -0.983096	 -0.915220	 0.757083
C	 -1.197224	 0.922685	 -0.793125
H	 -1.440899	 -1.673587	 1.369133
C	 0.389310	 -0.785653	 0.717932
H	 -1.831218	 1.570699	 -1.367932
C	 0.176785	 1.039787	 -0.821755
H	 1.014408	 -1.439200	 1.296923
C	 0.985743	 0.192506	 -0.071204
H	 0.627012	 1.800574	 -1.436215
C	 2.454922	 0.329848	 -0.111976
O	 3.218069	 -0.352733	 0.498311
H	 2.826189	 1.128785	 -0.762380

	symmetry c1
}
set optking {
	frozen_dihedral = ("
		5 3 2 1
	")
}

ee = optimize('scf')
oeprop('DIPOLE', 'QUADRUPOLE', 'MULLIKEN_CHARGES')
f=open( 'psi4out.xyz', 'w' )
f.write( "15  " )
f.write( str(ee) + "\n" )
f.write( MOL.save_string_xyz() )
f.close()
--------------------------------------------------------------------------

    Molecular point group: c1
  Charge       = 0
  Multiplicity = 1
  Basis Set: 6-31G*
  Basis Set:
  @DF-RHF Final Energy:  -418.28726342928422
    Total Energy =                       -418.2872634292846215
    Molecular point group: c1
  Basis Set: 6-31G*
  Basis Set:
  Basis Set: 6-31G*
  Basis Set:
  @DF-RHF Final Energy:  -418.28739485609537
    Total Energy =                       -418.2873948560951476
  Basis Set: 6-31G*
  Basis Set:
  Basis Set: 6-31G*
  Basis Set:
  @DF-RHF Final Energy:  -418.28739687684833
    Total Energy =                       -418.2873968768484474
  Basis Set: 6-31G*
  Basis Set:
  Basis Set: 6-31G*
  Basis Set:
  @DF-RHF Final Energy:  -418.28727071586388
    Total Energy =                       -418.2872707158643379
  Basis Set: 6-31G*
  Basis Set:
  Basis Set: 6-31G*
  Basis Set:
  @DF-RHF Final Energy:  -418.28741550497978
    Total Energy =                       -418.2874155049793217
  Basis Set: 6-31G*
  Basis Set:
  Charge       = 0
  Multiplicity = 1
  Basis Set: 6-31G*
  Basis Set:

    Orbital Energies (a.u.)
    -----------------------

    Doubly Occupied:

       1A    -20.603173     2A    -20.558031     3A    -11.329522
       4A    -11.319272     5A    -11.260508     6A    -11.255652
       7A    -11.243857     8A    -11.241418     9A    -11.240140
      10A     -1.422759    11A     -1.399156    12A     -1.170685
      13A     -1.041475    14A     -1.037956    15A     -0.887690
      16A     -0.863695    17A     -0.794917    18A     -0.754621
      19A     -0.712079    20A     -0.665467    21A     -0.645974
      22A     -0.628929    23A     -0.616067    24A     -0.607450
      25A     -0.565450    26A     -0.553864    27A     -0.547666
      28A     -0.503206    29A     -0.483684    30A     -0.420131
      31A     -0.356816    32A     -0.332137

  @DF-RHF Final Energy:  -418.28741580506698

   => Energetics <=

    Nuclear Repulsion Energy =            401.1169271978868665
    One-Electron Energy =               -1364.6817904418426224
    Two-Electron Energy =                 545.2774474388888848
    DFT Exchange-Correlation Energy =       0.0000000000000000
    Empirical Dispersion Energy =           0.0000000000000000
    PCM Polarization Energy =               0.0000000000000000
    EFP Energy =                            0.0000000000000000
    Total Energy =                       -418.2874158050668711
    Molecular point group: c1
  Basis Set: 6-31G*
  Basis Set:

  -Total Gradient:
     Atom            X                  Y                   Z
    ------   -----------------  -----------------  -----------------
       1       -0.000056471006    -0.000009860839    -0.003529554433
       2        0.000063015535    -0.000788067040     0.003465560069
       3       -0.000079004254     0.002364257495     0.002099746628
       4       -0.000104714231     0.000006347649    -0.000051681652
       5        0.000153304756    -0.001590455216    -0.001985905116
       6        0.000003740675     0.000000218270     0.000005785175
       7        0.000079591977     0.000064339569    -0.000022256027
       8       -0.000001362193    -0.000005562683     0.000007318586
       9       -0.000062602937     0.000015783288    -0.000045892335
      10       -0.000006725345    -0.000002575509     0.000001276341
      11        0.000004814711    -0.000068764879     0.000053326436
      12        0.000010712428     0.000000661617     0.000005007977
      13        0.000006158420     0.000029651821     0.000011984806
      14       -0.000007496393    -0.000010884594    -0.000007016547
      15       -0.000002962153    -0.000005088949    -0.000007699907

  **** Optimization is complete! (in 6 steps) ****
    Final optimized geometry and variables:
    Molecular point group: c1

    Geometry (in Angstrom), charge = 0, multiplicity = 1:

    H           -3.405023855294    -1.057457712303    -0.009718094710
    O           -3.125434546840    -0.152122754257    -0.013938217570
    C           -1.774479606514    -0.065515283139    -0.030014805840
    C           -0.982797064644    -0.924762375453     0.726009940255
    C           -1.194624520153     0.911112947157    -0.824759931956
    H           -1.447825816679    -1.672904223946     1.343749836706
    C            0.389402524711    -0.798862467307     0.687553877547
    H           -1.827243450138     1.554864555968    -1.405936879328
    C            0.181651076132     1.035716281643    -0.844943680780
    H            1.014538111934    -1.453102601573     1.265667218697
    C            0.985733906738     0.185125006924    -0.096631805716
    H            0.633884191673     1.795935011604    -1.458558627416
    C            2.456556390397     0.323196950602    -0.135489950204
    O            3.218144196982    -0.366157925165     0.468452638649
    H            2.828713610844     1.128075861753    -0.777649359485

  Mulliken Charges: (a.u.)
   Center  Symbol    Alpha    Beta     Spin     Total
       1     H     0.26896  0.26896  0.00000  0.46208
       2     O     4.37875  4.37875  0.00000 -0.75751
       3     C     2.79379  2.79379  0.00000  0.41242
       4     C     3.13849  3.13849  0.00000 -0.27699
       5     C     3.12551  3.12551  0.00000 -0.25102
       6     H     0.39446  0.39446  0.00000  0.21108
       7     C     3.08046  3.08046  0.00000 -0.16092
       8     H     0.38671  0.38671  0.00000  0.22658
       9     C     3.09484  3.09484  0.00000 -0.18968
      10     H     0.37475  0.37475  0.00000  0.25050
      11     C     3.06549  3.06549  0.00000 -0.13098
      12     H     0.38981  0.38981  0.00000  0.22037
      13     C     2.83054  2.83054  0.00000  0.33892
      14     O     4.25329  4.25329  0.00000 -0.50659
      15     H     0.42414  0.42414  0.00000  0.15173

   Total alpha = 32.00000, Total beta = 32.00000, Total charge =  0.00000
