                              Psi4 1.0.54 Driver

  ==> Input File <==

--------------------------------------------------------------------------
set {
	reference rhf
	basis cc-pvtz
}

set_num_threads( 4 )
memory 2 gb

molecule MOL {
0 1

H	 2.614283	 2.028610	 0.296620
O	 3.358864	 1.662087	 -0.142800
C	 3.565468	 0.338079	 0.273842
C	 2.533667	 -0.637565	 -0.272227
H	 4.548038	 0.064914	 -0.086598
H	 3.593945	 0.282242	 1.360360
C	 2.303980	 -1.864812	 0.606954
H	 1.596555	 -0.106999	 -0.411790
H	 2.865019	 -0.957669	 -1.257182
C	 1.286816	 -2.836914	 0.010940
H	 1.967009	 -1.545489	 1.587508
H	 3.249407	 -2.384086	 0.754628
C	 1.072331	 -4.120970	 0.814341
H	 0.334449	 -2.326658	 -0.110971
H	 1.613874	 -3.108327	 -0.988978
C	 0.411243	 -3.927709	 2.177923
H	 0.456031	 -4.793446	 0.224021
H	 2.027093	 -4.625235	 0.945872
C	 0.128667	 -5.244472	 2.896740
H	 -0.521870	 -3.383448	 2.049282
H	 1.038703	 -3.309893	 2.813217
C	 -0.527950	 -5.054993	 4.260135
H	 -0.509881	 -5.863854	 2.272882
H	 1.058722	 -5.793319	 3.018510
H	 -1.476896	 -4.536908	 4.168879
H	 -0.716878	 -6.007839	 4.741276
H	 0.103502	 -4.470625	 4.921296

	symmetry c1
}
set optking {
	frozen_dihedral = ("
		8 4 3 2
	")
}

ee,wfn = optimize('scf', return_wfn=True)
oeprop( wfn, 'DIPOLE', 'QUADRUPOLE', 'MULLIKEN_CHARGES')
f=open( 'psi4out.xyz', 'w' )
f.write( "27  " )
f.write( str(ee) + "\n" )
f.write( MOL.save_string_xyz() )
f.close()
--------------------------------------------------------------------------

    Molecular point group: c1
  Charge       = 0
  Multiplicity = 1
  Basis Set: CC-PVTZ
  Basis Set:
  @DF-RHF Final Energy:  -388.42482548870026
    Total Energy =                       -388.4248254887004350
    Molecular point group: c1
  Basis Set: CC-PVTZ
  Basis Set:
  Basis Set: CC-PVTZ
  Basis Set:
  @DF-RHF Final Energy:  -388.42525700920243
    Total Energy =                       -388.4252570092024825
  Basis Set: CC-PVTZ
  Basis Set:
  Basis Set: CC-PVTZ
  Basis Set:
  @DF-RHF Final Energy:  -388.42531327780080
    Total Energy =                       -388.4253132778006830
  Basis Set: CC-PVTZ
  Basis Set:
  Basis Set: CC-PVTZ
  Basis Set:
  @DF-RHF Final Energy:  -388.42531974073114
    Total Energy =                       -388.4253197407310836
  Basis Set: CC-PVTZ
  Basis Set:
  Charge       = 0
  Multiplicity = 1
  Basis Set: CC-PVTZ
  Basis Set:

    Orbital Energies (a.u.)
    -----------------------

    Doubly Occupied:

       1A    -20.544716     2A    -11.264925     3A    -11.216918
       4A    -11.214672     5A    -11.214392     6A    -11.213864
       7A    -11.213103     8A    -11.211825     9A    -11.207409
      10A     -1.363068    11A     -1.096603    12A     -1.063251
      13A     -1.012127    14A     -0.946254    15A     -0.885070
      16A     -0.824975    17A     -0.805336    18A     -0.779056
      19A     -0.691300    20A     -0.650346    21A     -0.644855
      22A     -0.608839    23A     -0.606755    24A     -0.586931
      25A     -0.573646    26A     -0.555531    27A     -0.546325
      28A     -0.522367    29A     -0.511789    30A     -0.501166
      31A     -0.482576    32A     -0.476199    33A     -0.464175
      34A     -0.460481    35A     -0.452515    36A     -0.444212
      37A     -0.424425

  @DF-RHF Final Energy:  -388.42531995727632

   => Energetics <=

    Nuclear Repulsion Energy =            454.2495602874392944
    One-Electron Energy =               -1426.7857566539771597
    Two-Electron Energy =                 584.1108764092610954
    DFT Exchange-Correlation Energy =       0.0000000000000000
    Empirical Dispersion Energy =           0.0000000000000000
    PCM Polarization Energy =               0.0000000000000000
    EFP Energy =                            0.0000000000000000
    Total Energy =                       -388.4253199572767699
    Molecular point group: c1
  Basis Set: CC-PVTZ
  Basis Set:

  -Total Gradient:
     Atom            X                  Y                   Z
    ------   -----------------  -----------------  -----------------
       1       -0.000026804053     0.000027230988    -0.000006431331
       2       -0.002198555971     0.000537689545     0.003168082748
       3        0.003367495397    -0.000688582185    -0.005275046382
       4       -0.002487865303    -0.001188099371     0.006732152909
       5        0.000015671689     0.000023533614    -0.000017213792
       6       -0.000029384848     0.000095767229     0.000000533935
       7       -0.000011792363     0.000044393546    -0.000095789139
       8        0.001278176826     0.001140637302    -0.004489871302
       9        0.000053060953    -0.000012283851    -0.000014025788
      10       -0.000001850317    -0.000026579451     0.000020827877
      11        0.000005863650     0.000002358659     0.000012608076
      12        0.000034367039     0.000007438278    -0.000030575131
      13       -0.000042093254     0.000010776194     0.000005047095
      14        0.000006617018    -0.000003133805    -0.000009301643
      15        0.000011064481    -0.000002096294     0.000007544275
      16        0.000011992222     0.000002465935    -0.000001355591
      17       -0.000004344568     0.000002252496     0.000000281776
      18       -0.000000047270     0.000005878292    -0.000005774246
      19        0.000001608316    -0.000000606920     0.000002734790
      20        0.000008764506    -0.000002740257     0.000000006943
      21        0.000014961650     0.000025139561    -0.000000589062
      22       -0.000006401020    -0.000000121271    -0.000002608323
      23        0.000000451704    -0.000002746354    -0.000000664453
      24        0.000000504127     0.000002124171     0.000000384906
      25       -0.000000900282     0.000000989999     0.000002059998
      26       -0.000001286585    -0.000001289092    -0.000000354121
      27        0.000000726254    -0.000000396956    -0.000002665024

  **** Optimization is complete! (in 5 steps) ****
    Final optimized geometry and variables:
    Molecular point group: c1

    Geometry (in Angstrom), charge = 0, multiplicity = 1:

    H            0.912405848889     4.342496917123    -0.979066108074
    O            1.740281371799     4.030493265313    -1.295554332312
    C            1.936678065156     2.705951239032    -0.880138878139
    C            0.894661678551     1.737054721078    -1.438840883341
    H            2.929459513819     2.429593511321    -1.207642218523
    H            1.934831722762     2.659093688330     0.207184722393
    C            0.686963724446     0.501126194123    -0.570819509383
    H           -0.040021730365     2.273290543106    -1.583951290234
    H            1.196402620554     1.433907116556    -2.437558277568
    C           -0.301559460085    -0.493701467346    -1.175883746659
    H            0.348143667479     0.813286715881     0.411837863118
    H            1.643606034093     0.004846745001    -0.419526243172
    C           -0.489662989075    -1.784003271497    -0.375937368304
    H           -1.265880244972    -0.007209529076    -1.303694202602
    H            0.038495916485    -0.754969719320    -2.173896981767
    C           -1.157131044298    -1.608455214946     0.986850012253
    H           -1.089825550298    -2.468572210363    -0.968890548278
    H            0.475763126156    -2.267071200428    -0.243679425617
    C           -1.411244219653    -2.932554864237     1.702679874425
    H           -2.102398209164    -1.085583986203     0.857393383493
    H           -0.544789417947    -0.977820572962     1.624122089590
    C           -2.074903155293    -2.760646346344     3.064934162052
    H           -2.034024863418    -3.565364278960     1.076381710910
    H           -0.469137083029    -3.459978319887     1.825616167267
    H           -3.035683477582    -2.265025009831     2.972472086569
    H           -2.242344467287    -3.718329684182     3.544335879578
    H           -1.458697498763    -2.162565970122     3.728144224640

  Mulliken Charges: (a.u.)
   Center  Symbol    Alpha    Beta     Spin     Total
       1     H     0.39481  0.39481  0.00000  0.21038
       2     O     4.20244  4.20244  0.00000 -0.40488
       3     C     2.96820  2.96820  0.00000  0.06359
       4     C     3.09652  3.09652  0.00000 -0.19303
       5     H     0.45219  0.45219  0.00000  0.09562
       6     H     0.47338  0.47338  0.00000  0.05325
       7     C     3.10046  3.10046  0.00000 -0.20091
       8     H     0.45749  0.45749  0.00000  0.08501
       9     H     0.45152  0.45152  0.00000  0.09697
      10     C     3.09981  3.09981  0.00000 -0.19962
      11     H     0.45281  0.45281  0.00000  0.09438
      12     H     0.45285  0.45285  0.00000  0.09430
      13     C     3.09785  3.09785  0.00000 -0.19570
      14     H     0.45296  0.45296  0.00000  0.09409
      15     H     0.44676  0.44676  0.00000  0.10649
      16     C     3.08818  3.08818  0.00000 -0.17636
      17     H     0.44806  0.44806  0.00000  0.10387
      18     H     0.45344  0.45344  0.00000  0.09312
      19     C     3.08399  3.08399  0.00000 -0.16798
      20     H     0.45533  0.45533  0.00000  0.08934
      21     H     0.45385  0.45385  0.00000  0.09231
      22     C     3.14974  3.14974  0.00000 -0.29947
      23     H     0.45388  0.45388  0.00000  0.09224
      24     H     0.45442  0.45442  0.00000  0.09116
      25     H     0.45530  0.45530  0.00000  0.08939
      26     H     0.44822  0.44822  0.00000  0.10356
      27     H     0.45555  0.45555  0.00000  0.08890

   Total alpha = 37.00000, Total beta = 37.00000, Total charge = -0.00000

*** Psi4 exiting successfully. Buy a developer a beer!
