  ==> Input File <==

--------------------------------------------------------------------------
set {
	reference rhf
	basis 6-31G*
}

set_num_threads( 1 )
memory 2 gb

molecule MOL {
0 1

H	 -1.923108	 0.656960	 -0.944967
N	 -1.852125	 0.165761	 -0.074816
C	 -0.563778	 -0.502042	 0.037919
H	 -2.597647	 -0.504085	 -0.058682
C	 0.575259	 0.508231	 -0.048326
H	 -0.482092	 -1.204004	 -0.786564
H	 -0.460411	 -1.085169	 0.956626
C	 1.954651	 -0.143624	 0.035137
H	 0.475158	 1.060484	 -0.977307
H	 0.469181	 1.234488	 0.755973
H	 2.103292	 -0.853109	 -0.774172
H	 2.742821	 0.599562	 -0.030094
H	 2.083613	 -0.679371	 0.971560

	symmetry c1
}
set optking {
	frozen_dihedral = ("
		6 3 5 9
	")
}

ee = energy('scf')
oeprop('DIPOLE', 'QUADRUPOLE', 'MULLIKEN_CHARGES')
f=open( 'psi4out.xyz', 'w' )
f.write( "13  " )
f.write( str(ee) + "\n" )
f.write( MOL.save_string_xyz() )
f.close()
--------------------------------------------------------------------------

    Molecular point group: c1

    Geometry (in Angstrom), charge = 0, multiplicity = 1:

       Center              X                  Y                   Z               Mass
    ------------   -----------------  -----------------  -----------------  -----------------
           H         -1.924594490593     0.658794307013    -0.917112433838     1.007825032070
           N         -1.853611490593     0.167595307013    -0.046961433838    14.003074004780
           C         -0.565264490593    -0.500207692987     0.065773566162    12.000000000000
           H         -2.599133490593    -0.502250692987    -0.030827433838     1.007825032070
           C          0.573772509407     0.510065307013    -0.020471433838    12.000000000000
           H         -0.483578490593    -1.202169692987    -0.758709433838     1.007825032070
           H         -0.461897490593    -1.083334692987     0.984480566162     1.007825032070
           C          1.953164509407    -0.141789692987     0.062991566162    12.000000000000
           H          0.473671509407     1.062318307013    -0.949452433838     1.007825032070
           H          0.467694509407     1.236322307013     0.783827566162     1.007825032070
           H          2.101805509407    -0.851274692987    -0.746317433838     1.007825032070
           H          2.741334509407     0.601396307013    -0.002239433838     1.007825032070
           H          2.082126509407    -0.677536692987     0.999414566162     1.007825032070

  Charge       = 0
  Multiplicity = 1
  Basis Set: 6-31G*
  Basis Set:

    Orbital Energies (a.u.)
    -----------------------

    Doubly Occupied:

       1A    -15.531079     2A    -11.240571     3A    -11.213466
       4A    -11.210052     5A     -1.176803     6A     -1.035661
       7A     -0.898671     8A     -0.800961     9A     -0.659044
      10A     -0.628886    11A     -0.604717    12A     -0.566006
      13A     -0.536833    14A     -0.493058    15A     -0.477801
      16A     -0.468927    17A     -0.377140

  @DF-RHF Final Energy:  -173.28005892375563

   => Energetics <=

    Nuclear Repulsion Energy =            131.8233439307991262
    One-Electron Energy =                -494.3674374902595332
    Two-Electron Energy =                 189.2640346357046894
    DFT Exchange-Correlation Energy =       0.0000000000000000
    Empirical Dispersion Energy =           0.0000000000000000
    PCM Polarization Energy =               0.0000000000000000
    EFP Energy =                            0.0000000000000000
    Total Energy =                       -173.2800589237557176

  Mulliken Charges: (a.u.)
   Center  Symbol    Alpha    Beta     Spin     Total
       1     H     0.33447  0.33447  0.00000  0.33106
       2     N     3.92232  3.92232  0.00000 -0.84464
       3     C     3.05849  3.05849  0.00000 -0.11699
       4     H     0.33321  0.33321  0.00000  0.33358
       5     C     3.15216  3.15216  0.00000 -0.30432
       6     H     0.43522  0.43522  0.00000  0.12957
       7     H     0.42036  0.42036  0.00000  0.15927
       8     C     3.24369  3.24369  0.00000 -0.48738
       9     H     0.42643  0.42643  0.00000  0.14714
      10     H     0.41333  0.41333  0.00000  0.17333
      11     H     0.42207  0.42207  0.00000  0.15587
      12     H     0.41751  0.41751  0.00000  0.16498
      13     H     0.42074  0.42074  0.00000  0.15852

   Total alpha = 17.00000, Total beta = 17.00000, Total charge = -0.00000
