                              Psi4 1.0.54 Driver

  ==> Input File <==

--------------------------------------------------------------------------
set {
	reference rhf
	basis cc-pvtz
}

set_num_threads( 4 )
memory 2 gb

molecule MOL {
0 1

O	 0.219783	 0.017900	 0.759045
C	 1.121787	 0.124983	 0.000110
C	 1.241465	 1.174615	 -1.074791
O	 2.167739	 -0.685178	 -0.000678
C	 0.065060	 2.138743	 -1.124330
H	 2.174788	 1.701716	 -0.905813
H	 1.363171	 0.654197	 -2.019150
C	 0.218779	 3.187334	 -2.222117
H	 -0.038500	 2.627121	 -0.161884
H	 -0.850766	 1.578806	 -1.276903
C	 -0.953800	 4.160314	 -2.279214
H	 1.139754	 3.742851	 -2.065762
H	 0.322283	 2.692034	 -3.183990
H	 -1.062136	 4.696753	 -1.342688
H	 -0.817726	 4.892528	 -3.066629
H	 -1.885506	 3.638367	 -2.469150
C	 3.449556	 -0.089977	 -0.000570
H	 3.585694	 0.522473	 -0.879546
H	 4.155805	 -0.904274	 -0.001389
H	 3.586173	 0.521118	 0.879272

	symmetry c1
}
set optking {
	frozen_dihedral = ("
		1 2 4 17
	")
}

ee,wfn = optimize('scf', return_wfn=True)
oeprop( wfn, 'DIPOLE', 'QUADRUPOLE', 'MULLIKEN_CHARGES')
f=open( 'psi4out.xyz', 'w' )
f.write( "20  " )
f.write( str(ee) + "\n" )
f.write( MOL.save_string_xyz() )
f.close()
--------------------------------------------------------------------------

    Molecular point group: c1
  Charge       = 0
  Multiplicity = 1
  Basis Set: CC-PVTZ
  Basis Set:
  @DF-RHF Final Energy:  -384.05861293818691
    Total Energy =                       -384.0586129381867977
    Molecular point group: c1
  Basis Set: CC-PVTZ
  Basis Set:
  Basis Set: CC-PVTZ
  Basis Set:
  @DF-RHF Final Energy:  -383.79270029327910
    Total Energy =                       -383.7927002932789264
  Basis Set: CC-PVTZ
  Basis Set:
  Basis Set: CC-PVTZ
  Basis Set:
  @DF-RHF Final Energy:  -383.94228270037308
    Total Energy =                       -383.9422827003734255
  Basis Set: CC-PVTZ
  Basis Set:
  Basis Set: CC-PVTZ
  Basis Set:
  @DF-RHF Final Energy:  -384.04625797536005
    Total Energy =                       -384.0462579753598789
  Basis Set: CC-PVTZ
  Basis Set:
  @DF-RHF Final Energy:  -384.06257779937476
    Total Energy =                       -384.0625777993745942
  @DF-RHF Final Energy:  -384.06429363400503
    Total Energy =                       -384.0642936340054803
  @DF-RHF Final Energy:  -384.06417496892016
    Total Energy =                       -384.0641749689200424
  Basis Set: CC-PVTZ
  Basis Set:
  @DF-RHF Final Energy:  -384.06484424150909
    Total Energy =                       -384.0648442415092632
  Basis Set: CC-PVTZ
  Basis Set:
  Basis Set: CC-PVTZ
  Basis Set:
  @DF-RHF Final Energy:  -384.06486786062857
    Total Energy =                       -384.0648678606283966
  Basis Set: CC-PVTZ
  Basis Set:
  Basis Set: CC-PVTZ
  Basis Set:
  @DF-RHF Final Energy:  -384.06486977140077
    Total Energy =                       -384.0648697714003674
  Basis Set: CC-PVTZ
  Basis Set:
  Charge       = 0
  Multiplicity = 1
  Basis Set: CC-PVTZ
  Basis Set:

    Orbital Energies (a.u.)
    -----------------------

    Doubly Occupied:

       1A    -20.584839     2A    -20.538425     3A    -11.367042
       4A    -11.292203     5A    -11.241290     6A    -11.222189
       7A    -11.221384     8A    -11.211412     9A     -1.462776
      10A     -1.369930    11A     -1.092425    12A     -1.018188
      13A     -0.978805    14A     -0.901145    15A     -0.810248
      16A     -0.767364    17A     -0.699662    18A     -0.685397
      19A     -0.676900    20A     -0.649398    21A     -0.614055
      22A     -0.591959    23A     -0.590678    24A     -0.554321
      25A     -0.540096    26A     -0.519399    27A     -0.500213
      28A     -0.485498    29A     -0.480981    30A     -0.474350
      31A     -0.454459    32A     -0.435541

  @DF-RHF Final Energy:  -384.06487049374124

   => Energetics <=

    Nuclear Repulsion Energy =            383.0955543444744649
    One-Electron Energy =               -1282.2557046066613111
    Two-Electron Energy =                 515.0952797684458346
    DFT Exchange-Correlation Energy =       0.0000000000000000
    Empirical Dispersion Energy =           0.0000000000000000
    PCM Polarization Energy =               0.0000000000000000
    EFP Energy =                            0.0000000000000000
    Total Energy =                       -384.0648704937409548
    Molecular point group: c1
  Basis Set: CC-PVTZ
  Basis Set:

  -Total Gradient:
     Atom            X                  Y                   Z
    ------   -----------------  -----------------  -----------------
       1        0.002261294429     0.002959536661     0.001085985683
       2       -0.003151157440    -0.003467020689    -0.000058731545
       3       -0.000095029394     0.000047751619    -0.000000298305
       4        0.000721621712    -0.001002334921    -0.003950246190
       5        0.000063040712    -0.000012738540    -0.000002894045
       6        0.000002813288     0.000003182519    -0.000027027190
       7        0.000011137984    -0.000027177118     0.000003937580
       8       -0.000022909598    -0.000005094580     0.000002984469
       9       -0.000014431955     0.000024508630     0.000010776845
      10        0.000009439012    -0.000012207347     0.000005404854
      11        0.000028955427    -0.000003144151     0.000016493033
      12       -0.000007081858     0.000005598648    -0.000000252299
      13        0.000002441814    -0.000014705710    -0.000005886039
      14       -0.000006026591     0.000008793623    -0.000000374465
      15        0.000002578968     0.000002314451     0.000002376775
      16        0.000007229453    -0.000005889318     0.000000692506
      17        0.000222581802     0.001547207795     0.002880048170
      18       -0.000007105804    -0.000011398457     0.000046683319
      19       -0.000025352961     0.000005472538    -0.000000887274
      20       -0.000004039001    -0.000042655656    -0.000008785883

  **** Optimization is complete! (in 11 steps) ****
    Final optimized geometry and variables:
    Molecular point group: c1

    Geometry (in Angstrom), charge = 0, multiplicity = 1:

    O           -0.584873398304    -0.251252078579     1.893437714000
    C            0.245736977385    -0.581025578540     1.128205053540
    C            0.301923902677    -0.119002597679    -0.310438445218
    O            1.204198975790    -1.440639399767     1.508008410199
    C           -0.940433675826     0.642816998563    -0.751968350186
    H            1.183257536517     0.504499852618    -0.429188550698
    H            0.466932616142    -0.993074627409    -0.932425233625
    C           -0.856299997879     1.100150463620    -2.205288243374
    H           -1.083049058878     1.498606356866    -0.103071796289
    H           -1.812233046257     0.012897997423    -0.614895850356
    C           -2.097805003878     1.860892873755    -2.657827710445
    H            0.019175113541     1.731048709307    -2.336465853274
    H           -0.708784549889     0.237294110592    -2.849548236575
    H           -2.253593712802     2.748466225352    -2.054208308014
    H           -2.010271831794     2.174129957626    -3.691633752120
    H           -2.986086265674     1.244459439190    -2.572160376887
    C            2.558053160396    -1.144728746614     1.265201136885
    H            2.803855733354    -1.202413228028     0.212441842760
    H            3.129428386591    -1.886473410516     1.798935169986
    H            2.814622546678    -0.163238823009     1.645109341856

  Mulliken Charges: (a.u.)
   Center  Symbol    Alpha    Beta     Spin     Total
       1     O     4.17012  4.17012  0.00000 -0.34023
       2     C     2.79810  2.79810  0.00000  0.40379
       3     C     3.13106  3.13106  0.00000 -0.26211
       4     O     4.14712  4.14712  0.00000 -0.29424
       5     C     3.08217  3.08217  0.00000 -0.16434
       6     H     0.44418  0.44418  0.00000  0.11163
       7     H     0.43672  0.43672  0.00000  0.12656
       8     C     3.08523  3.08523  0.00000 -0.17047
       9     H     0.44341  0.44341  0.00000  0.11318
      10     H     0.44552  0.44552  0.00000  0.10897
      11     C     3.14981  3.14981  0.00000 -0.29962
      12     H     0.45598  0.45598  0.00000  0.08804
      13     H     0.45530  0.45530  0.00000  0.08940
      14     H     0.45335  0.45335  0.00000  0.09331
      15     H     0.44812  0.44812  0.00000  0.10376
      16     H     0.45319  0.45319  0.00000  0.09362
      17     C     3.04656  3.04656  0.00000 -0.09312
      18     H     0.46086  0.46086  0.00000  0.07828
      19     H     0.43552  0.43552  0.00000  0.12895
      20     H     0.45769  0.45769  0.00000  0.08463

   Total alpha = 32.00000, Total beta = 32.00000, Total charge = -0.00000

*** Psi4 exiting successfully. Buy a developer a beer!
