  ==> Input File <==

--------------------------------------------------------------------------
set {
	reference rhf
	basis 6-31G*
}

set_num_threads( 1 )
memory 2 gb

molecule MOL {
0 1

O	 3.225979	 0.970355	 -0.599647
C	 2.701189	 0.057885	 -0.047330
C	 1.245376	 -0.013843	 0.345420
O	 3.347903	 -1.046386	 0.304773
C	 0.987388	 0.445689	 1.778733
H	 0.691391	 0.576436	 -0.376981
H	 0.921759	 -1.041350	 0.199820
C	 -0.468610	 0.280208	 2.227262
H	 1.288402	 1.483868	 1.882153
H	 1.630514	 -0.119988	 2.444182
C	 -1.475313	 1.170197	 1.492701
H	 -0.520618	 0.501492	 3.290772
H	 -0.764217	 -0.762613	 2.121667
C	 -2.894843	 1.048614	 2.050510
H	 -1.150673	 2.207521	 1.558930
H	 -1.491809	 0.922273	 0.433818
C	 -3.910386	 1.929628	 1.320705
H	 -2.889380	 1.308234	 3.107772
H	 -3.216015	 0.009670	 1.994449
C	 -5.324711	 1.805239	 1.886315
H	 -3.590452	 2.968064	 1.374888
H	 -3.920439	 1.668623	 0.264506
H	 -6.021183	 2.441159	 1.348599
H	 -5.354882	 2.093125	 2.933409
H	 -5.687071	 0.783534	 1.814988
C	 4.728119	 -1.109107	 -0.004993
H	 4.882018	 -1.033965	 -1.071845
H	 5.068212	 -2.067527	 0.355250
H	 5.265056	 -0.311663	 0.488280

	symmetry c1
}
set optking {
	frozen_dihedral = ("
		21 17 14 11,
		17 14 11 15,
		15 11 8 5,
		6 3 5 9,
		11 8 5 9,
		2 4 26 27,
		1 2 4 26
	")
}

ee = energy('scf')
oeprop('DIPOLE', 'QUADRUPOLE', 'MULLIKEN_CHARGES')
f=open( 'psi4out.xyz', 'w' )
f.write( "29  " )
f.write( str(ee) + "\n" )
f.write( MOL.save_string_xyz() )
f.close()
--------------------------------------------------------------------------

    Molecular point group: c1

    Geometry (in Angstrom), charge = 0, multiplicity = 1:

       Center              X                  Y                   Z               Mass
    ------------   -----------------  -----------------  -----------------  -----------------
           O          2.990531159186     0.477876977724    -1.562326335466    15.994914619560
           C          2.465741159186    -0.434593022276    -1.010009335466    12.000000000000
           C          1.009928159186    -0.506321022276    -0.617259335466    12.000000000000
           O          3.112455159186    -1.538864022276    -0.657906335466    15.994914619560
           C          0.751940159186    -0.046789022276     0.816053664534    12.000000000000
           H          0.455943159186     0.083957977724    -1.339660335466     1.007825032070
           H          0.686311159186    -1.533828022276    -0.762859335466     1.007825032070
           C         -0.704057840814    -0.212270022276     1.264582664534    12.000000000000
           H          1.052954159186     0.991389977724     0.919473664534     1.007825032070
           H          1.395066159186    -0.612466022276     1.481502664534     1.007825032070
           C         -1.710760840814     0.677718977724     0.530021664534    12.000000000000
           H         -0.756065840814     0.009013977724     2.328092664534     1.007825032070
           H         -0.999664840814    -1.255091022276     1.158987664534     1.007825032070
           C         -3.130290840814     0.556135977724     1.087830664534    12.000000000000
           H         -1.386120840814     1.715042977724     0.596250664534     1.007825032070
           H         -1.727256840814     0.429794977724    -0.528861335466     1.007825032070
           C         -4.145833840814     1.437149977724     0.358025664534    12.000000000000
           H         -3.124827840814     0.815755977724     2.145092664534     1.007825032070
           H         -3.451462840814    -0.482808022276     1.031769664534     1.007825032070
           C         -5.560158840814     1.312760977724     0.923635664534    12.000000000000
           H         -3.825899840814     2.475585977724     0.412208664534     1.007825032070
           H         -4.155886840814     1.176144977724    -0.698173335466     1.007825032070
           H         -6.256630840814     1.948680977724     0.385919664534     1.007825032070
           H         -5.590329840814     1.600646977724     1.970729664534     1.007825032070
           H         -5.922518840814     0.291055977724     0.852308664534     1.007825032070
           C          4.492671159186    -1.601585022276    -0.967672335466    12.000000000000
           H          4.646570159186    -1.526443022276    -2.034524335466     1.007825032070
           H          4.832764159186    -2.560005022276    -0.607429335466     1.007825032070
           H          5.029608159186    -0.804141022276    -0.474399335466     1.007825032070

  Charge       = 0
  Multiplicity = 1
  Basis Set: 6-31G*
  Basis Set:

    Orbital Energies (a.u.)
    -----------------------

    Doubly Occupied:

       1A    -20.603714     2A    -20.543213     3A    -11.370483
       4A    -11.280072     5A    -11.232514     6A    -11.229586
       7A    -11.222198     8A    -11.217615     9A    -11.216461
      10A    -11.215677    11A    -11.209475    12A     -1.468263
      13A     -1.360941    14A     -1.101510    15A     -1.068851
      16A     -1.019793    17A     -0.975626    18A     -0.930461
      19A     -0.864963    20A     -0.800706    21A     -0.791514
      22A     -0.771562    23A     -0.697376    24A     -0.677986
      25A     -0.672953    26A     -0.652266    27A     -0.625095
      28A     -0.604126    29A     -0.595942    30A     -0.579851
      31A     -0.569143    32A     -0.549224    33A     -0.540692
      34A     -0.529396    35A     -0.520232    36A     -0.513318
      37A     -0.496765    38A     -0.483004    39A     -0.472243
      40A     -0.464499    41A     -0.463136    42A     -0.454322
      43A     -0.444481    44A     -0.427691

  @DF-RHF Final Energy:  -501.04208358839799

   => Energetics <=

    Nuclear Repulsion Energy =            610.9178338580524041
    One-Electron Energy =               -1892.8618905933076348
    Two-Electron Energy =                 780.9019731468554255
    DFT Exchange-Correlation Energy =       0.0000000000000000
    Empirical Dispersion Energy =           0.0000000000000000
    PCM Polarization Energy =               0.0000000000000000
    EFP Energy =                            0.0000000000000000
    Total Energy =                       -501.0420835883999189

  Mulliken Charges: (a.u.)
   Center  Symbol    Alpha    Beta     Spin     Total
       1     O     4.28451  4.28451  0.00000 -0.56903
       2     C     2.61775  2.61775  0.00000  0.76450
       3     C     3.19659  3.19659  0.00000 -0.39317
       4     O     4.30224  4.30224  0.00000 -0.60448
       5     C     3.16484  3.16484  0.00000 -0.32968
       6     H     0.39924  0.39924  0.00000  0.20151
       7     H     0.40507  0.40507  0.00000  0.18986
       8     C     3.15544  3.15544  0.00000 -0.31088
       9     H     0.41045  0.41045  0.00000  0.17910
      10     H     0.41004  0.41004  0.00000  0.17992
      11     C     3.15507  3.15507  0.00000 -0.31013
      12     H     0.41823  0.41823  0.00000  0.16354
      13     H     0.42125  0.42125  0.00000  0.15750
      14     C     3.15073  3.15073  0.00000 -0.30146
      15     H     0.42130  0.42130  0.00000  0.15739
      16     H     0.42180  0.42180  0.00000  0.15639
      17     C     3.15161  3.15161  0.00000 -0.30322
      18     H     0.42358  0.42358  0.00000  0.15284
      19     H     0.42387  0.42387  0.00000  0.15226
      20     C     3.23944  3.23944  0.00000 -0.47887
      21     H     0.42230  0.42230  0.00000  0.15539
      22     H     0.42283  0.42283  0.00000  0.15435
      23     H     0.41887  0.41887  0.00000  0.16226
      24     H     0.42167  0.42167  0.00000  0.15666
      25     H     0.42183  0.42183  0.00000  0.15635
      26     C     3.09258  3.09258  0.00000 -0.18516
      27     H     0.40880  0.40880  0.00000  0.18239
      28     H     0.40888  0.40888  0.00000  0.18224
      29     H     0.40919  0.40919  0.00000  0.18162

   Total alpha = 44.00000, Total beta = 44.00000, Total charge =  0.00000
