  ==> Input File <==

--------------------------------------------------------------------------
set {
	reference rhf
	basis 6-31G*
}

set_num_threads( 4 )
memory 2 gb

molecule MOL {
0 1

H	 0.792913	 -5.176826	 -2.726182
C	 0.912493	 -4.413920	 -1.963669
C	 -0.257581	 -3.431265	 -1.980340
H	 0.989118	 -4.916742	 -1.003707
H	 1.856307	 -3.908453	 -2.147965
C	 -0.127859	 -2.340084	 -0.922563
H	 -1.192560	 -3.958941	 -1.819834
H	 -0.326675	 -2.970574	 -2.964404
N	 -1.268658	 -1.446027	 -0.948991
H	 -0.085129	 -2.798420	 0.061849
H	 0.820596	 -1.809554	 -1.058020
C	 -1.217365	 -0.386708	 0.039277
H	 -1.355622	 -1.044301	 -1.863373
C	 -2.452633	 0.504241	 -0.042481
H	 -1.172857	 -0.848333	 1.022069
H	 -0.315698	 0.227728	 -0.054795
C	 -3.758029	 -0.289423	 -0.010781
H	 -2.394220	 1.093569	 -0.952170
H	 -2.440793	 1.210787	 0.785871
H	 -3.816659	 -0.981993	 -0.845726
H	 -4.617837	 0.370165	 -0.069296
H	 -3.847478	 -0.867502	 0.904682

	symmetry c1
}
set optking {
	frozen_dihedral = ("
		15 12 14 18
	")
}

ee = optimize('scf')
oeprop('DIPOLE', 'QUADRUPOLE', 'MULLIKEN_CHARGES')
f=open( 'psi4out.xyz', 'w' )
f.write( "22  " )
f.write( str(ee) + "\n" )
f.write( MOL.save_string_xyz() )
f.close()
--------------------------------------------------------------------------

    Molecular point group: c1
  Charge       = 0
  Multiplicity = 1
  Basis Set: 6-31G*
  Basis Set:
  @DF-RHF Final Energy:  -290.38200054651509
    Total Energy =                       -290.3820005465152008
    Molecular point group: c1
  Basis Set: 6-31G*
  Basis Set:
  Basis Set: 6-31G*
  Basis Set:
  @DF-RHF Final Energy:  -290.38235234630696
    Total Energy =                       -290.3823523463065044
  Basis Set: 6-31G*
  Basis Set:
  Basis Set: 6-31G*
  Basis Set:
  @DF-RHF Final Energy:  -290.38251883499726
    Total Energy =                       -290.3825188349973132
  Basis Set: 6-31G*
  Basis Set:
  Basis Set: 6-31G*
  Basis Set:
  @DF-RHF Final Energy:  -290.38252295029343
    Total Energy =                       -290.3825229502933780
  Basis Set: 6-31G*
  Basis Set:
  Charge       = 0
  Multiplicity = 1
  Basis Set: 6-31G*
  Basis Set:

    Orbital Energies (a.u.)
    -----------------------

    Doubly Occupied:

       1A    -15.534530     2A    -11.238656     3A    -11.238497
       4A    -11.214130     5A    -11.214043     6A    -11.210090
       7A    -11.200374     8A     -1.206523     9A     -1.058051
      10A     -1.021860    11A     -0.926143    12A     -0.876479
      13A     -0.806522    14A     -0.789997    15A     -0.661472
      16A     -0.632947    17A     -0.613408    18A     -0.609513
      19A     -0.571881    20A     -0.565301    21A     -0.536066
      22A     -0.526420    23A     -0.501861    24A     -0.488228
      25A     -0.481831    26A     -0.470320    27A     -0.465887
      28A     -0.450435    29A     -0.358623

  @DF-RHF Final Energy:  -290.38252308235604

   => Energetics <=

    Nuclear Repulsion Energy =            317.7910453230350072
    One-Electron Energy =               -1021.4069591412377349
    Two-Electron Energy =                 413.2333907358470242
    DFT Exchange-Correlation Energy =       0.0000000000000000
    Empirical Dispersion Energy =           0.0000000000000000
    PCM Polarization Energy =               0.0000000000000000
    EFP Energy =                            0.0000000000000000
    Total Energy =                       -290.3825230823556467
    Molecular point group: c1
  Basis Set: 6-31G*
  Basis Set:

  -Total Gradient:
     Atom            X                  Y                   Z
    ------   -----------------  -----------------  -----------------
       1       -0.000000089553     0.000005558496    -0.000003161210
       2        0.000008436664     0.000013808293    -0.000005364197
       3       -0.000001290596     0.000000492261    -0.000003005671
       4       -0.000005706246     0.000000027186    -0.000001811669
       5        0.000005589589    -0.000001923705     0.000003291401
       6       -0.000007241067    -0.000026971398     0.000019961386
       7        0.000000425350     0.000005019594     0.000015420730
       8       -0.000002069197    -0.000005039603    -0.000007072049
       9        0.000008019416     0.000009949515    -0.000012230450
      10        0.000002002360    -0.000001885931     0.000005678858
      11       -0.000006435070    -0.000003535112    -0.000005514445
      12       -0.001430132705    -0.001979401241    -0.000751313095
      13       -0.000005307513     0.000003746130    -0.000004914600
      14       -0.001240094964    -0.001802348450    -0.001362960701
      15        0.001410307852     0.001963927619     0.000849252884
      16        0.000003433513    -0.000011592359    -0.000004062862
      17       -0.000003682760     0.000009928657     0.000020527520
      18        0.001284842482     0.001830776043     0.001255284704
      19       -0.000009890017     0.000004482048     0.000002360884
      20       -0.000000353198    -0.000001797747    -0.000006740501
      21       -0.000001741539    -0.000008784032    -0.000001533823
      22       -0.000009022800    -0.000004436264    -0.000002093095

  **** Optimization is complete! (in 5 steps) ****
    Final optimized geometry and variables:
    Molecular point group: c1

    Geometry (in Angstrom), charge = 0, multiplicity = 1:

    H            2.015690087469    -3.478147798468    -1.890818929227
    C            2.115112137344    -2.719859002802    -1.120840972790
    C            0.938979266230    -1.744933109042    -1.154019912783
    H            2.176094991553    -3.228833307335    -0.163042252775
    H            3.058949193066    -2.206892479577    -1.282959847979
    C            1.040719680421    -0.660389660295    -0.086502758058
    H            0.004644690701    -2.279875954727    -1.015398244335
    H            0.886158192995    -1.277904379842    -2.136163062305
    N           -0.104052469081     0.227811398304    -0.130173463325
    H            1.065676357810    -1.124714430684     0.895612738426
    H            1.988468736555    -0.123289538563    -0.198900030620
    C           -0.074819552388     1.281150041624     0.864635044424
    H           -0.173850085349     0.636869123884    -1.043287118942
    C           -1.298700750954     2.192386651622     0.783034490220
    H           -0.032230136758     0.824628189291     1.850066219115
    H            0.826251222425     1.897913444046     0.783154655799
    C           -2.634753338184     1.457410034969     0.869359525910
    H           -1.248310609646     2.783721056353    -0.130171740536
    H           -1.228578602263     2.912173372117     1.595734017692
    H           -2.759141701661     0.763614813206     0.047630315908
    H           -3.462337804070     2.160380508765     0.851783587532
    H           -2.702129583343     0.887789410760     1.791953936047

  Mulliken Charges: (a.u.)
   Center  Symbol    Alpha    Beta     Spin     Total
       1     H     0.41765  0.41765  0.00000  0.16470
       2     C     3.24335  3.24335  0.00000 -0.48669
       3     C     3.15557  3.15557  0.00000 -0.31114
       4     H     0.42062  0.42062  0.00000  0.15876
       5     H     0.42159  0.42159  0.00000  0.15681
       6     C     3.04622  3.04622  0.00000 -0.09245
       7     H     0.41306  0.41306  0.00000  0.17388
       8     H     0.42667  0.42667  0.00000  0.14666
       9     N     3.85531  3.85531  0.00000 -0.71063
      10     H     0.42135  0.42135  0.00000  0.15731
      11     H     0.43627  0.43627  0.00000  0.12745
      12     C     3.05110  3.05110  0.00000 -0.10219
      13     H     0.33552  0.33552  0.00000  0.32896
      14     C     3.16082  3.16082  0.00000 -0.32165
      15     H     0.42181  0.42181  0.00000  0.15638
      16     H     0.43430  0.43430  0.00000  0.13141
      17     C     3.23372  3.23372  0.00000 -0.46743
      18     H     0.42598  0.42598  0.00000  0.14804
      19     H     0.42122  0.42122  0.00000  0.15756
      20     H     0.41112  0.41112  0.00000  0.17777
      21     H     0.42380  0.42380  0.00000  0.15240
      22     H     0.42296  0.42296  0.00000  0.15408

   Total alpha = 29.00000, Total beta = 29.00000, Total charge =  0.00000
