  ==> Input File <==

--------------------------------------------------------------------------
set {
	reference rhf
	basis 6-31G*
}

set_num_threads( 4 )
memory 2 gb

molecule MOL {
0 1

O	 -2.042549	 -1.228399	 -0.269030
C	 -1.653912	 -0.146171	 0.050137
C	 -0.332303	 0.024011	 0.778412
C	 -2.438579	 1.106236	 -0.272369
C	 0.845713	 -0.001731	 -0.208243
H	 -0.323783	 0.953829	 1.340327
H	 -0.235459	 -0.796807	 1.480410
C	 0.547241	 -0.827769	 -1.460284
H	 1.729419	 -0.403829	 0.284163
H	 1.083956	 1.019652	 -0.489594
C	 1.713701	 -0.847722	 -2.447290
H	 0.300474	 -1.846945	 -1.170780
H	 -0.335853	 -0.426177	 -1.951644
H	 2.603668	 -1.276019	 -1.994992
H	 1.962314	 0.155750	 -2.779973
H	 1.472837	 -1.437730	 -3.325870
H	 -3.277823	 0.863061	 -0.908988
H	 -1.806773	 1.843019	 -0.759671
H	 -2.802853	 1.554979	 0.648059

	symmetry c1
}
set optking {
	frozen_dihedral = ("
		9 5 3 2
	")
}

ee = optimize('scf')
oeprop('DIPOLE', 'QUADRUPOLE', 'MULLIKEN_CHARGES')
f=open( 'psi4out.xyz', 'w' )
f.write( "19  " )
f.write( str(ee) + "\n" )
f.write( MOL.save_string_xyz() )
f.close()
--------------------------------------------------------------------------

    Molecular point group: c1
  Charge       = 0
  Multiplicity = 1
  Basis Set: 6-31G*
  Basis Set:
  @DF-RHF Final Energy:  -309.05602008313519
    Total Energy =                       -309.0560200831351381
    Molecular point group: c1
  Basis Set: 6-31G*
  Basis Set:
  Basis Set: 6-31G*
  Basis Set:
  @DF-RHF Final Energy:  -309.05870827290886
    Total Energy =                       -309.0587082729090298
  Basis Set: 6-31G*
  Basis Set:
  Basis Set: 6-31G*
  Basis Set:
  @DF-RHF Final Energy:  -309.05870916956945
    Total Energy =                       -309.0587091695692834
  Basis Set: 6-31G*
  Basis Set:
  Basis Set: 6-31G*
  Basis Set:
  @DF-RHF Final Energy:  -309.05974300322799
    Total Energy =                       -309.0597430032282773
  Basis Set: 6-31G*
  Basis Set:
  @DF-RHF Final Energy:  -309.06001634345938
    Total Energy =                       -309.0600163434595515
  @DF-RHF Final Energy:  -309.06013043852136
    Total Energy =                       -309.0601304385212416
  @DF-RHF Final Energy:  -309.06032312105202
    Total Energy =                       -309.0603231210520789
  @DF-RHF Final Energy:  -309.06035162401264
    Total Energy =                       -309.0603516240126396
  Basis Set: 6-31G*
  Basis Set:
  @DF-RHF Final Energy:  -309.06035732058791
    Total Energy =                       -309.0603573205879115
  Basis Set: 6-31G*
  Basis Set:
  Basis Set: 6-31G*
  Basis Set:
  @DF-RHF Final Energy:  -309.06036655928011
    Total Energy =                       -309.0603665592799985
  Basis Set: 6-31G*
  Basis Set:
  Basis Set: 6-31G*
  Basis Set:
  @DF-RHF Final Energy:  -309.06036820262835
    Total Energy =                       -309.0603682026284105
  Basis Set: 6-31G*
  Basis Set:
  Charge       = 0
  Multiplicity = 1
  Basis Set: 6-31G*
  Basis Set:

    Orbital Energies (a.u.)
    -----------------------

    Doubly Occupied:

       1A    -20.548235     2A    -11.324485     3A    -11.232556
       4A    -11.229499     5A    -11.227859     6A    -11.221841
       7A    -11.213927     8A     -1.393862     9A     -1.089643
      10A     -1.026260    11A     -0.982868    12A     -0.890983
      13A     -0.812157    14A     -0.726453    15A     -0.659178
      16A     -0.643879    17A     -0.621099    18A     -0.616772
      19A     -0.582135    20A     -0.572192    21A     -0.556826
      22A     -0.541432    23A     -0.509057    24A     -0.494667
      25A     -0.485818    26A     -0.470979    27A     -0.464159
      28A     -0.397391

  @DF-RHF Final Energy:  -309.06036855319138

   => Energetics <=

    Nuclear Repulsion Energy =            309.6516893040368927
    One-Electron Energy =               -1032.3516893372557206
    Two-Electron Energy =                 413.6396314800274467
    DFT Exchange-Correlation Energy =       0.0000000000000000
    Empirical Dispersion Energy =           0.0000000000000000
    PCM Polarization Energy =               0.0000000000000000
    EFP Energy =                            0.0000000000000000
    Total Energy =                       -309.0603685531914380
    Molecular point group: c1
  Basis Set: 6-31G*
  Basis Set:

  -Total Gradient:
     Atom            X                  Y                   Z
    ------   -----------------  -----------------  -----------------
       1        0.000011480266     0.000009038825    -0.000011923167
       2        0.000333561265    -0.004321937080     0.000192254019
       3       -0.000858541994     0.004956944898    -0.000680670545
       4       -0.000004597258    -0.000005009092    -0.000005749021
       5        0.002011470524     0.004597434518     0.002442604998
       6       -0.000005632045     0.000000734878     0.000009673684
       7        0.000029217906     0.000012517419     0.000009826235
       8        0.000007672689     0.000022385371     0.000001995624
       9       -0.001524929048    -0.005262660850    -0.001936285448
      10       -0.000008642374    -0.000002048678    -0.000027867448
      11        0.000008447863    -0.000001773773    -0.000009741342
      12        0.000001276916    -0.000000470113     0.000010752851
      13        0.000002247146    -0.000004132139    -0.000011146415
      14       -0.000003979535    -0.000005984085    -0.000002297088
      15       -0.000002865066    -0.000003894325     0.000013299131
      16       -0.000003117350     0.000004095319    -0.000004431852
      17        0.000001866096    -0.000000028912     0.000005443571
      18        0.000007529024     0.000004839885    -0.000001894703
      19       -0.000002465021    -0.000000052065     0.000006156917

  **** Optimization is complete! (in 12 steps) ****
    Final optimized geometry and variables:
    Molecular point group: c1

    Geometry (in Angstrom), charge = 0, multiplicity = 1:

    O           -1.763649386187    -0.952926780812     0.668602662574
    C           -1.209676234760     0.103031151418     0.704918396455
    C            0.179803876683     0.244048468275     1.301504147965
    C           -1.867466968409     1.358857309744     0.173029029045
    C            1.319999160718     0.298908228894     0.253435555484
    H            0.221868253889     1.128032543895     1.931437519037
    H            0.319174090715    -0.622414641636     1.936419223959
    C            1.060554251952    -0.503685175751    -1.028291671108
    H            2.203962321648    -0.128714743406     0.716470576567
    H            1.550438069729     1.328563935058    -0.003842851998
    C            2.280936070522    -0.527076049872    -1.947804789881
    H            0.778511998468    -1.519402316091    -0.767025694624
    H            0.216507850933    -0.086979779013    -1.572052813160
    H            3.133920839907    -0.987082125942    -1.457091360118
    H            2.571885125975     0.477556455221    -2.242217918518
    H            2.076721325745    -1.090562358242    -2.852496454059
    H           -2.752768168743     1.101600862009    -0.391975216115
    H           -1.184116966586     1.929317067743    -0.448207848803
    H           -2.151142822286     1.995474123506     1.007273845761

  Mulliken Charges: (a.u.)
   Center  Symbol    Alpha    Beta     Spin     Total
       1     O     4.26237  4.26237  0.00000 -0.52473
       2     C     2.73572  2.73572  0.00000  0.52855
       3     C     3.20352  3.20352  0.00000 -0.40704
       4     C     3.28886  3.28886  0.00000 -0.57773
       5     C     3.15883  3.15883  0.00000 -0.31766
       6     H     0.41301  0.41301  0.00000  0.17398
       7     H     0.40013  0.40013  0.00000  0.19974
       8     C     3.16237  3.16237  0.00000 -0.32474
       9     H     0.41331  0.41331  0.00000  0.17338
      10     H     0.41909  0.41909  0.00000  0.16181
      11     C     3.23998  3.23998  0.00000 -0.47996
      12     H     0.40851  0.40851  0.00000  0.18297
      13     H     0.42131  0.42131  0.00000  0.15738
      14     H     0.42061  0.42061  0.00000  0.15877
      15     H     0.42232  0.42232  0.00000  0.15536
      16     H     0.41597  0.41597  0.00000  0.16806
      17     H     0.39712  0.39712  0.00000  0.20576
      18     H     0.41072  0.41072  0.00000  0.17857
      19     H     0.40624  0.40624  0.00000  0.18753

   Total alpha = 28.00000, Total beta = 28.00000, Total charge =  0.00000
