  ==> Input File <==

--------------------------------------------------------------------------
set {
	reference rhf
	basis 6-31G*
}

set_num_threads( 4 )
memory 2 gb

molecule MOL {
0 1

O	 -2.821601	 1.309235	 -0.001213
C	 -2.668563	 0.129746	 -0.000350
C	 -3.801572	 -0.864014	 -0.000442
O	 -1.481751	 -0.454642	 0.000584
H	 -4.417280	 -0.689587	 -0.874708
H	 -3.443784	 -1.883046	 -0.000565
H	 -4.417179	 -0.689832	 0.873954
C	 -0.334255	 0.388708	 0.000906
C	 0.891947	 -0.504646	 0.000751
H	 -0.365390	 1.025305	 -0.873475
H	 -0.365484	 1.024911	 0.875569
C	 2.191998	 0.301789	 0.000897
H	 0.855148	 -1.151283	 -0.871571
H	 0.855132	 -1.151660	 0.872805
C	 3.441114	 -0.581407	 0.000108
H	 2.215074	 0.954890	 -0.869742
H	 2.215465	 0.953923	 0.872248
C	 3.729209	 -1.206084	 1.364530
H	 4.298368	 0.009072	 -0.315368
H	 3.323570	 -1.369220	 -0.740570
H	 3.885146	 -0.441974	 2.120727
H	 4.619820	 -1.825763	 1.332196
H	 2.903198	 -1.830877	 1.692171

	symmetry c1
}
set optking {
	frozen_dihedral = ("
		19 15 12 16
	")
}

ee = optimize('scf')
oeprop('DIPOLE', 'QUADRUPOLE', 'MULLIKEN_CHARGES')
f=open( 'psi4out.xyz', 'w' )
f.write( "23  " )
f.write( str(ee) + "\n" )
f.write( MOL.save_string_xyz() )
f.close()
--------------------------------------------------------------------------

    Molecular point group: c1
  Charge       = 0
  Multiplicity = 1
  Basis Set: 6-31G*
  Basis Set:
  @DF-RHF Final Energy:  -422.97740793869553
    Total Energy =                       -422.9774079386955918
    Molecular point group: c1
  Basis Set: 6-31G*
  Basis Set:
  Basis Set: 6-31G*
  Basis Set:
  @DF-RHF Final Energy:  -422.97760003495705
    Total Energy =                       -422.9776000349570495
  Basis Set: 6-31G*
  Basis Set:
  Basis Set: 6-31G*
  Basis Set:
  @DF-RHF Final Energy:  -422.97762193464598
    Total Energy =                       -422.9776219346454127
  Basis Set: 6-31G*
  Basis Set:
  Basis Set: 6-31G*
  Basis Set:
  @DF-RHF Final Energy:  -422.97752732558212
    Total Energy =                       -422.9775273255820593
  Basis Set: 6-31G*
  Basis Set:
  Basis Set: 6-31G*
  Basis Set:
  @DF-RHF Final Energy:  -422.97763190949166
    Total Energy =                       -422.9776319094912651
  Basis Set: 6-31G*
  Basis Set:
  Charge       = 0
  Multiplicity = 1
  Basis Set: 6-31G*
  Basis Set:

    Orbital Energies (a.u.)
    -----------------------

    Doubly Occupied:

       1A    -20.603047     2A    -20.540567     3A    -11.374120
       4A    -11.281521     5A    -11.232420     6A    -11.224418
       7A    -11.223819     8A    -11.221895     9A    -11.213203
      10A     -1.467991    11A     -1.360775    12A     -1.093941
      13A     -1.041214    14A     -1.002218    15A     -0.931153
      16A     -0.851943    17A     -0.795225    18A     -0.772378
      19A     -0.691309    20A     -0.685251    21A     -0.669699
      22A     -0.633606    23A     -0.617842    24A     -0.598126
      25A     -0.577386    26A     -0.571558    27A     -0.546647
      28A     -0.536585    29A     -0.526254    30A     -0.507510
      31A     -0.497946    32A     -0.472850    33A     -0.466485
      34A     -0.466058    35A     -0.451246    36A     -0.435384

  @DF-RHF Final Energy:  -422.97763206044169

   => Energetics <=

    Nuclear Repulsion Energy =            453.5234184884152455
    One-Electron Energy =               -1474.6349160170609593
    Two-Electron Energy =                 598.1338654682035667
    DFT Exchange-Correlation Energy =       0.0000000000000000
    Empirical Dispersion Energy =           0.0000000000000000
    PCM Polarization Energy =               0.0000000000000000
    EFP Energy =                            0.0000000000000000
    Total Energy =                       -422.9776320604421471
    Molecular point group: c1
  Basis Set: 6-31G*
  Basis Set:

  -Total Gradient:
     Atom            X                  Y                   Z
    ------   -----------------  -----------------  -----------------
       1       -0.000000697078    -0.000000136863     0.000005466990
       2       -0.000001713027    -0.000001663201    -0.000007957578
       3        0.000001206672     0.000001278701     0.000005013302
       4       -0.000016174797    -0.000002983737     0.000005480048
       5        0.000001109353    -0.000000734003    -0.000001516393
       6        0.000000627104     0.000000000872    -0.000000274476
       7       -0.000000358108     0.000001247852    -0.000001167654
       8        0.000004021997    -0.000007147105    -0.000004677713
       9        0.000002290331     0.000006606228    -0.000004972230
      10        0.000003994964    -0.000000697644     0.000003316559
      11        0.000000274444     0.000002307930     0.000001002193
      12       -0.001109827880    -0.001638767695    -0.001555400142
      13        0.000000288984     0.000004046485    -0.000001301602
      14        0.000001626125     0.000002555733    -0.000001098407
      15        0.000562549099     0.000845014357     0.002307720303
      16        0.000839639342     0.001251745551     0.000947106521
      17       -0.000001576464    -0.000001199396    -0.000000963145
      18        0.000010101407    -0.000001834263     0.000002544371
      19       -0.000292892452    -0.000462259046    -0.001693156192
      20       -0.000003079990     0.000000851357     0.000004642905
      21       -0.000007102259     0.000000802018    -0.000006526264
      22        0.000006458064    -0.000001950111     0.000002534110
      23       -0.000000765828     0.000002915980    -0.000005815505

  **** Optimization is complete! (in 6 steps) ****
    Final optimized geometry and variables:
    Molecular point group: c1

    Geometry (in Angstrom), charge = 0, multiplicity = 1:

    O           -2.705520262387     1.482331044474    -0.177349756716
    C           -2.558864217340     0.302089157565    -0.165863457016
    C           -3.697299594511    -0.685439118659    -0.161254438252
    O           -1.375286091468    -0.288767895631    -0.155507409961
    H           -4.309416703726    -0.514859282777    -1.038786735850
    H           -3.345118652083    -1.706384755053    -0.151878503164
    H           -4.314559689298    -0.500689035160     0.709802576587
    C           -0.223117837315     0.548277816071    -0.158586030270
    C            0.998192181821    -0.351861894543    -0.144200990651
    H           -0.246853493813     1.176295072853    -1.039388923464
    H           -0.254612900717     1.193307932762     0.709579757884
    C            2.299783730605     0.453421809357    -0.150135227663
    H            0.963574285616    -1.004324101424    -1.012357580849
    H            0.946884916583    -0.990838434633     0.731663610993
    C            3.568417964318    -0.409602908676    -0.144186146836
    H            2.318615806485     1.102691963576    -1.022652120953
    H            2.319458934332     1.118106353790     0.712324565129
    C            3.886584109615    -1.048903928738     1.207750043783
    H            4.409427624963     0.202662830372    -0.458281266044
    H            3.473458052285    -1.187914186248    -0.898709593185
    H            4.019047590944    -0.291402500767     1.975145022301
    H            4.802593124548    -1.628996030675     1.154994657521
    H            3.096689174689    -1.717202320305     1.535360560894

  Mulliken Charges: (a.u.)
   Center  Symbol    Alpha    Beta     Spin     Total
       1     O     4.28389  4.28389  0.00000 -0.56777
       2     C     2.61535  2.61535  0.00000  0.76929
       3     C     3.28774  3.28774  0.00000 -0.57548
       4     O     4.31275  4.31275  0.00000 -0.62549
       5     H     0.39749  0.39749  0.00000  0.20503
       6     H     0.39990  0.39990  0.00000  0.20021
       7     H     0.39749  0.39749  0.00000  0.20501
       8     C     2.99551  2.99551  0.00000  0.00899
       9     C     3.16588  3.16588  0.00000 -0.33176
      10     H     0.41068  0.41068  0.00000  0.17865
      11     H     0.41058  0.41058  0.00000  0.17885
      12     C     3.16247  3.16247  0.00000 -0.32493
      13     H     0.41434  0.41434  0.00000  0.17132
      14     H     0.41284  0.41284  0.00000  0.17433
      15     C     3.15340  3.15340  0.00000 -0.30680
      16     H     0.41868  0.41868  0.00000  0.16264
      17     H     0.42104  0.42104  0.00000  0.15791
      18     C     3.24113  3.24113  0.00000 -0.48225
      19     H     0.41853  0.41853  0.00000  0.16295
      20     H     0.42171  0.42171  0.00000  0.15659
      21     H     0.42088  0.42088  0.00000  0.15824
      22     H     0.41779  0.41779  0.00000  0.16441
      23     H     0.41996  0.41996  0.00000  0.16009

   Total alpha = 36.00000, Total beta = 36.00000, Total charge =  0.00000
