                              Psi4 1.0.54 Driver

  ==> Input File <==

--------------------------------------------------------------------------
set {
	reference rhf
	basis cc-pvtz
}

set_num_threads( 4 )
memory 2 gb

molecule MOL {
0 1

H	 2.148137	 -0.602774	 -4.912815
C	 2.465925	 0.069076	 -4.123832
C	 1.313021	 0.396601	 -3.181038
H	 3.280124	 -0.409039	 -3.590257
H	 2.858563	 0.966257	 -4.591487
C	 1.721586	 1.350994	 -2.061137
H	 0.930397	 -0.522077	 -2.751422
H	 0.498954	 0.839802	 -3.749977
C	 0.585923	 1.701872	 -1.105082
H	 2.537406	 0.917974	 -1.495664
H	 2.094660	 2.272093	 -2.499517
C	 0.166485	 0.574257	 -0.177158
H	 0.886259	 2.525696	 -0.462526
H	 -0.284926	 2.055851	 -1.648993
C	 -1.180025	 0.697761	 0.509157
O	 0.870246	 -0.362356	 0.024711
C	 -2.285431	 -0.137488	 -0.145671
H	 -1.447360	 1.745713	 0.496200
H	 -1.065514	 0.394096	 1.546399
C	 -3.646545	 0.082747	 0.508954
H	 -2.348635	 0.118247	 -1.199806
H	 -2.034895	 -1.192387	 -0.096473
C	 -4.757412	 -0.737227	 -0.138149
H	 -3.900211	 1.137405	 0.459735
H	 -3.580878	 -0.166775	 1.564416
H	 -4.867876	 -0.486707	 -1.187777
H	 -4.549650	 -1.800049	 -0.072540
H	 -5.709585	 -0.556397	 0.346597

	symmetry c1
}
set optking {
	frozen_dihedral = ("
		16 12 15 17
	")
}

ee,wfn = optimize('scf', return_wfn=True)
oeprop( wfn, 'DIPOLE', 'QUADRUPOLE', 'MULLIKEN_CHARGES')
f=open( 'psi4out.xyz', 'w' )
f.write( "28  " )
f.write( str(ee) + "\n" )
f.write( MOL.save_string_xyz() )
f.close()
--------------------------------------------------------------------------

    Molecular point group: c1
  Charge       = 0
  Multiplicity = 1
  Basis Set: CC-PVTZ
  Basis Set:
  @DF-RHF Final Energy:  -426.31983715504350
    Total Energy =                       -426.3198371550431602
    Molecular point group: c1
  Basis Set: CC-PVTZ
  Basis Set:
  Basis Set: CC-PVTZ
  Basis Set:
  @DF-RHF Final Energy:  -426.32060707915571
    Total Energy =                       -426.3206070791554794
  Basis Set: CC-PVTZ
  Basis Set:
  Basis Set: CC-PVTZ
  Basis Set:
  @DF-RHF Final Energy:  -426.31981160056444
    Total Energy =                       -426.3198116005643215
  Basis Set: CC-PVTZ
  Basis Set:
  Basis Set: CC-PVTZ
  Basis Set:
  @DF-RHF Final Energy:  -426.32074654315466
    Total Energy =                       -426.3207465431539731
  Basis Set: CC-PVTZ
  Basis Set:
  Basis Set: CC-PVTZ
  Basis Set:
  @DF-RHF Final Energy:  -426.32074557314581
    Total Energy =                       -426.3207455731455866
  Basis Set: CC-PVTZ
  Basis Set:
  Basis Set: CC-PVTZ
  Basis Set:
  @DF-RHF Final Energy:  -426.32075331050726
    Total Energy =                       -426.3207533105066886
  Basis Set: CC-PVTZ
  Basis Set:
  Basis Set: CC-PVTZ
  Basis Set:
  @DF-RHF Final Energy:  -426.32075742462632
    Total Energy =                       -426.3207574246264357
  Basis Set: CC-PVTZ
  Basis Set:
  Charge       = 0
  Multiplicity = 1
  Basis Set: CC-PVTZ
  Basis Set:

    Orbital Energies (a.u.)
    -----------------------

    Doubly Occupied:

       1A    -20.536101     2A    -11.316842     3A    -11.229456
       4A    -11.227094     5A    -11.226365     6A    -11.221929
       7A    -11.214688     8A    -11.212277     9A    -11.210489
      10A    -11.203822    11A     -1.396661    12A     -1.093844
      13A     -1.079275    14A     -1.023632    15A     -0.992284
      16A     -0.909723    17A     -0.869964    18A     -0.806805
      19A     -0.799193    20A     -0.725566    21A     -0.671635
      22A     -0.653092    23A     -0.626972    24A     -0.621848
      25A     -0.610473    26A     -0.589892    27A     -0.576238
      28A     -0.573777    29A     -0.545172    30A     -0.530473
      31A     -0.518801    32A     -0.511629    33A     -0.503296
      34A     -0.481629    35A     -0.478222    36A     -0.473901
      37A     -0.469648    38A     -0.466586    39A     -0.457457
      40A     -0.393810

  @DF-RHF Final Energy:  -426.32075746238149

   => Energetics <=

    Nuclear Repulsion Energy =            535.3544592326053362
    One-Electron Energy =               -1639.2493063838912803
    Two-Electron Energy =                 677.5740896889047917
    DFT Exchange-Correlation Energy =       0.0000000000000000
    Empirical Dispersion Energy =           0.0000000000000000
    PCM Polarization Energy =               0.0000000000000000
    EFP Energy =                            0.0000000000000000
    Total Energy =                       -426.3207574623810387
    Molecular point group: c1
  Basis Set: CC-PVTZ
  Basis Set:

  -Total Gradient:
     Atom            X                  Y                   Z
    ------   -----------------  -----------------  -----------------
       1       -0.000001910025     0.000001554860     0.000001711015
       2        0.000001882723     0.000002877049    -0.000000286987
       3        0.000002262747     0.000008721031    -0.000010148573
       4       -0.000001220722     0.000000630590     0.000000307732
       5        0.000001316437    -0.000000635192    -0.000000515875
       6        0.000012284268     0.000010229533    -0.000004167394
       7       -0.000005723913    -0.000005793791     0.000004409408
       8        0.000001301032    -0.000002862317     0.000000531890
       9       -0.000011994774    -0.000006868781    -0.000012580651
      10       -0.000005302470     0.000003643300    -0.000001517683
      11        0.000004314677    -0.000002039985    -0.000004519458
      12        0.000140948397     0.000071517500     0.000226729804
      13        0.000001841325    -0.000003238498     0.000002456403
      14        0.000007275432     0.000003098119    -0.000000787085
      15       -0.000068414172     0.000097890308    -0.000153982150
      16       -0.000102979423    -0.000079456857    -0.000124443845
      17        0.000030307546    -0.000106956118     0.000074668891
      18        0.000001144094    -0.000003612448    -0.000001904249
      19       -0.000000513810     0.000000256726     0.000001964934
      20       -0.000008380831     0.000009434067    -0.000009411573
      21        0.000001138877    -0.000001424681     0.000008418907
      22       -0.000000323398     0.000006289974    -0.000001285052
      23        0.000001485813    -0.000002959518     0.000008781300
      24       -0.000001529586    -0.000004177748     0.000000719794
      25       -0.000001901199     0.000003094282    -0.000008284043
      26        0.000001421380    -0.000000074782     0.000009133352
      27       -0.000002318055     0.000005917879    -0.000002825485
      28        0.000003587631    -0.000005054503    -0.000003173326

  **** Optimization is complete! (in 8 steps) ****
    Final optimized geometry and variables:
    Molecular point group: c1

    Geometry (in Angstrom), charge = 0, multiplicity = 1:

    H            2.726585937954    -1.168787824115    -3.865092502339
    C            3.030143244166    -0.481433521281    -3.083904400629
    C            1.851158404043    -0.103591415565    -2.193762274220
    H            3.813784961002    -0.961069323799    -2.507637364155
    H            3.459038884483     0.393655950367    -3.561523510586
    C            2.239108867100     0.875340999228    -1.087650592146
    H            1.433822611500    -1.000509817652    -1.751585868210
    H            1.067976989728     0.339506926578    -2.804613259368
    C            1.079788837360     1.272240050687    -0.181170110063
    H            3.027774324356     0.444081539739    -0.482916620049
    H            2.644387582212     1.776365243137    -1.538961663757
    C            0.620683273704     0.201962062227     0.789075669811
    H            1.354006872588     2.127564351313     0.433507685121
    H            0.221928335389     1.600151711060    -0.762612367038
    C           -0.682168191078     0.456067139868     1.522619718983
    O            1.240645605322    -0.794102039745     0.979494576042
    C           -1.838283237104    -0.309080678757     0.868375443154
    H           -0.905077982665     1.517347892302     1.541303534006
    H           -0.554547131847     0.117814051849     2.543430409466
    C           -3.168843589696    -0.092999661345     1.583230183740
    H           -1.937059753732    -0.004860700592    -0.170783075505
    H           -1.594071021246    -1.365541657133     0.860220561922
    C           -4.318740382235    -0.861783401599     0.941423482358
    H           -3.404804721729     0.967545760016     1.593633514823
    H           -3.068402746222    -0.394030951186     2.621970455985
    H           -4.466283637822    -0.557762534546    -0.089501902386
    H           -4.125920012246    -1.929101384286     0.946145361131
    H           -5.247860864189    -0.690913469863     1.472453280144

  Mulliken Charges: (a.u.)
   Center  Symbol    Alpha    Beta     Spin     Total
       1     H     0.44877  0.44877  0.00000  0.10245
       2     C     3.15152  3.15152  0.00000 -0.30303
       3     C     3.08423  3.08423  0.00000 -0.16847
       4     H     0.45183  0.45183  0.00000  0.09635
       5     H     0.45708  0.45708  0.00000  0.08585
       6     C     3.08762  3.08762  0.00000 -0.17523
       7     H     0.44497  0.44497  0.00000  0.11007
       8     H     0.45889  0.45889  0.00000  0.08223
       9     C     3.12791  3.12791  0.00000 -0.25583
      10     H     0.44524  0.44524  0.00000  0.10952
      11     H     0.44757  0.44757  0.00000  0.10485
      12     C     2.86773  2.86773  0.00000  0.26453
      13     H     0.43346  0.43346  0.00000  0.13308
      14     H     0.44231  0.44231  0.00000  0.11537
      15     C     3.09405  3.09405  0.00000 -0.18810
      16     O     4.18333  4.18333  0.00000 -0.36666
      17     C     3.09470  3.09470  0.00000 -0.18939
      18     H     0.44809  0.44809  0.00000  0.10381
      19     H     0.43896  0.43896  0.00000  0.12209
      20     C     3.08747  3.08747  0.00000 -0.17495
      21     H     0.45283  0.45283  0.00000  0.09434
      22     H     0.44081  0.44081  0.00000  0.11839
      23     C     3.14933  3.14933  0.00000 -0.29866
      24     H     0.45409  0.45409  0.00000  0.09181
      25     H     0.45172  0.45172  0.00000  0.09656
      26     H     0.45510  0.45510  0.00000  0.08980
      27     H     0.45288  0.45288  0.00000  0.09424
      28     H     0.44752  0.44752  0.00000  0.10497

   Total alpha = 40.00000, Total beta = 40.00000, Total charge =  0.00000

*** Psi4 exiting successfully. Buy a developer a beer!
