  ==> Input File <==

--------------------------------------------------------------------------
set {
	reference rhf
	basis cc-pvtz
}

set_num_threads( 4 )
memory 2 gb

molecule MOL {
0 1

H	 -2.362939	 -1.309000	 -0.383250
C	 -1.359344	 -1.272457	 0.020748
C	 -0.684082	 0.000127	 -0.464918
H	 -0.825835	 -2.151141	 -0.318537
H	 -1.416276	 -1.292399	 1.099455
C	 -1.359089	 1.272668	 0.021259
N	 0.742439	 -0.000109	 0.007333
H	 -0.596914	 0.000345	 -1.538146
H	 -2.362696	 1.309620	 -0.382686
H	 -0.825392	 2.151374	 -0.317674
H	 -1.415983	 1.292181	 1.099973
O	 1.093700	 -0.911627	 0.677702
O	 1.426932	 0.911161	 -0.320307

	symmetry c1
}
set optking {
	frozen_dihedral = ("
		12 7 3 8
	")
}

ee = optimize('scf')
oeprop('DIPOLE', 'QUADRUPOLE', 'MULLIKEN_CHARGES')
f=open( 'psi4out.xyz', 'w' )
f.write( "13  " )
f.write( str(ee) + "\n" )
f.write( MOL.save_string_xyz() )
f.close()
--------------------------------------------------------------------------

    Molecular point group: c1
  Charge       = 0
  Multiplicity = 1
  Basis Set: CC-PVTZ
  Basis Set:
  @DF-RHF Final Energy:  -321.86214204354371
    Total Energy =                       -321.8621420435434857
    Molecular point group: c1
  Basis Set: CC-PVTZ
  Basis Set:
  Basis Set: CC-PVTZ
  Basis Set:
  @DF-RHF Final Energy:  -321.86130042369223
    Total Energy =                       -321.8613004236922279
  Basis Set: CC-PVTZ
  Basis Set:
  Basis Set: CC-PVTZ
  Basis Set:
  @DF-RHF Final Energy:  -321.85894262334631
    Total Energy =                       -321.8589426233465929
  Basis Set: CC-PVTZ
  Basis Set:
  Basis Set: CC-PVTZ
  Basis Set:
  @DF-RHF Final Energy:  -321.86284135314702
    Total Energy =                       -321.8628413531470756
  Basis Set: CC-PVTZ
  Basis Set:
  Basis Set: CC-PVTZ
  Basis Set:
  @DF-RHF Final Energy:  -321.86294538285762
    Total Energy =                       -321.8629453828576743
  Basis Set: CC-PVTZ
  Basis Set:
  Basis Set: CC-PVTZ
  Basis Set:
  @DF-RHF Final Energy:  -321.86304650797194
    Total Energy =                       -321.8630465079721148
  Basis Set: CC-PVTZ
  Basis Set:
  Basis Set: CC-PVTZ
  Basis Set:
  @DF-RHF Final Energy:  -321.86305033254285
    Total Energy =                       -321.8630503325428549
  Basis Set: CC-PVTZ
  Basis Set:
  Charge       = 0
  Multiplicity = 1
  Basis Set: CC-PVTZ
  Basis Set:

    Orbital Energies (a.u.)
    -----------------------

    Doubly Occupied:

       1A    -20.591662     2A    -20.585569     3A    -15.833589
       4A    -11.306136     5A    -11.242265     6A    -11.237341
       7A     -1.634373     8A     -1.418301     9A     -1.140616
      10A     -0.969509    11A     -0.957918    12A     -0.815424
      13A     -0.762208    14A     -0.730308    15A     -0.724126
      16A     -0.643146    17A     -0.593528    18A     -0.587901
      19A     -0.570490    20A     -0.525115    21A     -0.521488
      22A     -0.484356    23A     -0.472315    24A     -0.451507

  @DF-RHF Final Energy:  -321.86305128057137

   => Energetics <=

    Nuclear Repulsion Energy =            257.2995708295721329
    One-Electron Energy =                -948.7268591738325085
    Two-Electron Energy =                 369.5642370636891201
    DFT Exchange-Correlation Energy =       0.0000000000000000
    Empirical Dispersion Energy =           0.0000000000000000
    PCM Polarization Energy =               0.0000000000000000
    EFP Energy =                            0.0000000000000000
    Total Energy =                       -321.8630512805713124
    Molecular point group: c1
  Basis Set: CC-PVTZ
  Basis Set:

  -Total Gradient:
     Atom            X                  Y                   Z
    ------   -----------------  -----------------  -----------------
       1       -0.000006281609     0.000002118854    -0.000003426725
       2       -0.000000079500     0.000004249258    -0.000009506390
       3        0.000112386131     0.001251819251    -0.000401459177
       4        0.000004364104     0.000002857916    -0.000004546910
       5        0.000006254142     0.000009969899    -0.000004399906
       6       -0.000015154014    -0.000001681705    -0.000007327581
       7       -0.000474091480     0.000696735930     0.001508162284
       8        0.000017568980    -0.001307330128     0.000003167601
       9       -0.000006606646     0.000014667561     0.000006237089
      10       -0.000008636251    -0.000006349550     0.000000643057
      11       -0.000000165746     0.000002192094    -0.000001805957
      12        0.000375656996    -0.000662366415    -0.001081223502
      13       -0.000005215108    -0.000006882964    -0.000004513881

  **** Optimization is complete! (in 8 steps) ****
    Final optimized geometry and variables:
    Molecular point group: c1

    Geometry (in Angstrom), charge = 0, multiplicity = 1:

    H           -2.388400965066    -1.281984256680    -0.411298150109
    C           -1.390427374554    -1.282996451044     0.009605246337
    C           -0.685246367009    -0.021541691686    -0.447374342778
    H           -0.876286010050    -2.170766830893    -0.326411647124
    H           -1.470503165221    -1.322049693043     1.086853458031
    C           -1.364590951604     1.258763258775     0.017803963194
    N            0.750442163053     0.003118268568     0.019221230497
    H           -0.584855930647    -0.018248777492    -1.523431567180
    H           -2.378997738245     1.271479680147    -0.358627295697
    H           -0.846457396548     2.131574844956    -0.346640329696
    H           -1.404718738226     1.298812235919     1.099801489083
    O            1.147916287645    -0.889096675835     0.687207997900
    O            1.403067001553     0.926454147352    -0.339830030523

  Mulliken Charges: (a.u.)
   Center  Symbol    Alpha    Beta     Spin     Total
       1     H     0.45030  0.45030  0.00000  0.09940
       2     C     3.14239  3.14239  0.00000 -0.28478
       3     C     3.00677  3.00677  0.00000 -0.01354
       4     H     0.43680  0.43680  0.00000  0.12639
       5     H     0.44281  0.44281  0.00000  0.11439
       6     C     3.14434  3.14434  0.00000 -0.28868
       7     N     3.27515  3.27515  0.00000  0.44969
       8     H     0.42934  0.42934  0.00000  0.14132
       9     H     0.44957  0.44957  0.00000  0.10086
      10     H     0.43124  0.43124  0.00000  0.13752
      11     H     0.44628  0.44628  0.00000  0.10743
      12     O     4.16910  4.16910  0.00000 -0.33820
      13     O     4.17590  4.17590  0.00000 -0.35180

   Total alpha = 24.00000, Total beta = 24.00000, Total charge = -0.00000
