  ==> Input File <==

--------------------------------------------------------------------------
set {
	reference rhf
	basis 6-31G*
}

set_num_threads( 4 )
memory 2 gb

molecule MOL {
0 1

H	 -1.814275	 0.898726	 -0.756585
N	 -1.852125	 0.165761	 -0.074816
C	 -0.563778	 -0.502042	 0.037919
H	 -2.556227	 -0.478602	 -0.381074
C	 0.575259	 0.508231	 -0.048326
H	 -0.482092	 -1.204004	 -0.786564
H	 -0.460411	 -1.085169	 0.956626
C	 1.954651	 -0.143624	 0.035137
H	 0.475158	 1.060484	 -0.977307
H	 0.469181	 1.234488	 0.755973
H	 2.103292	 -0.853109	 -0.774172
H	 2.742821	 0.599562	 -0.030094
H	 2.083613	 -0.679371	 0.971560

	symmetry c1
}
set optking {
	frozen_dihedral = ("
		1 2 3 6
	")
}

ee = optimize('scf')
oeprop('DIPOLE', 'QUADRUPOLE', 'MULLIKEN_CHARGES')
f=open( 'psi4out.xyz', 'w' )
f.write( "13  " )
f.write( str(ee) + "\n" )
f.write( MOL.save_string_xyz() )
f.close()
--------------------------------------------------------------------------

    Molecular point group: c1
  Charge       = 0
  Multiplicity = 1
  Basis Set: 6-31G*
  Basis Set:
  @DF-RHF Final Energy:  -173.27890146007454
    Total Energy =                       -173.2789014600745645
    Molecular point group: c1
  Basis Set: 6-31G*
  Basis Set:
  Basis Set: 6-31G*
  Basis Set:
  @DF-RHF Final Energy:  -173.28095330159533
    Total Energy =                       -173.2809533015951899
  Basis Set: 6-31G*
  Basis Set:
  Basis Set: 6-31G*
  Basis Set:
  @DF-RHF Final Energy:  -173.28120971103490
    Total Energy =                       -173.2812097110349896
  Basis Set: 6-31G*
  Basis Set:
  Basis Set: 6-31G*
  Basis Set:
  @DF-RHF Final Energy:  -173.28121440302297
    Total Energy =                       -173.2812144030229717
  Basis Set: 6-31G*
  Basis Set:
  Charge       = 0
  Multiplicity = 1
  Basis Set: 6-31G*
  Basis Set:

    Orbital Energies (a.u.)
    -----------------------

    Doubly Occupied:

       1A    -15.530574     2A    -11.239564     3A    -11.216009
       4A    -11.211095     5A     -1.175398     6A     -1.036704
       7A     -0.899114     8A     -0.803732     9A     -0.651951
      10A     -0.640338    11A     -0.603492    12A     -0.561510
      13A     -0.538195    14A     -0.494150    15A     -0.476801
      16A     -0.470715    17A     -0.377807

  @DF-RHF Final Energy:  -173.28121493092826

   => Energetics <=

    Nuclear Repulsion Energy =            131.8666363852926509
    One-Electron Energy =                -494.4414009381847563
    Two-Electron Energy =                 189.2935496219637912
    DFT Exchange-Correlation Energy =       0.0000000000000000
    Empirical Dispersion Energy =           0.0000000000000000
    PCM Polarization Energy =               0.0000000000000000
    EFP Energy =                            0.0000000000000000
    Total Energy =                       -173.2812149309283427
    Molecular point group: c1
  Basis Set: 6-31G*
  Basis Set:

  -Total Gradient:
     Atom            X                  Y                   Z
    ------   -----------------  -----------------  -----------------
       1        0.001003843747     0.001981966333     0.002145014717
       2       -0.001612877513    -0.003084829709    -0.002167072610
       3        0.001736246159     0.003173734314    -0.001710973373
       4       -0.000003271944     0.000006061524    -0.000006557604
       5       -0.000052469065    -0.000049697436     0.000012405672
       6       -0.001109547294    -0.002026924640     0.001699912862
       7        0.000006686023     0.000009579822     0.000019466619
       8        0.000033923951     0.000016320880    -0.000004787533
       9       -0.000003534252    -0.000016071617     0.000018745108
      10       -0.000005760515    -0.000016549114    -0.000004651499
      11       -0.000013736883     0.000003454906     0.000003260077
      12        0.000023951846    -0.000006794548    -0.000003170079
      13       -0.000003454263     0.000009749286    -0.000001592356

  **** Optimization is complete! (in 5 steps) ****
    Final optimized geometry and variables:
    Molecular point group: c1

    Geometry (in Angstrom), charge = 0, multiplicity = 1:

    H           -1.866753874822     0.895682905500    -0.699854858199
    N           -1.856923635389     0.164616012864    -0.015641006719
    C           -0.565181529372    -0.505349552687     0.016247981001
    H           -2.598831712892    -0.470547617960    -0.232578876256
    C            0.574647359940     0.505015548199    -0.031328049844
    H           -0.444842271072    -1.239779805583    -0.783653991044
    H           -0.502708671816    -1.064537883409     0.946125688688
    C            1.951383767399    -0.146982057017     0.085046255648
    H            0.518133929118     1.064958378480    -0.963611089509
    H            0.432696943373     1.222610100292     0.771503585946
    H            2.122545759340    -0.854501546339    -0.721344716826
    H            2.740407415581     0.596940795470     0.043995121798
    H            2.052599657343    -0.683990762252     1.023665361371

  Mulliken Charges: (a.u.)
   Center  Symbol    Alpha    Beta     Spin     Total
       1     H     0.33455  0.33455  0.00000  0.33090
       2     N     3.92656  3.92656  0.00000 -0.85312
       3     C     3.05102  3.05102  0.00000 -0.10205
       4     H     0.33191  0.33191  0.00000  0.33618
       5     C     3.15957  3.15957  0.00000 -0.31914
       6     H     0.43505  0.43505  0.00000  0.12990
       7     H     0.42102  0.42102  0.00000  0.15796
       8     C     3.24280  3.24280  0.00000 -0.48560
       9     H     0.42656  0.42656  0.00000  0.14688
      10     H     0.41232  0.41232  0.00000  0.17535
      11     H     0.42149  0.42149  0.00000  0.15702
      12     H     0.41751  0.41751  0.00000  0.16499
      13     H     0.41964  0.41964  0.00000  0.16072

   Total alpha = 17.00000, Total beta = 17.00000, Total charge =  0.00000
