  ==> Input File <==

--------------------------------------------------------------------------
set {
	reference rhf
	basis 6-31G*
}

set_num_threads( 4 )
memory 2 gb

molecule MOL {
0 1

H	 1.067147	 -1.573042	 -3.896059
O	 1.989860	 -1.364103	 -3.892150
C	 2.160210	 0.029076	 -3.956076
C	 1.802303	 0.738769	 -2.654936
H	 3.206683	 0.187513	 -4.182937
H	 1.583981	 0.445964	 -4.781269
C	 0.327207	 0.616900	 -2.264927
H	 2.424476	 0.335905	 -1.859971
H	 2.062970	 1.790648	 -2.759675
C	 -0.011139	 1.384696	 -0.983978
H	 0.077591	 -0.432539	 -2.135560
H	 -0.294575	 0.989191	 -3.079253
C	 -1.493883	 1.366210	 -0.594786
H	 0.581686	 0.988088	 -0.161721
H	 0.299065	 2.420006	 -1.108900
C	 -2.037799	 -0.007733	 -0.193645
H	 -1.637299	 2.052256	 0.237432
H	 -2.086489	 1.762510	 -1.417952
C	 -3.489788	 0.042957	 0.286558
H	 -1.413751	 -0.424406	 0.595697
H	 -1.969181	 -0.696774	 -1.031987
C	 -4.216917	 1.317354	 -0.141063
H	 -4.025645	 -0.823308	 -0.095450
H	 -3.513059	 -0.038752	 1.371301
H	 -4.239342	 1.411634	 -1.223113
H	 -5.243387	 1.322503	 0.212445
H	 -3.726170	 2.201406	 0.256408

	symmetry c1
}
set optking {
	frozen_dihedral = ("
		20 16 19 22
	")
}

ee = optimize('scf')
oeprop('DIPOLE', 'QUADRUPOLE', 'MULLIKEN_CHARGES')
f=open( 'psi4out.xyz', 'w' )
f.write( "27  " )
f.write( str(ee) + "\n" )
f.write( MOL.save_string_xyz() )
f.close()
--------------------------------------------------------------------------

    Molecular point group: c1
  Charge       = 0
  Multiplicity = 1
  Basis Set: 6-31G*
  Basis Set:
  @DF-RHF Final Energy:  -388.26971630540203
    Total Energy =                       -388.2697163054014027
    Molecular point group: c1
  Basis Set: 6-31G*
  Basis Set:
  Basis Set: 6-31G*
  Basis Set:
  @DF-RHF Final Energy:  -388.26998458057250
    Total Energy =                       -388.2699845805725545
  Basis Set: 6-31G*
  Basis Set:
  Basis Set: 6-31G*
  Basis Set:
  @DF-RHF Final Energy:  -388.27296602335741
    Total Energy =                       -388.2729660233584355
  Basis Set: 6-31G*
  Basis Set:
  Basis Set: 6-31G*
  Basis Set:
  @DF-RHF Final Energy:  -388.27331238506258
    Total Energy =                       -388.2733123850621269
  Basis Set: 6-31G*
  Basis Set:
  @DF-RHF Final Energy:  -388.27330136704796
    Total Energy =                       -388.2733013670476794
  Basis Set: 6-31G*
  Basis Set:
  @DF-RHF Final Energy:  -388.27330506774831
    Total Energy =                       -388.2733050677483106
  Basis Set: 6-31G*
  Basis Set:
  Basis Set: 6-31G*
  Basis Set:
  @DF-RHF Final Energy:  -388.27335012027169
    Total Energy =                       -388.2733501202726529
  Basis Set: 6-31G*
  Basis Set:
  Basis Set: 6-31G*
  Basis Set:
  @DF-RHF Final Energy:  -388.27335319692958
    Total Energy =                       -388.2733531969298610
  Basis Set: 6-31G*
  Basis Set:
  Charge       = 0
  Multiplicity = 1
  Basis Set: 6-31G*
  Basis Set:

    Orbital Energies (a.u.)
    -----------------------

    Doubly Occupied:

       1A    -20.552263     2A    -11.267001     3A    -11.219677
       4A    -11.217061     5A    -11.216784     6A    -11.215274
       7A    -11.215140     8A    -11.214698     9A    -11.209139
      10A     -1.359011    11A     -1.093998    12A     -1.058616
      13A     -1.008732    14A     -0.946094    15A     -0.894852
      16A     -0.830580    17A     -0.798592    18A     -0.763236
      19A     -0.693527    20A     -0.650949    21A     -0.636650
      22A     -0.613864    23A     -0.603470    24A     -0.588572
      25A     -0.579093    26A     -0.555233    27A     -0.536915
      28A     -0.525262    29A     -0.512949    30A     -0.498312
      31A     -0.483568    32A     -0.475881    33A     -0.468711
      34A     -0.451910    35A     -0.446461    36A     -0.441466
      37A     -0.422913

  @DF-RHF Final Energy:  -388.27335277106420

   => Energetics <=

    Nuclear Repulsion Energy =            462.8251898290252484
    One-Electron Energy =               -1443.6641804271375804
    Two-Electron Energy =                 592.5656378270482492
    DFT Exchange-Correlation Energy =       0.0000000000000000
    Empirical Dispersion Energy =           0.0000000000000000
    PCM Polarization Energy =               0.0000000000000000
    EFP Energy =                            0.0000000000000000
    Total Energy =                       -388.2733527710640828
    Molecular point group: c1
  Basis Set: 6-31G*
  Basis Set:

  -Total Gradient:
     Atom            X                  Y                   Z
    ------   -----------------  -----------------  -----------------
       1        0.000019494118    -0.000002271360    -0.000013692874
       2        0.000017881265    -0.000001238124    -0.000001995039
       3       -0.000041451182     0.000018161479    -0.000034457551
       4        0.000005864031     0.000023547126     0.000016875405
       5       -0.000005205807    -0.000003221292     0.000000311711
       6        0.000002731003    -0.000004261639    -0.000011254731
       7       -0.000002247729    -0.000002152159     0.000032731994
       8       -0.000015731268    -0.000014966988    -0.000000928039
       9        0.000007726942     0.000004916814     0.000022494925
      10       -0.000008024171     0.000024937709    -0.000045156192
      11       -0.000013352360    -0.000007847810     0.000045837656
      12       -0.000002625952    -0.000026861296     0.000018767148
      13        0.000004549043     0.000048880882     0.000090429652
      14       -0.000029363082    -0.000034999780    -0.000016263450
      15        0.000029133604     0.000006274035     0.000011925136
      16       -0.000275464237    -0.005402892420    -0.000767181054
      17       -0.000003845285     0.000028928439    -0.000027151693
      18       -0.000009106208    -0.000021451904    -0.000025853229
      19       -0.001615166214    -0.001773104948    -0.004644899480
      20        0.000706354899     0.005158788415     0.001918238739
      21       -0.000025714078    -0.000020770112    -0.000018454079
      22        0.001227315878     0.002004674568     0.003453536680
      23        0.000026320590    -0.000004724836    -0.000011433461
      24       -0.000007562106    -0.000015678995    -0.000006089732
      25       -0.000037554128    -0.000015106123     0.000011170635
      26        0.000014480244     0.000013316226     0.000026992997
      27        0.000030562189     0.000019124090    -0.000024502070

  **** Optimization is complete! (in 9 steps) ****
    Final optimized geometry and variables:
    Molecular point group: c1

    Geometry (in Angstrom), charge = 0, multiplicity = 1:

    H            1.565099764350    -1.991870906969    -2.296826617884
    O            2.494221191630    -1.814237789133    -2.281223204428
    C            2.711515296322    -0.426602084883    -2.316730745060
    C            2.367509638419     0.269597556126    -1.004571691524
    H            3.764503508899    -0.299386400452    -2.532765502197
    H            2.156308738701     0.025283048653    -3.137906859764
    C            0.885939729398     0.191147593176    -0.628071152631
    H            2.968975940231    -0.169683357254    -0.212973924832
    H            2.664920139063     1.313692901255    -1.086745718387
    C            0.563441109590     0.950624935706     0.662111662587
    H            0.600720208090    -0.851302160774    -0.518170814211
    H            0.283967874504     0.597169063991    -1.441149954678
    C           -0.924121360397     0.991050666577     1.034262795244
    H            1.130245906362     0.516765198717     1.483979223048
    H            0.917988088467     1.973912940414     0.557299044829
    C           -1.505037349434    -0.374915296137     1.426240338495
    H           -1.042858448008     1.678922095802     1.867923761807
    H           -1.484001440036     1.417485072188     0.205746400940
    C           -2.971086369542    -0.367108187824     1.931909824212
    H           -0.872077548620    -0.757795631259     2.222801930204
    H           -1.415578349163    -1.058456349032     0.588437165402
    C           -3.832919756504     0.837843400124     1.543920779984
    H           -3.463646770557    -1.275431883931     1.597699620885
    H           -2.962190845389    -0.421903103714     3.017608892530
    H           -3.923886893846     0.944881927604     0.466776336161
    H           -4.835204161024     0.718719002057     1.944104187791
    H           -3.433283251243     1.765623115457     1.936786297490

  Mulliken Charges: (a.u.)
   Center  Symbol    Alpha    Beta     Spin     Total
       1     H     0.27993  0.27993  0.00000  0.44014
       2     O     4.37093  4.37093  0.00000 -0.74186
       3     C     2.99739  2.99739  0.00000  0.00523
       4     C     3.16089  3.16089  0.00000 -0.32178
       5     H     0.41446  0.41446  0.00000  0.17109
       6     H     0.43205  0.43205  0.00000  0.13590
       7     C     3.16328  3.16328  0.00000 -0.32657
       8     H     0.41495  0.41495  0.00000  0.17010
       9     H     0.42436  0.42436  0.00000  0.15129
      10     C     3.15211  3.15211  0.00000 -0.30422
      11     H     0.42289  0.42289  0.00000  0.15422
      12     H     0.42557  0.42557  0.00000  0.14886
      13     C     3.15667  3.15667  0.00000 -0.31333
      14     H     0.42195  0.42195  0.00000  0.15610
      15     H     0.42148  0.42148  0.00000  0.15705
      16     C     3.15594  3.15594  0.00000 -0.31187
      17     H     0.42108  0.42108  0.00000  0.15785
      18     H     0.42217  0.42217  0.00000  0.15567
      19     C     3.15451  3.15451  0.00000 -0.30902
      20     H     0.42114  0.42114  0.00000  0.15773
      21     H     0.42165  0.42165  0.00000  0.15670
      22     C     3.24202  3.24202  0.00000 -0.48404
      23     H     0.42019  0.42019  0.00000  0.15963
      24     H     0.42157  0.42157  0.00000  0.15687
      25     H     0.42230  0.42230  0.00000  0.15540
      26     H     0.41916  0.41916  0.00000  0.16167
      27     H     0.41940  0.41940  0.00000  0.16119

   Total alpha = 37.00000, Total beta = 37.00000, Total charge = -0.00000
