  ==> Input File <==

--------------------------------------------------------------------------
set {
	reference rhf
	basis cc-pvtz
}

set_num_threads( 4 )
memory 2 gb

molecule MOL {
0 1

H	 1.348907	 -1.369194	 -0.148028
C	 0.776951	 -0.440197	 -0.183821
N	 -0.537714	 -0.645117	 0.000000
O	 1.301604	 0.612276	 -0.367551
C	 -1.522613	 0.412524	 0.000000
H	 -0.837246	 -1.577813	 0.142623
H	 -2.150256	 0.356137	 -0.880771
H	 -1.005621	 1.357208	 0.000000
H	 -2.150256	 0.356137	 0.880771

	symmetry c1
}
set optking {
	frozen_dihedral = ("
		6 3 5 7
	")
}

ee = optimize('scf')
oeprop('DIPOLE', 'QUADRUPOLE', 'MULLIKEN_CHARGES')
f=open( 'psi4out.xyz', 'w' )
f.write( "9  " )
f.write( str(ee) + "\n" )
f.write( MOL.save_string_xyz() )
f.close()
--------------------------------------------------------------------------

    Molecular point group: c1
  Charge       = 0
  Multiplicity = 1
  Basis Set: CC-PVTZ
  Basis Set:
  @DF-RHF Final Energy:  -208.04354860475570
    Total Energy =                       -208.0435486047557561
    Molecular point group: c1
  Basis Set: CC-PVTZ
  Basis Set:
  Basis Set: CC-PVTZ
  Basis Set:
  @DF-RHF Final Energy:  -208.04356731967323
    Total Energy =                       -208.0435673196732580
  Basis Set: CC-PVTZ
  Basis Set:
  Basis Set: CC-PVTZ
  Basis Set:
  @DF-RHF Final Energy:  -208.04356920003372
    Total Energy =                       -208.0435692000337440
  Basis Set: CC-PVTZ
  Basis Set:
  Basis Set: CC-PVTZ
  Basis Set:
  @DF-RHF Final Energy:  -208.04358109601395
    Total Energy =                       -208.0435810960139520
  Basis Set: CC-PVTZ
  Basis Set:
  Basis Set: CC-PVTZ
  Basis Set:
  @DF-RHF Final Energy:  -208.04358868104680
    Total Energy =                       -208.0435886810468276
  Basis Set: CC-PVTZ
  Basis Set:
  Charge       = 0
  Multiplicity = 1
  Basis Set: CC-PVTZ
  Basis Set:

    Orbital Energies (a.u.)
    -----------------------

    Doubly Occupied:

       1A    -20.516142     2A    -15.585067     3A    -11.337528
       4A    -11.259265     5A     -1.393649     6A     -1.239907
       7A     -0.970403     8A     -0.808286     9A     -0.748809
      10A     -0.646373    11A     -0.629330    12A     -0.596856
      13A     -0.555388    14A     -0.542103    15A     -0.428250
      16A     -0.395966

  @DF-RHF Final Energy:  -208.04358959345319

   => Energetics <=

    Nuclear Repulsion Energy =            122.7121597855567074
    One-Electron Energy =                -526.2048539205130737
    Two-Electron Energy =                 195.4491045415033454
    DFT Exchange-Correlation Energy =       0.0000000000000000
    Empirical Dispersion Energy =           0.0000000000000000
    PCM Polarization Energy =               0.0000000000000000
    EFP Energy =                            0.0000000000000000
    Total Energy =                       -208.0435895934530208
    Molecular point group: c1
  Basis Set: CC-PVTZ
  Basis Set:

  -Total Gradient:
     Atom            X                  Y                   Z
    ------   -----------------  -----------------  -----------------
       1        0.000000268198     0.000015896408     0.000025119288
       2       -0.000035763029     0.000036386920    -0.000045626663
       3       -0.000046629102    -0.000042008089     0.000205462671
       4        0.000058362293     0.000006554665     0.000000991869
       5        0.000141439139     0.000068195853    -0.000002585179
       6       -0.000034011991    -0.000010854069    -0.000149797271
       7       -0.000079434780    -0.000072106903     0.000028586396
       8       -0.000004978387     0.000011842255    -0.000039854290
       9        0.000000747661    -0.000013907042    -0.000022296821

  **** Optimization is complete! (in 6 steps) ****
    Final optimized geometry and variables:
    Molecular point group: c1

    Geometry (in Angstrom), charge = 0, multiplicity = 1:

    H            1.359426981570    -1.360894105218    -0.008505764769
    C            0.784780197988    -0.433688081655    -0.051566781579
    N           -0.523277540589    -0.633137575037     0.181198417389
    O            1.300948739307     0.615402962306    -0.273839100426
    C           -1.510029088939     0.422180559017     0.145326249119
    H           -0.826885584386    -1.567897082703     0.300507416970
    H           -2.102339931207     0.382766631717    -0.761513231159
    H           -0.999502417612     1.369936599942     0.183593803672
    H           -2.171683882316     0.343249693778     0.997930822454

  Mulliken Charges: (a.u.)
   Center  Symbol    Alpha    Beta     Spin     Total
       1     H     0.46294  0.46294  0.00000  0.07413
       2     C     2.88099  2.88099  0.00000  0.23802
       3     N     3.60786  3.60786  0.00000 -0.21572
       4     O     4.21489  4.21489  0.00000 -0.42978
       5     C     3.08072  3.08072  0.00000 -0.16144
       6     H     0.40969  0.40969  0.00000  0.18062
       7     H     0.45533  0.45533  0.00000  0.08933
       8     H     0.43352  0.43352  0.00000  0.13297
       9     H     0.45406  0.45406  0.00000  0.09187

   Total alpha = 16.00000, Total beta = 16.00000, Total charge =  0.00000
