                              Psi4 1.0.54 Driver

  ==> Input File <==

--------------------------------------------------------------------------
set {
	reference rhf
	basis cc-pvtz
}

set_num_threads( 4 )
memory 2 gb

molecule MOL {
0 1

H	 -2.816458	 -0.841657	 -0.064679
N	 -1.878861	 -0.711874	 0.250184
C	 -1.341419	 0.551458	 -0.220231
H	 -1.333674	 -1.468530	 -0.105118
C	 0.082190	 0.731516	 0.254705
H	 -1.357065	 0.652078	 -1.304747
H	 -1.939897	 1.357530	 0.189797
O	 0.112672	 0.604256	 1.644159
H	 0.722693	 -0.020545	 -0.203914
H	 0.444434	 1.713675	 -0.040374
C	 1.360766	 0.817843	 2.215002
H	 1.263722	 0.690861	 3.283573
H	 2.094873	 0.105674	 1.844060
H	 1.723981	 1.822734	 2.012933

	symmetry c1
}
set optking {
	frozen_dihedral = ("
		8 5 3 6
	")
}

ee,wfn = optimize('scf', return_wfn=True)
oeprop( wfn, 'DIPOLE', 'QUADRUPOLE', 'MULLIKEN_CHARGES')
f=open( 'psi4out.xyz', 'w' )
f.write( "14  " )
f.write( str(ee) + "\n" )
f.write( MOL.save_string_xyz() )
f.close()
--------------------------------------------------------------------------

    Molecular point group: c1
  Charge       = 0
  Multiplicity = 1
  Basis Set: CC-PVTZ
  Basis Set:
  @DF-RHF Final Energy:  -248.21987687801817
    Total Energy =                       -248.2198768780181126
    Molecular point group: c1
  Basis Set: CC-PVTZ
  Basis Set:
  Basis Set: CC-PVTZ
  Basis Set:
  @DF-RHF Final Energy:  -248.22045615013036
    Total Energy =                       -248.2204561501304170
  Basis Set: CC-PVTZ
  Basis Set:
  Basis Set: CC-PVTZ
  Basis Set:
  @DF-RHF Final Energy:  -248.22055100522735
    Total Energy =                       -248.2205510052273212
  Basis Set: CC-PVTZ
  Basis Set:
  Basis Set: CC-PVTZ
  Basis Set:
  @DF-RHF Final Energy:  -248.22055524902788
    Total Energy =                       -248.2205552490277114
  Basis Set: CC-PVTZ
  Basis Set:
  Charge       = 0
  Multiplicity = 1
  Basis Set: CC-PVTZ
  Basis Set:

    Orbital Energies (a.u.)
    -----------------------

    Doubly Occupied:

       1A    -20.544333     2A    -15.524461     3A    -11.266254
       4A    -11.259909     5A    -11.242182     6A     -1.381326
       7A     -1.176656     8A     -0.999846     9A     -0.905560
      10A     -0.817419    11A     -0.684563    12A     -0.666608
      13A     -0.652508    14A     -0.616918    15A     -0.587914
      16A     -0.567137    17A     -0.517737    18A     -0.501951
      19A     -0.465368    20A     -0.415585    21A     -0.381980

  @DF-RHF Final Energy:  -248.22055619822828

   => Energetics <=

    Nuclear Repulsion Energy =            193.9757114811371252
    One-Electron Energy =                -722.0401020307006092
    Two-Electron Energy =                 279.8438343513352038
    DFT Exchange-Correlation Energy =       0.0000000000000000
    Empirical Dispersion Energy =           0.0000000000000000
    PCM Polarization Energy =               0.0000000000000000
    EFP Energy =                            0.0000000000000000
    Total Energy =                       -248.2205561982283371
    Molecular point group: c1
  Basis Set: CC-PVTZ
  Basis Set:

  -Total Gradient:
     Atom            X                  Y                   Z
    ------   -----------------  -----------------  -----------------
       1       -0.000030788325    -0.000016537949    -0.000026181876
       2        0.000026142918     0.000059462363     0.000004970980
       3       -0.000446305450     0.003053315539     0.000214910152
       4        0.000027458246    -0.000024494137     0.000011508675
       5       -0.000515871309     0.002820873840     0.000252677408
       6        0.000496239835    -0.003283601497    -0.000194227817
       7        0.000001715012     0.000032668778    -0.000008812584
       8        0.000462563357    -0.002658979124    -0.000271265391
       9       -0.000007049024    -0.000007857924    -0.000003274291
      10        0.000006253214     0.000026366350     0.000000550808
      11        0.000009922676     0.000003959246     0.000018659800
      12       -0.000005339001     0.000001337894    -0.000005547217
      13       -0.000014433384     0.000002863442     0.000002389371
      14       -0.000010508763    -0.000009376822     0.000003641984

  **** Optimization is complete! (in 5 steps) ****
    Final optimized geometry and variables:
    Molecular point group: c1

    Geometry (in Angstrom), charge = 0, multiplicity = 1:

    H           -2.530394474883    -1.236160174682    -0.897171612025
    N           -1.595040867102    -1.120955068515    -0.570429420655
    C           -1.036757574309     0.135705239395    -1.035127001539
    H           -1.063523441774    -1.897700484211    -0.904094968654
    C            0.387800245960     0.337776643449    -0.559424666544
    H           -1.014769090406     0.201972606324    -2.124072075859
    H           -1.655119650268     0.942877440399    -0.662226421997
    O            0.464410179912     0.270420277845     0.823991984440
    H            1.030527959110    -0.425381488250    -1.003869833520
    H            0.744407246495     1.303094808137    -0.918350311255
    C            1.742636781240     0.444151152795     1.334534132088
    H            1.681831628413     0.370326625521     2.410537205189
    H            2.425722300209    -0.320931241998     0.970258788017
    H            2.150593573115     1.418978867362     1.073368910579

  Mulliken Charges: (a.u.)
   Center  Symbol    Alpha    Beta     Spin     Total
       1     H     0.43007  0.43007  0.00000  0.13986
       2     N     3.67950  3.67950  0.00000 -0.35899
       3     C     3.02485  3.02485  0.00000 -0.04969
       4     H     0.43400  0.43400  0.00000  0.13200
       5     C     2.96945  2.96945  0.00000  0.06109
       6     H     0.47021  0.47021  0.00000  0.05958
       7     H     0.45502  0.45502  0.00000  0.08997
       8     O     4.16304  4.16304  0.00000 -0.32607
       9     H     0.47860  0.47860  0.00000  0.04279
      10     H     0.47033  0.47033  0.00000  0.05933
      11     C     3.03177  3.03177  0.00000 -0.06355
      12     H     0.44605  0.44605  0.00000  0.10790
      13     H     0.47360  0.47360  0.00000  0.05279
      14     H     0.47350  0.47350  0.00000  0.05299

   Total alpha = 21.00000, Total beta = 21.00000, Total charge = -0.00000

*** Psi4 exiting successfully. Buy a developer a beer!
