                              Psi4 1.0.54 Driver

  ==> Input File <==

--------------------------------------------------------------------------
set {
	reference rhf
	basis cc-pvtz
}

set_num_threads( 4 )
memory 2 gb

molecule MOL {
0 1

H	 3.218866	 1.338997	 -0.456267
O	 2.298132	 1.222425	 -0.276387
C	 2.076458	 -0.067370	 -0.038225
C	 0.626018	 -0.337582	 0.258241
O	 2.944486	 -0.869587	 -0.066801
C	 -0.267326	 0.883135	 0.076490
H	 0.325620	 -1.161483	 -0.378003
H	 0.574537	 -0.713685	 1.275261
C	 -1.726822	 0.642622	 0.463839
H	 -0.210803	 1.217591	 -0.953497
H	 0.129920	 1.693110	 0.675679
C	 -2.480891	 -0.340606	 -0.429852
H	 -2.243098	 1.597649	 0.438609
H	 -1.776542	 0.301208	 1.495542
C	 -3.955933	 -0.460128	 -0.060472
H	 -2.393755	 -0.020485	 -1.464726
H	 -2.024244	 -1.323637	 -0.374360
H	 -4.467673	 -1.160944	 -0.709827
H	 -4.458917	 0.497287	 -0.144505
H	 -4.076458	 -0.806900	 0.960497

	symmetry c1
}
set optking {
	frozen_dihedral = ("
		5 3 4 7
	")
}

ee,wfn = optimize('scf', return_wfn=True)
oeprop( wfn, 'DIPOLE', 'QUADRUPOLE', 'MULLIKEN_CHARGES')
f=open( 'psi4out.xyz', 'w' )
f.write( "20  " )
f.write( str(ee) + "\n" )
f.write( MOL.save_string_xyz() )
f.close()
--------------------------------------------------------------------------

    Molecular point group: c1
  Charge       = 0
  Multiplicity = 1
  Basis Set: CC-PVTZ
  Basis Set:
  @DF-RHF Final Energy:  -384.09069269432234
    Total Energy =                       -384.0906926943223425
    Molecular point group: c1
  Basis Set: CC-PVTZ
  Basis Set:
  Basis Set: CC-PVTZ
  Basis Set:
  @DF-RHF Final Energy:  -384.09165358507499
    Total Energy =                       -384.0916535850747096
  Basis Set: CC-PVTZ
  Basis Set:
  Basis Set: CC-PVTZ
  Basis Set:
  @DF-RHF Final Energy:  -384.09206563709625
    Total Energy =                       -384.0920656370955157
  Basis Set: CC-PVTZ
  Basis Set:
  Basis Set: CC-PVTZ
  Basis Set:
  @DF-RHF Final Energy:  -384.09204813425930
    Total Energy =                       -384.0920481342594144
  Basis Set: CC-PVTZ
  Basis Set:
  Basis Set: CC-PVTZ
  Basis Set:
  @DF-RHF Final Energy:  -384.09216177508080
    Total Energy =                       -384.0921617750801147
  Basis Set: CC-PVTZ
  Basis Set:
  Basis Set: CC-PVTZ
  Basis Set:
  @DF-RHF Final Energy:  -384.09216419294739
    Total Energy =                       -384.0921641929473935
  Basis Set: CC-PVTZ
  Basis Set:
  Charge       = 0
  Multiplicity = 1
  Basis Set: CC-PVTZ
  Basis Set:

    Orbital Energies (a.u.)
    -----------------------

    Doubly Occupied:

       1A    -20.606846     2A    -20.535670     3A    -11.374002
       4A    -11.238845     5A    -11.225102     6A    -11.220816
       7A    -11.219592     8A    -11.211463     9A     -1.478790
      10A     -1.367374    11A     -1.099350    12A     -1.042531
      13A     -0.960611    14A     -0.863195    15A     -0.829876
      16A     -0.792551    17A     -0.703369    18A     -0.683119
      19A     -0.665181    20A     -0.635787    21A     -0.605930
      22A     -0.592732    23A     -0.579093    24A     -0.552226
      25A     -0.547125    26A     -0.521667    27A     -0.503245
      28A     -0.484359    29A     -0.476995    30A     -0.469714
      31A     -0.457727    32A     -0.436345

  @DF-RHF Final Energy:  -384.09216384240318

   => Energetics <=

    Nuclear Repulsion Energy =            376.9715903959236698
    One-Electron Energy =               -1270.1650527970009534
    Two-Electron Energy =                 509.1012985586743298
    DFT Exchange-Correlation Energy =       0.0000000000000000
    Empirical Dispersion Energy =           0.0000000000000000
    PCM Polarization Energy =               0.0000000000000000
    EFP Energy =                            0.0000000000000000
    Total Energy =                       -384.0921638424030107
    Molecular point group: c1
  Basis Set: CC-PVTZ
  Basis Set:

  -Total Gradient:
     Atom            X                  Y                   Z
    ------   -----------------  -----------------  -----------------
       1       -0.000029546623    -0.000018476787     0.000011038796
       2        0.000044532677     0.000071324165    -0.000066463034
       3        0.000015394356    -0.000060922160    -0.000242614269
       4        0.000121431211    -0.000182556893     0.000307543386
       5        0.000026813179     0.000023022096     0.000195568190
       6       -0.000088901703     0.000010016540    -0.000040002402
       7       -0.000043905455     0.000186368489    -0.000174387114
       8       -0.000000397805    -0.000013721709     0.000011447326
       9        0.000026169869    -0.000020849569     0.000020542845
      10       -0.000011481913    -0.000001992810    -0.000002840670
      11       -0.000017166298    -0.000009996361    -0.000016628461
      12       -0.000017808435     0.000013289171    -0.000005336147
      13        0.000007427734    -0.000000420299     0.000007833649
      14        0.000010042656    -0.000010358395     0.000016340688
      15       -0.000003534850     0.000001760324    -0.000010708681
      16        0.000003010334    -0.000006990672    -0.000017287886
      17       -0.000038747921     0.000017553809     0.000008096752
      18       -0.000004362090     0.000000459047    -0.000000920228
      19       -0.000002619084     0.000001525288    -0.000000236528
      20        0.000003650162     0.000000966729    -0.000000986214

  **** Optimization is complete! (in 7 steps) ****
    Final optimized geometry and variables:
    Molecular point group: c1

    Geometry (in Angstrom), charge = 0, multiplicity = 1:

    H            3.408448792414     0.961258594474    -0.531039564475
    O            2.479963023359     0.979307530999    -0.352672079388
    C            2.094647414287    -0.253820756798    -0.049113446023
    C            0.626285641776    -0.389540927023     0.275748186358
    O            2.855225853039    -1.160356437164    -0.030570281733
    C           -0.238902891003     0.853149600798     0.084441540157
    H            0.274843643415    -1.218709713168    -0.323682421068
    H            0.585348913189    -0.728193398248     1.306012111728
    C           -1.697857013728     0.649151289092     0.496741272838
    H           -0.195978198940     1.170651656542    -0.952125410681
    H            0.178124888226     1.665497893065     0.666556685640
    C           -2.491787357892    -0.317280207856    -0.380829234451
    H           -2.190826681505     1.616607924982     0.477221419720
    H           -1.737474936291     0.312258523014     1.530265484135
    C           -3.961736683463    -0.401240230673     0.017838371749
    H           -2.417623593973    -0.000272363537    -1.417758847176
    H           -2.057853892853    -1.310596437853    -0.333012969636
    H           -4.501745474787    -1.092594561402    -0.618527599110
    H           -4.444449658855     0.567095622122    -0.060340567868
    H           -4.070143124386    -0.741568424279     1.042290862687

  Mulliken Charges: (a.u.)
   Center  Symbol    Alpha    Beta     Spin     Total
       1     H     0.38546  0.38546  0.00000  0.22909
       2     O     4.14842  4.14842  0.00000 -0.29684
       3     C     2.81106  2.81106  0.00000  0.37789
       4     C     3.10397  3.10397  0.00000 -0.20793
       5     O     4.19796  4.19796  0.00000 -0.39592
       6     C     3.09825  3.09825  0.00000 -0.19650
       7     H     0.43480  0.43480  0.00000  0.13040
       8     H     0.43674  0.43674  0.00000  0.12652
       9     C     3.10054  3.10054  0.00000 -0.20107
      10     H     0.44620  0.44620  0.00000  0.10760
      11     H     0.43940  0.43940  0.00000  0.12121
      12     C     3.08712  3.08712  0.00000 -0.17423
      13     H     0.44573  0.44573  0.00000  0.10854
      14     H     0.45330  0.45330  0.00000  0.09341
      15     C     3.14965  3.14965  0.00000 -0.29930
      16     H     0.45301  0.45301  0.00000  0.09398
      17     H     0.45272  0.45272  0.00000  0.09456
      18     H     0.44731  0.44731  0.00000  0.10539
      19     H     0.45397  0.45397  0.00000  0.09206
      20     H     0.45442  0.45442  0.00000  0.09115

   Total alpha = 32.00000, Total beta = 32.00000, Total charge =  0.00000

*** Psi4 exiting successfully. Buy a developer a beer!
