  ==> Input File <==

--------------------------------------------------------------------------
set {
	reference rhf
	basis cc-pvtz
}

set_num_threads( 4 )
memory 2 gb

molecule MOL {
0 1

H	 2.649664	 -0.195883	 0.620733
O	 2.063695	 -0.083403	 -0.105237
C	 0.742924	 0.005675	 0.350750
H	 0.731380	 0.039219	 1.440080
C	 -0.064076	 -1.193495	 -0.124425
C	 -0.047832	 1.190568	 -0.194462
H	 0.194729	 -1.376165	 -1.161308
H	 0.163013	 -2.094508	 0.429933
C	 -1.533112	 -0.752002	 0.006102
H	 0.148003	 1.266545	 -1.259275
H	 0.226235	 2.136493	 0.259722
C	 -1.506634	 0.799189	 0.067162
H	 -2.124360	 -1.110499	 -0.826089
H	 -1.983103	 -1.158030	 0.903403
H	 -2.183808	 1.252169	 -0.644677
H	 -1.813926	 1.138698	 1.049457

	symmetry c1
}
set optking {
	frozen_dihedral = ("
		1 2 3 6
	")
}

ee = optimize('scf')
oeprop('DIPOLE', 'QUADRUPOLE', 'MULLIKEN_CHARGES')
f=open( 'psi4out.xyz', 'w' )
f.write( "16  " )
f.write( str(ee) + "\n" )
f.write( MOL.save_string_xyz() )
f.close()
--------------------------------------------------------------------------

    Molecular point group: c1
  Charge       = 0
  Multiplicity = 1
  Basis Set: CC-PVTZ
  Basis Set:
  @DF-RHF Final Energy:  -270.11485055331730
    Total Energy =                       -270.1148505533172965
    Molecular point group: c1
  Basis Set: CC-PVTZ
  Basis Set:
  Basis Set: CC-PVTZ
  Basis Set:
  @DF-RHF Final Energy:  -270.11546814411781
    Total Energy =                       -270.1154681441173580
  Basis Set: CC-PVTZ
  Basis Set:
  Basis Set: CC-PVTZ
  Basis Set:
  @DF-RHF Final Energy:  -270.11551520883518
    Total Energy =                       -270.1155152088352907
  Basis Set: CC-PVTZ
  Basis Set:
  Basis Set: CC-PVTZ
  Basis Set:
  @DF-RHF Final Energy:  -270.11551732556433
    Total Energy =                       -270.1155173255641557
  Basis Set: CC-PVTZ
  Basis Set:
  Charge       = 0
  Multiplicity = 1
  Basis Set: CC-PVTZ
  Basis Set:

    Orbital Energies (a.u.)
    -----------------------

    Doubly Occupied:

       1A    -20.544964     2A    -11.268224     3A    -11.212677
       4A    -11.212130     5A    -11.206083     6A    -11.206013
       7A     -1.364559     8A     -1.113505     9A     -0.964274
      10A     -0.949205    11A     -0.780877    12A     -0.779397
      13A     -0.717689    14A     -0.653476    15A     -0.622099
      16A     -0.579534    17A     -0.550154    18A     -0.532135
      19A     -0.521834    20A     -0.479262    21A     -0.469243
      22A     -0.455972    23A     -0.452773    24A     -0.413267

  @DF-RHF Final Energy:  -270.11551778595299

   => Energetics <=

    Nuclear Repulsion Energy =            255.2974180383866951
    One-Electron Energy =                -872.7271780371115710
    Two-Electron Energy =                 347.3142422127718874
    DFT Exchange-Correlation Energy =       0.0000000000000000
    Empirical Dispersion Energy =           0.0000000000000000
    PCM Polarization Energy =               0.0000000000000000
    EFP Energy =                            0.0000000000000000
    Total Energy =                       -270.1155177859529886
    Molecular point group: c1
  Basis Set: CC-PVTZ
  Basis Set:

  -Total Gradient:
     Atom            X                  Y                   Z
    ------   -----------------  -----------------  -----------------
       1        0.000047701296     0.000578973765     0.000074739798
       2       -0.000022455245    -0.000659287348     0.000042141227
       3       -0.000145248856    -0.000100782140    -0.000412892411
       4        0.000011339812    -0.000006466501    -0.000005408661
       5        0.000057950243     0.000006962080    -0.000024460331
       6        0.000043068334     0.000230349377     0.000307860026
       7       -0.000010534798    -0.000020412316     0.000006165458
       8       -0.000013237990     0.000007162678     0.000006681574
       9       -0.000028362253     0.000007622305     0.000056214188
      10        0.000007649082    -0.000018982311     0.000007556244
      11        0.000022001908     0.000011891662     0.000003846787
      12        0.000034119479    -0.000007378016    -0.000046213556
      13        0.000006854555    -0.000002368891    -0.000024590034
      14       -0.000021697407    -0.000015441744    -0.000020664452
      15       -0.000008885065    -0.000015225348     0.000018302372
      16        0.000019736904     0.000003382746     0.000010721772

  **** Optimization is complete! (in 5 steps) ****
    Final optimized geometry and variables:
    Molecular point group: c1

    Geometry (in Angstrom), charge = 0, multiplicity = 1:

    H            2.668122282931    -0.137225237226     0.590796014897
    O            2.065788821051    -0.026002875909    -0.118878199290
    C            0.742659652366    -0.003662609988     0.349634615723
    H            0.737705605098     0.031243156536     1.437309005577
    C           -0.076871718360    -1.200213838376    -0.124562786786
    C           -0.039737833159     1.186255649240    -0.188640900649
    H            0.183596286891    -1.385767905079    -1.160500995610
    H            0.139315402811    -2.105091597832     0.430003968754
    C           -1.542365679769    -0.747693763028     0.000843070236
    H            0.167415261576     1.269206929028    -1.250611950910
    H            0.244963260180     2.122971603833     0.273969623155
    C           -1.502845320186     0.804063324363     0.057367962373
    H           -2.134581660450    -1.103792857405    -0.831776204582
    H           -1.998580953129    -1.147323298854     0.898071343990
    H           -2.170012728538     1.258608922075    -0.662825587796
    H           -1.818976069485     1.148479922063     1.035362458346

  Mulliken Charges: (a.u.)
   Center  Symbol    Alpha    Beta     Spin     Total
       1     H     0.39179  0.39179  0.00000  0.21641
       2     O     4.20426  4.20426  0.00000 -0.40852
       3     C     2.92110  2.92110  0.00000  0.15781
       4     H     0.47021  0.47021  0.00000  0.05957
       5     C     3.10088  3.10088  0.00000 -0.20175
       6     C     3.09506  3.09506  0.00000 -0.19013
       7     H     0.45231  0.45231  0.00000  0.09538
       8     H     0.44816  0.44816  0.00000  0.10367
       9     C     3.11220  3.11220  0.00000 -0.22440
      10     H     0.45322  0.45322  0.00000  0.09356
      11     H     0.44777  0.44777  0.00000  0.10445
      12     C     3.11335  3.11335  0.00000 -0.22670
      13     H     0.44537  0.44537  0.00000  0.10927
      14     H     0.44920  0.44920  0.00000  0.10159
      15     H     0.44380  0.44380  0.00000  0.11241
      16     H     0.45132  0.45132  0.00000  0.09736

   Total alpha = 24.00000, Total beta = 24.00000, Total charge = -0.00000
