                              Psi4 1.0.54 Driver

  ==> Input File <==

--------------------------------------------------------------------------
set {
	reference rhf
	basis cc-pvtz
}

set_num_threads( 4 )
memory 2 gb

molecule MOL {
0 1

O	 -2.817697	 1.304178	 0.001046
C	 -2.664672	 0.129869	 0.003507
C	 -3.797908	 -0.860100	 -0.001145
O	 -1.481217	 -0.452708	 0.001092
H	 -4.408836	 -0.679689	 -0.875387
H	 -3.443486	 -1.878443	 -0.002770
H	 -4.412123	 -0.683688	 0.871605
C	 -0.332055	 0.384012	 -0.000250
C	 0.892252	 -0.506059	 -0.000295
H	 -0.360822	 1.020205	 -0.874146
H	 -0.359817	 1.021310	 0.872861
C	 2.188199	 0.299473	 -0.001416
H	 0.857046	 -1.152781	 -0.871031
H	 0.857910	 -1.151798	 0.871202
C	 3.029706	 0.079653	 1.252646
H	 2.777113	 0.037622	 -0.876968
H	 1.957216	 1.357674	 -0.095392
C	 4.324260	 0.885343	 1.252460
H	 3.262652	 -0.977204	 1.346703
H	 2.442300	 0.341140	 2.128240
H	 4.949628	 0.621140	 0.406318
H	 4.897105	 0.707000	 2.154984
H	 4.122919	 1.949696	 1.193580

	symmetry c1
}
set optking {
	frozen_dihedral = ("
		16 12 9 13
	")
}

ee,wfn = optimize('scf', return_wfn=True)
oeprop( wfn, 'DIPOLE', 'QUADRUPOLE', 'MULLIKEN_CHARGES')
f=open( 'psi4out.xyz', 'w' )
f.write( "23  " )
f.write( str(ee) + "\n" )
f.write( MOL.save_string_xyz() )
f.close()
--------------------------------------------------------------------------

    Molecular point group: c1
  Charge       = 0
  Multiplicity = 1
  Basis Set: CC-PVTZ
  Basis Set:
  @DF-RHF Final Energy:  -423.12967677134077
    Total Energy =                       -423.1296767713408826
    Molecular point group: c1
  Basis Set: CC-PVTZ
  Basis Set:
  Basis Set: CC-PVTZ
  Basis Set:
  @DF-RHF Final Energy:  -423.12971936412106
    Total Energy =                       -423.1297193641214562
  Basis Set: CC-PVTZ
  Basis Set:
  Basis Set: CC-PVTZ
  Basis Set:
  @DF-RHF Final Energy:  -423.12857000322009
    Total Energy =                       -423.1285700032201476
  Basis Set: CC-PVTZ
  Basis Set:
  Basis Set: CC-PVTZ
  Basis Set:
  @DF-RHF Final Energy:  -423.12994526742028
    Total Energy =                       -423.1299452674203394
  Basis Set: CC-PVTZ
  Basis Set:
  Basis Set: CC-PVTZ
  Basis Set:
  @DF-RHF Final Energy:  -423.12995396741439
    Total Energy =                       -423.1299539674135985
  Basis Set: CC-PVTZ
  Basis Set:
  Basis Set: CC-PVTZ
  Basis Set:
  @DF-RHF Final Energy:  -423.12995575506784
    Total Energy =                       -423.1299557550676127
  Basis Set: CC-PVTZ
  Basis Set:
  Charge       = 0
  Multiplicity = 1
  Basis Set: CC-PVTZ
  Basis Set:

    Orbital Energies (a.u.)
    -----------------------

    Doubly Occupied:

       1A    -20.595957     2A    -20.529662     3A    -11.366567
       4A    -11.279991     5A    -11.230739     6A    -11.222005
       7A    -11.221273     8A    -11.219750     9A    -11.210627
      10A     -1.471361    11A     -1.364175    12A     -1.093560
      13A     -1.042876    14A     -1.003629    15A     -0.931022
      16A     -0.844884    17A     -0.801436    18A     -0.778953
      19A     -0.691781    20A     -0.688267    21A     -0.674832
      22A     -0.637444    23A     -0.614318    24A     -0.586950
      25A     -0.581902    26A     -0.571678    27A     -0.560429
      28A     -0.534348    29A     -0.526852    30A     -0.502387
      31A     -0.497380    32A     -0.478603    33A     -0.468287
      34A     -0.464761    35A     -0.453014    36A     -0.439080

  @DF-RHF Final Energy:  -423.12995701742773

   => Energetics <=

    Nuclear Repulsion Energy =            452.6151860497283224
    One-Electron Energy =               -1473.1287330721249873
    Two-Electron Energy =                 597.3835900049685961
    DFT Exchange-Correlation Energy =       0.0000000000000000
    Empirical Dispersion Energy =           0.0000000000000000
    PCM Polarization Energy =               0.0000000000000000
    EFP Energy =                            0.0000000000000000
    Total Energy =                       -423.1299570174280689
    Molecular point group: c1
  Basis Set: CC-PVTZ
  Basis Set:

  -Total Gradient:
     Atom            X                  Y                   Z
    ------   -----------------  -----------------  -----------------
       1        0.000001506188     0.000005629321    -0.000002139421
       2        0.000052757630    -0.000058136027     0.000006719722
       3       -0.000016995045     0.000010138510     0.000002275572
       4       -0.000071144141     0.000029396324     0.000000188577
       5        0.000007750406    -0.000002504172     0.000009419290
       6       -0.000001140653     0.000001721163    -0.000000552112
       7        0.000007475266     0.000000317409    -0.000012536379
       8        0.000038395373     0.000026214335    -0.000010413273
       9       -0.000393936806     0.000689316261    -0.000467073220
      10       -0.000007059342    -0.000004348338     0.000003323769
      11       -0.000005499036    -0.000006668903    -0.000003134090
      12        0.000390324896    -0.000685375676     0.000462268257
      13        0.000271314726    -0.000453361991     0.000310653663
      14        0.000004349262    -0.000002211002     0.000003048507
      15       -0.000005028774     0.000008966278    -0.000002145446
      16       -0.000277967235     0.000447793866    -0.000310729726
      17       -0.000001221812     0.000001150351     0.000001142253
      18        0.000004195486    -0.000009512860     0.000007000140
      19        0.000007979601     0.000010975562     0.000002920019
      20        0.000008726346    -0.000000018293    -0.000000477958
      21       -0.000008665851     0.000000178551     0.000002038957
      22        0.000000756121    -0.000000430110    -0.000001454880
      23       -0.000006872610    -0.000009230558    -0.000000342220

  **** Optimization is complete! (in 7 steps) ****
    Final optimized geometry and variables:
    Molecular point group: c1

    Geometry (in Angstrom), charge = 0, multiplicity = 1:

    O           -2.718803555594     1.172143761212    -0.236970319197
    C           -2.576109421356    -0.003424545875    -0.251355235390
    C           -3.717859759642    -0.983653181054    -0.239754459568
    O           -1.397734402258    -0.595565137486    -0.279091819804
    H           -4.345912117166    -0.790247885845    -1.098991479861
    H           -3.372445434401    -2.004959502911    -0.257835217567
    H           -4.311458746552    -0.809645160154     0.647680212154
    C           -0.242321444149     0.230892878291    -0.293313816002
    C            0.976704680673    -0.666732654114    -0.322400396201
    H           -0.279707495445     0.875529069689    -1.160723776250
    H           -0.247372485695     0.861068512918     0.585927274930
    C            2.288858046254     0.141244769799    -0.304372950374
    H            0.925264630864    -1.298199124535    -1.201147256551
    H            0.934326736404    -1.332327501856     0.532470576161
    C            3.131939200029    -0.088509572177     0.947849969148
    H            2.880286582719    -0.099052709296    -1.181155754544
    H            2.067515034616     1.202491008326    -0.384848689657
    C            4.416090595343     0.732532692794     0.963715650304
    H            3.376348499521    -1.144271670530     1.023868767306
    H            2.538970969674     0.150044770693     1.826852628548
    H            5.044268612834     0.492432130567     0.112320300890
    H            4.991350067421     0.543413670310     1.862550679587
    H            4.201908916476     1.795387915622     0.925507251031

  Mulliken Charges: (a.u.)
   Center  Symbol    Alpha    Beta     Spin     Total
       1     O     4.20237  4.20237  0.00000 -0.40475
       2     C     2.81474  2.81474  0.00000  0.37051
       3     C     3.13978  3.13978  0.00000 -0.27956
       4     O     4.14582  4.14582  0.00000 -0.29164
       5     H     0.44209  0.44209  0.00000  0.11583
       6     H     0.44179  0.44179  0.00000  0.11641
       7     H     0.44216  0.44216  0.00000  0.11568
       8     C     2.97718  2.97718  0.00000  0.04564
       9     C     3.08932  3.08932  0.00000 -0.17865
      10     H     0.45290  0.45290  0.00000  0.09421
      11     H     0.45390  0.45390  0.00000  0.09221
      12     C     3.10524  3.10524  0.00000 -0.21048
      13     H     0.44555  0.44555  0.00000  0.10889
      14     H     0.45093  0.45093  0.00000  0.09813
      15     C     3.08277  3.08277  0.00000 -0.16554
      16     H     0.44640  0.44640  0.00000  0.10720
      17     H     0.45425  0.45425  0.00000  0.09149
      18     C     3.15003  3.15003  0.00000 -0.30005
      19     H     0.45259  0.45259  0.00000  0.09481
      20     H     0.45351  0.45351  0.00000  0.09298
      21     H     0.45476  0.45476  0.00000  0.09047
      22     H     0.44773  0.44773  0.00000  0.10454
      23     H     0.45417  0.45417  0.00000  0.09166

   Total alpha = 36.00000, Total beta = 36.00000, Total charge = -0.00000

*** Psi4 exiting successfully. Buy a developer a beer!
