                              Psi4 1.0.54 Driver

  ==> Input File <==

--------------------------------------------------------------------------
set {
	reference rhf
	basis cc-pvtz
}

set_num_threads( 4 )
memory 2 gb

molecule MOL {
0 1

H	 -3.946526	 -0.463713	 0.499802
O	 -3.515113	 -0.019339	 -0.206321
C	 -2.302264	 0.528872	 0.237390
C	 -1.175688	 -0.398187	 -0.171891
H	 -2.148018	 1.514076	 -0.197759
H	 -2.310727	 0.646384	 1.319032
C	 0.196029	 0.106276	 0.266738
H	 -1.201873	 -0.515469	 -1.250677
H	 -1.365975	 -1.378728	 0.252664
C	 1.330220	 -0.826136	 -0.155230
H	 0.359542	 1.097229	 -0.145561
H	 0.212134	 0.218135	 1.348778
C	 2.719700	 -0.407669	 0.328325
H	 1.339388	 -0.911200	 -1.239363
H	 1.119001	 -1.821953	 0.224128
C	 3.241564	 0.893452	 -0.276737
H	 3.418299	 -1.204729	 0.093035
H	 2.711776	 -0.323368	 1.411960
H	 3.254204	 0.841071	 -1.360784
H	 2.634460	 1.745075	 0.005842
H	 4.254264	 1.092401	 0.054971

	symmetry c1
}
set optking {
	frozen_dihedral = ("
		1 2 3 5
	")
}

ee,wfn = optimize('scf', return_wfn=True)
oeprop( wfn, 'DIPOLE', 'QUADRUPOLE', 'MULLIKEN_CHARGES')
f=open( 'psi4out.xyz', 'w' )
f.write( "21  " )
f.write( str(ee) + "\n" )
f.write( MOL.save_string_xyz() )
f.close()
--------------------------------------------------------------------------

    Molecular point group: c1
  Charge       = 0
  Multiplicity = 1
  Basis Set: CC-PVTZ
  Basis Set:
  @DF-RHF Final Energy:  -310.33071785436596
    Total Energy =                       -310.3307178543658438
    Molecular point group: c1
  Basis Set: CC-PVTZ
  Basis Set:
  Basis Set: CC-PVTZ
  Basis Set:
  @DF-RHF Final Energy:  -310.02993706552832
    Total Energy =                       -310.0299370655283724
  Basis Set: CC-PVTZ
  Basis Set:
  Basis Set: CC-PVTZ
  Basis Set:
  @DF-RHF Final Energy:  -310.18451269280030
    Total Energy =                       -310.1845126928005243
  Basis Set: CC-PVTZ
  Basis Set:
  Basis Set: CC-PVTZ
  Basis Set:
  @DF-RHF Final Energy:  -310.30635005669797
    Total Energy =                       -310.3063500566980792
  Basis Set: CC-PVTZ
  Basis Set:
  @DF-RHF Final Energy:  -310.32920310665196
    Total Energy =                       -310.3292031066518462
  Basis Set: CC-PVTZ
  Basis Set:
  @DF-RHF Final Energy:  -310.33141803292676
    Total Energy =                       -310.3314180329267629
  Basis Set: CC-PVTZ
  Basis Set:
  Basis Set: CC-PVTZ
  Basis Set:
  @DF-RHF Final Energy:  -310.33171943760055
    Total Energy =                       -310.3317194376007819
  Basis Set: CC-PVTZ
  Basis Set:
  Basis Set: CC-PVTZ
  Basis Set:
  @DF-RHF Final Energy:  -310.33173528807538
    Total Energy =                       -310.3317352880756061
  Basis Set: CC-PVTZ
  Basis Set:
  Charge       = 0
  Multiplicity = 1
  Basis Set: CC-PVTZ
  Basis Set:

    Orbital Energies (a.u.)
    -----------------------

    Doubly Occupied:

       1A    -20.544625     2A    -11.265295     3A    -11.214413
       4A    -11.214108     5A    -11.212653     6A    -11.210109
       7A    -11.206666     8A     -1.362284     9A     -1.088354
      10A     -1.034737    11A     -0.955764    12A     -0.878483
      13A     -0.813602    14A     -0.779851    15A     -0.702100
      16A     -0.649172    17A     -0.619966    18A     -0.609357
      19A     -0.590955    20A     -0.572983    21A     -0.543167
      22A     -0.528432    23A     -0.502279    24A     -0.496617
      25A     -0.471138    26A     -0.468927    27A     -0.461157
      28A     -0.456825    29A     -0.422883

  @DF-RHF Final Energy:  -310.33173542082864

   => Energetics <=

    Nuclear Repulsion Energy =            312.5367147284665634
    One-Electron Energy =               -1039.9830920169918045
    Two-Electron Energy =                 417.1146418676967755
    DFT Exchange-Correlation Energy =       0.0000000000000000
    Empirical Dispersion Energy =           0.0000000000000000
    PCM Polarization Energy =               0.0000000000000000
    EFP Energy =                            0.0000000000000000
    Total Energy =                       -310.3317354208284655
    Molecular point group: c1
  Basis Set: CC-PVTZ
  Basis Set:

  -Total Gradient:
     Atom            X                  Y                   Z
    ------   -----------------  -----------------  -----------------
       1       -0.000720650097     0.000736074351     0.000834988333
       2        0.000786942084    -0.000889397867    -0.000814615883
       3        0.000496093185     0.000318115919    -0.000981277688
       4       -0.000010459805    -0.000009413461     0.000020768777
       5       -0.000568272693    -0.000176577818     0.000952609517
       6        0.000001609666     0.000003682049     0.000010084015
       7       -0.000021626679    -0.000002268460    -0.000041599712
       8        0.000000056730     0.000000547116    -0.000000265493
       9       -0.000001633509    -0.000004401565    -0.000008881090
      10        0.000008433797     0.000052697162     0.000016047067
      11       -0.000029681992    -0.000046584505    -0.000026429795
      12        0.000015056365     0.000006890458     0.000017404875
      13       -0.000034234589     0.000005111902     0.000041775820
      14       -0.000019265818     0.000021972525    -0.000001777844
      15        0.000007894251     0.000005787636    -0.000021472435
      16        0.000031766636    -0.000014802125     0.000006861873
      17        0.000020942162    -0.000022429433     0.000007932814
      18        0.000000841352     0.000007073185     0.000023924793
      19       -0.000006619189     0.000019514861    -0.000015669160
      20        0.000051830216    -0.000001502201    -0.000000886710
      21       -0.000009022075    -0.000010089733    -0.000019522073

  **** Optimization is complete! (in 9 steps) ****
    Final optimized geometry and variables:
    Molecular point group: c1

    Geometry (in Angstrom), charge = 0, multiplicity = 1:

    H           -3.815318806425    -1.359223707138    -0.088808099505
    O           -3.490943281116    -0.542127418735    -0.415711708979
    C           -2.349463663968    -0.145753015395     0.301345973349
    C           -1.067877873167    -0.487803480970    -0.438840718101
    H           -2.423225902646     0.925083503222     0.451763784493
    H           -2.342644505384    -0.600107330165     1.288933068685
    C            0.184386717910    -0.009148299981     0.290184443678
    H           -1.115887049058    -0.043830536706    -1.428202453798
    H           -1.022349098697    -1.563999556781    -0.584752471468
    C            1.472371610706    -0.345293725676    -0.459340816940
    H            0.115309926761     1.063137399016     0.444839934874
    H            0.222038949261    -0.458887862977     1.280359379825
    C            2.760491098006     0.035774514301     0.272246760549
    H            1.456800060876     0.139441667670    -1.432639827080
    H            1.490712415989    -1.413957080041    -0.654426775021
    C            2.976712105986     1.537262301479     0.444956405528
    H            3.601102285368    -0.374787861759    -0.278706553703
    H            2.774883268355    -0.444858327324     1.247065868474
    H            2.958060084204     2.045999432409    -0.513602001939
    H            2.217389392363     1.987563438854     1.072815972161
    H            3.937999139215     1.736431632055     0.904633768044

  Mulliken Charges: (a.u.)
   Center  Symbol    Alpha    Beta     Spin     Total
       1     H     0.39337  0.39337  0.00000  0.21326
       2     O     4.20334  4.20334  0.00000 -0.40668
       3     C     2.97359  2.97359  0.00000  0.05281
       4     C     3.08227  3.08227  0.00000 -0.16455
       5     H     0.45699  0.45699  0.00000  0.08602
       6     H     0.47195  0.47195  0.00000  0.05609
       7     C     3.10375  3.10375  0.00000 -0.20750
       8     H     0.45025  0.45025  0.00000  0.09949
       9     H     0.45979  0.45979  0.00000  0.08042
      10     C     3.09403  3.09403  0.00000 -0.18806
      11     H     0.45185  0.45185  0.00000  0.09630
      12     H     0.45602  0.45602  0.00000  0.08796
      13     C     3.08991  3.08991  0.00000 -0.17982
      14     H     0.45273  0.45273  0.00000  0.09455
      15     H     0.44941  0.44941  0.00000  0.10117
      16     C     3.15230  3.15230  0.00000 -0.30460
      17     H     0.44840  0.44840  0.00000  0.10320
      18     H     0.45517  0.45517  0.00000  0.08966
      19     H     0.45447  0.45447  0.00000  0.09106
      20     H     0.45397  0.45397  0.00000  0.09205
      21     H     0.44642  0.44642  0.00000  0.10715

   Total alpha = 29.00000, Total beta = 29.00000, Total charge = -0.00000

*** Psi4 exiting successfully. Buy a developer a beer!
