                              Psi4 1.0.54 Driver

  ==> Input File <==

--------------------------------------------------------------------------
set {
	reference rhf
	basis cc-pvtz
}

set_num_threads( 4 )
memory 2 gb

molecule MOL {
0 1

H	 2.420017	 -2.856325	 2.155545
C	 2.468937	 -2.175652	 1.313880
C	 1.190452	 -1.352935	 1.198708
H	 3.334106	 -1.536800	 1.456671
H	 2.639811	 -2.767372	 0.420747
C	 1.215950	 -0.382441	 0.027187
H	 1.025124	 -0.791050	 2.111241
H	 0.340416	 -2.022343	 1.089589
N	 0.000002	 0.398953	 -0.040851
H	 2.049812	 0.302657	 0.147532
H	 1.403102	 -0.935991	 -0.897821
C	 -1.215959	 -0.382435	 0.027143
H	 -0.000012	 1.086078	 0.683841
C	 -2.451944	 0.502410	 -0.038737
H	 -1.221867	 -1.069392	 -0.813828
H	 -1.259993	 -0.999709	 0.929424
C	 -3.752217	 -0.292550	 0.005776
H	 -2.407325	 1.093801	 -0.946480
H	 -2.431979	 1.206234	 0.790023
H	 -3.817783	 -0.982946	 -0.828547
H	 -4.612613	 0.364348	 -0.042306
H	 -3.830160	 -0.871666	 0.919868

	symmetry c1
}
set optking {
	frozen_dihedral = ("
		10 6 9 12
	")
}

ee,wfn = optimize('scf', return_wfn=True)
oeprop( wfn, 'DIPOLE', 'QUADRUPOLE', 'MULLIKEN_CHARGES')
f=open( 'psi4out.xyz', 'w' )
f.write( "22  " )
f.write( str(ee) + "\n" )
f.write( MOL.save_string_xyz() )
f.close()
--------------------------------------------------------------------------

    Molecular point group: c1
  Charge       = 0
  Multiplicity = 1
  Basis Set: CC-PVTZ
  Basis Set:
  @DF-RHF Final Energy:  -290.48174048980894
    Total Energy =                       -290.4817404898089990
    Molecular point group: c1
  Basis Set: CC-PVTZ
  Basis Set:
  Basis Set: CC-PVTZ
  Basis Set:
  @DF-RHF Final Energy:  -290.16193411290641
    Total Energy =                       -290.1619341129065788
  Basis Set: CC-PVTZ
  Basis Set:
  Basis Set: CC-PVTZ
  Basis Set:
  @DF-RHF Final Energy:  -290.31779400897318
    Total Energy =                       -290.3177940089730100
  Basis Set: CC-PVTZ
  Basis Set:
  Basis Set: CC-PVTZ
  Basis Set:
  @DF-RHF Final Energy:  -290.45134165932944
    Total Energy =                       -290.4513416593295005
  Basis Set: CC-PVTZ
  Basis Set:
  @DF-RHF Final Energy:  -290.48257057380567
    Total Energy =                       -290.4825705738055603
  @DF-RHF Final Energy:  -290.48577831138294
    Total Energy =                       -290.4857783113827168
  Basis Set: CC-PVTZ
  Basis Set:
  @DF-RHF Final Energy:  -290.48637913511118
    Total Energy =                       -290.4863791351111786
  Basis Set: CC-PVTZ
  Basis Set:
  Basis Set: CC-PVTZ
  Basis Set:
  @DF-RHF Final Energy:  -290.48643027570085
    Total Energy =                       -290.4864302757005703
  Basis Set: CC-PVTZ
  Basis Set:
  Basis Set: CC-PVTZ
  Basis Set:
  @DF-RHF Final Energy:  -290.48643439265493
    Total Energy =                       -290.4864343926546439
  Basis Set: CC-PVTZ
  Basis Set:
  Charge       = 0
  Multiplicity = 1
  Basis Set: CC-PVTZ
  Basis Set:

    Orbital Energies (a.u.)
    -----------------------

    Doubly Occupied:

       1A    -15.527200     2A    -11.236960     3A    -11.235548
       4A    -11.211186     5A    -11.209979     6A    -11.208478
       7A    -11.206604     8A     -1.203909     9A     -1.057563
      10A     -1.027864    11A     -0.929864    12A     -0.873237
      13A     -0.811072    14A     -0.791490    15A     -0.669561
      16A     -0.631247    17A     -0.617026    18A     -0.602926
      19A     -0.579491    20A     -0.556847    21A     -0.541490
      22A     -0.523691    23A     -0.502768    24A     -0.496372
      25A     -0.484170    26A     -0.469389    27A     -0.466073
      28A     -0.462658    29A     -0.354787

  @DF-RHF Final Energy:  -290.48643499206770

   => Energetics <=

    Nuclear Repulsion Energy =            317.8631702405608053
    One-Electron Energy =               -1021.7203055089901227
    Two-Electron Energy =                 413.3707002763611058
    DFT Exchange-Correlation Energy =       0.0000000000000000
    Empirical Dispersion Energy =           0.0000000000000000
    PCM Polarization Energy =               0.0000000000000000
    EFP Energy =                            0.0000000000000000
    Total Energy =                       -290.4864349920682685
    Molecular point group: c1
  Basis Set: CC-PVTZ
  Basis Set:

  -Total Gradient:
     Atom            X                  Y                   Z
    ------   -----------------  -----------------  -----------------
       1        0.000007786412     0.000005537970     0.000003923916
       2       -0.000008295862     0.000015734464     0.000026153432
       3        0.000015985383    -0.000034229794    -0.000057824743
       4        0.000021443008     0.000016495504    -0.000003713503
       5       -0.000004158446    -0.000004467216     0.000002272034
       6        0.000634472795     0.000213364974    -0.002932702182
       7        0.000002201182    -0.000001474960     0.000003054095
       8       -0.000018374825    -0.000029511502     0.000006483041
       9        0.000607400482    -0.000641135967    -0.003210076431
      10       -0.000719575413     0.000012272708     0.003410795911
      11        0.000023162601    -0.000009796129     0.000014595579
      12       -0.000528672526     0.000408049085     0.002729558296
      13       -0.000028833768     0.000024501428     0.000015120450
      14       -0.000025219430     0.000050539878    -0.000013299794
      15       -0.000002588170    -0.000022278732    -0.000006426283
      16       -0.000011083375     0.000008267433     0.000000285324
      17        0.000029414518    -0.000024541590     0.000013259325
      18        0.000002188217    -0.000005114418     0.000006532197
      19        0.000001098995     0.000008571821     0.000005684364
      20        0.000000706600    -0.000011111054    -0.000004495271
      21        0.000000282844     0.000014627720    -0.000005708408
      22        0.000000658777     0.000005698376    -0.000003471347

  **** Optimization is complete! (in 10 steps) ****
    Final optimized geometry and variables:
    Molecular point group: c1

    Geometry (in Angstrom), charge = 0, multiplicity = 1:

    H            3.504827962166    -0.343653614027     2.321893843143
    C            3.228228563807     0.183838627315     1.416621817427
    C            1.728210848247     0.087292789703     1.156355797928
    H            3.543152918620     1.216354820561     1.526627723560
    H            3.795620194998    -0.247076507903     0.598192037010
    C            1.321365702037     0.820290858468    -0.124735587687
    H            1.184334205239     0.509536575334     1.998067681113
    H            1.444199982494    -0.957708751246     1.098132995081
    N           -0.096637224385     0.891431317319    -0.425493612078
    H            1.678255594235     1.841629944643    -0.043833171440
    H            1.833043734426     0.368457883164    -0.969849197269
    C           -0.845314982979    -0.346823853682    -0.361579567527
    H           -0.530807279905     1.574658192282     0.158015389218
    C           -2.261820651254    -0.153758219329    -0.884541730604
    H           -0.334311766888    -1.081436920761    -0.978175731535
    H           -0.892409777205    -0.766482216393     0.643947928455
    C           -3.087963904024    -1.434610618785    -0.844596760754
    H           -2.208769095118     0.226205444494    -1.898429541565
    H           -2.757123691855     0.613176818583    -0.293676841827
    H           -2.634204057746    -2.212647893173    -1.449682440827
    H           -4.088879696222    -1.265048909257    -1.223627207460
    H           -3.178978905326    -1.815194033927     0.167377170870

  Mulliken Charges: (a.u.)
   Center  Symbol    Alpha    Beta     Spin     Total
       1     H     0.44741  0.44741  0.00000  0.10519
       2     C     3.15206  3.15206  0.00000 -0.30412
       3     C     3.08869  3.08869  0.00000 -0.17738
       4     H     0.45493  0.45493  0.00000  0.09015
       5     H     0.45484  0.45484  0.00000  0.09032
       6     C     3.04470  3.04470  0.00000 -0.08939
       7     H     0.45732  0.45732  0.00000  0.08536
       8     H     0.45227  0.45227  0.00000  0.09545
       9     N     3.64229  3.64229  0.00000 -0.28457
      10     H     0.45201  0.45201  0.00000  0.09598
      11     H     0.45325  0.45325  0.00000  0.09350
      12     C     3.02595  3.02595  0.00000 -0.05190
      13     H     0.44513  0.44513  0.00000  0.10974
      14     C     3.07971  3.07971  0.00000 -0.15942
      15     H     0.45887  0.45887  0.00000  0.08226
      16     H     0.46889  0.46889  0.00000  0.06222
      17     C     3.15388  3.15388  0.00000 -0.30776
      18     H     0.44902  0.44902  0.00000  0.10197
      19     H     0.45940  0.45940  0.00000  0.08120
      20     H     0.45513  0.45513  0.00000  0.08975
      21     H     0.44765  0.44765  0.00000  0.10470
      22     H     0.45662  0.45662  0.00000  0.08676

   Total alpha = 29.00000, Total beta = 29.00000, Total charge =  0.00000

*** Psi4 exiting successfully. Buy a developer a beer!
