  ==> Input File <==

--------------------------------------------------------------------------
set {
	reference rhf
	basis 6-31G*
}

set_num_threads( 4 )
memory 2 gb

molecule MOL {
0 1

H	 0.827569	 -1.180180	 -0.057340
C	 0.772129	 -0.379603	 -0.805476
C	 0.065331	 0.871482	 -0.349150
O	 1.252997	 -0.533271	 -1.881056
C	 -1.339775	 0.583656	 0.198860
H	 0.032160	 1.567644	 -1.179313
H	 0.673178	 1.316175	 0.437573
C	 -1.808407	 -0.848507	 -0.061364
H	 -2.036183	 1.280685	 -0.256307
H	 -1.360094	 0.788874	 1.267089
H	 -1.828843	 -1.063152	 -1.125336
H	 -2.808409	 -1.004529	 0.329750
H	 -1.153967	 -1.577789	 0.406873

	symmetry c1
}
set optking {
	frozen_dihedral = ("
		6 3 5 9
	")
}

ee = optimize('scf')
oeprop('DIPOLE', 'QUADRUPOLE', 'MULLIKEN_CHARGES')
f=open( 'psi4out.xyz', 'w' )
f.write( "13  " )
f.write( str(ee) + "\n" )
f.write( MOL.save_string_xyz() )
f.close()
--------------------------------------------------------------------------

    Molecular point group: c1
  Charge       = 0
  Multiplicity = 1
  Basis Set: 6-31G*
  Basis Set:
  @DF-RHF Final Energy:  -230.97413444757558
    Total Energy =                       -230.9741344475755795
    Molecular point group: c1
  Basis Set: 6-31G*
  Basis Set:
  Basis Set: 6-31G*
  Basis Set:
  @DF-RHF Final Energy:  -230.97443175686257
    Total Energy =                       -230.9744317568625434
  Basis Set: 6-31G*
  Basis Set:
  Basis Set: 6-31G*
  Basis Set:
  @DF-RHF Final Energy:  -230.97267319448122
    Total Energy =                       -230.9726731944812741
  Basis Set: 6-31G*
  Basis Set:
  Basis Set: 6-31G*
  Basis Set:
  @DF-RHF Final Energy:  -230.97658781925304
    Total Energy =                       -230.9765878192532398
  Basis Set: 6-31G*
  Basis Set:
  Basis Set: 6-31G*
  Basis Set:
  @DF-RHF Final Energy:  -230.97684520296647
    Total Energy =                       -230.9768452029666150
  Basis Set: 6-31G*
  Basis Set:
  Basis Set: 6-31G*
  Basis Set:
  @DF-RHF Final Energy:  -230.97689125480179
    Total Energy =                       -230.9768912548015294
  Basis Set: 6-31G*
  Basis Set:
  Basis Set: 6-31G*
  Basis Set:
  @DF-RHF Final Energy:  -230.97690384957696
    Total Energy =                       -230.9769038495768427
  Basis Set: 6-31G*
  Basis Set:
  Charge       = 0
  Multiplicity = 1
  Basis Set: 6-31G*
  Basis Set:

    Orbital Energies (a.u.)
    -----------------------

    Doubly Occupied:

       1A    -20.562043     2A    -11.326618     3A    -11.239026
       4A    -11.235284     5A    -11.223569     6A     -1.401936
       7A     -1.081201     8A     -0.973328     9A     -0.856663
      10A     -0.778739    11A     -0.671536    12A     -0.634176
      13A     -0.632605    14A     -0.601623    15A     -0.556663
      16A     -0.527591    17A     -0.515760    18A     -0.486951
      19A     -0.477724    20A     -0.409463

  @DF-RHF Final Energy:  -230.97690465660278

   => Energetics <=

    Nuclear Repulsion Energy =            174.0447373657219430
    One-Electron Energy =                -657.6582827492316028
    Two-Electron Energy =                 252.6366407269070180
    DFT Exchange-Correlation Energy =       0.0000000000000000
    Empirical Dispersion Energy =           0.0000000000000000
    PCM Polarization Energy =               0.0000000000000000
    EFP Energy =                            0.0000000000000000
    Total Energy =                       -230.9769046566026134
    Molecular point group: c1
  Basis Set: 6-31G*
  Basis Set:

  -Total Gradient:
     Atom            X                  Y                   Z
    ------   -----------------  -----------------  -----------------
       1       -0.000001091062     0.000005957478     0.000003699660
       2        0.000010783885    -0.000017515335     0.000014632314
       3       -0.000547837150    -0.003512024088    -0.003086985839
       4        0.000001659940     0.000028421831     0.000004635847
       5        0.000716006468     0.003064752921     0.003368028000
       6        0.000318439927     0.002453122018     0.002048399199
       7        0.000008149002    -0.000003387425    -0.000010733034
       8        0.000012967244    -0.000012271590     0.000008961716
       9       -0.000515592237    -0.002008748703    -0.002342925374
      10       -0.000001152208    -0.000009795572     0.000000272809
      11       -0.000001000516    -0.000002465719    -0.000007556972
      12        0.000007717248     0.000018504176    -0.000008680237
      13       -0.000009050540    -0.000004549991     0.000008251912

  **** Optimization is complete! (in 8 steps) ****
    Final optimized geometry and variables:
    Molecular point group: c1

    Geometry (in Angstrom), charge = 0, multiplicity = 1:

    H            1.289331377724    -1.020529550540     0.555491614925
    C            1.067734699933    -0.276198756833    -0.216337345663
    C            0.290045483051     0.931344429441     0.242211957854
    O            1.455655108761    -0.439429621930    -1.328014693700
    C           -1.126643346095     0.636494579673     0.812808998334
    H            0.238174652765     1.630630294669    -0.582709635643
    H            0.890832656624     1.409436066086     1.013875853759
    C           -1.668333670679    -0.772283391525     0.540989780453
    H           -1.816576409047     1.340506194047     0.361409282820
    H           -1.141041902146     0.821680438413     1.880922806636
    H           -1.657942626425    -1.003640732944    -0.519756744128
    H           -2.694438864350    -0.848408193320     0.884852230904
    H           -1.098185319387    -1.539500696883     1.054936790445

  Mulliken Charges: (a.u.)
   Center  Symbol    Alpha    Beta     Spin     Total
       1     H     0.43034  0.43034  0.00000  0.13931
       2     C     2.83343  2.83343  0.00000  0.33314
       3     C     3.21304  3.21304  0.00000 -0.42608
       4     O     4.23691  4.23691  0.00000 -0.47381
       5     C     3.15896  3.15896  0.00000 -0.31792
       6     H     0.39761  0.39761  0.00000  0.20478
       7     H     0.40872  0.40872  0.00000  0.18256
       8     C     3.25298  3.25298  0.00000 -0.50595
       9     H     0.41032  0.41032  0.00000  0.17937
      10     H     0.41449  0.41449  0.00000  0.17101
      11     H     0.41095  0.41095  0.00000  0.17809
      12     H     0.41304  0.41304  0.00000  0.17392
      13     H     0.41921  0.41921  0.00000  0.16159

   Total alpha = 20.00000, Total beta = 20.00000, Total charge =  0.00000
