  ==> Input File <==

--------------------------------------------------------------------------
set {
	reference rhf
	basis 6-31G*
}

set_num_threads( 4 )
memory 2 gb

molecule MOL {
0 1

H	 -3.420663	 1.227371	 -1.044276
O	 -3.452007	 0.283848	 -0.965577
C	 -3.181085	 -0.079926	 0.364119
C	 -1.765924	 0.277073	 0.805136
H	 -3.327791	 -1.152017	 0.410903
H	 -3.905698	 0.375695	 1.036898
C	 -0.677594	 -0.417312	 -0.014550
H	 -1.637766	 1.358238	 0.744969
H	 -1.659588	 0.017670	 1.857098
C	 0.198644	 -1.352676	 0.821201
H	 -0.058028	 0.334416	 -0.493874
H	 -1.146125	 -0.983757	 -0.817676
C	 1.281909	 -2.048578	 -0.007256
H	 0.655639	 -0.783112	 1.626913
H	 -0.427470	 -2.106390	 1.297123
C	 2.129599	 -3.063647	 0.768122
H	 1.935929	 -1.297500	 -0.447521
H	 0.806521	 -2.561535	 -0.840742
C	 3.005739	 -2.454840	 1.864543
H	 2.769408	 -3.588120	 0.062529
H	 1.477724	 -3.818091	 1.204100
H	 3.660039	 -1.687320	 1.459644
H	 3.632517	 -3.213699	 2.322931
H	 2.413993	 -2.002641	 2.653540

	symmetry c1
}
set optking {
	frozen_dihedral = ("
		11 7 4 3
	")
}

ee = optimize('scf')
oeprop('DIPOLE', 'QUADRUPOLE', 'MULLIKEN_CHARGES')
f=open( 'psi4out.xyz', 'w' )
f.write( "24  " )
f.write( str(ee) + "\n" )
f.write( MOL.save_string_xyz() )
f.close()
--------------------------------------------------------------------------

    Molecular point group: c1
  Charge       = 0
  Multiplicity = 1
  Basis Set: 6-31G*
  Basis Set:
  @DF-RHF Final Energy:  -349.24239559244239
    Total Energy =                       -349.2423955924422216
    Molecular point group: c1
  Basis Set: 6-31G*
  Basis Set:
  Basis Set: 6-31G*
  Basis Set:
  @DF-RHF Final Energy:  -349.24260666375596
    Total Energy =                       -349.2426066637559643
  Basis Set: 6-31G*
  Basis Set:
  Basis Set: 6-31G*
  Basis Set:
  @DF-RHF Final Energy:  -349.24267506155007
    Total Energy =                       -349.2426750615501305
  Basis Set: 6-31G*
  Basis Set:
  Basis Set: 6-31G*
  Basis Set:
  @DF-RHF Final Energy:  -349.24267042954853
    Total Energy =                       -349.2426704295485251
  Basis Set: 6-31G*
  Basis Set:
  Basis Set: 6-31G*
  Basis Set:
  @DF-RHF Final Energy:  -349.24267613032384
    Total Energy =                       -349.2426761303236162
  Basis Set: 6-31G*
  Basis Set:
  Basis Set: 6-31G*
  Basis Set:
  @DF-RHF Final Energy:  -349.24268411455728
    Total Energy =                       -349.2426841145572212
  Basis Set: 6-31G*
  Basis Set:
  Charge       = 0
  Multiplicity = 1
  Basis Set: 6-31G*
  Basis Set:

    Orbital Energies (a.u.)
    -----------------------

    Doubly Occupied:

       1A    -20.553345     2A    -11.267690     3A    -11.217291
       4A    -11.213819     5A    -11.212555     6A    -11.211237
       7A    -11.211039     8A    -11.207163     9A     -1.360214
      10A     -1.087412    11A     -1.046554    12A     -0.984963
      13A     -0.914433    14A     -0.852455    15A     -0.800320
      16A     -0.776523    17A     -0.677909    18A     -0.647503
      19A     -0.632685    20A     -0.613321    21A     -0.605778
      22A     -0.576892    23A     -0.551756    24A     -0.546845
      25A     -0.519908    26A     -0.507614    27A     -0.493621
      28A     -0.477006    29A     -0.468645    30A     -0.459749
      31A     -0.452286    32A     -0.443768    33A     -0.421189

  @DF-RHF Final Energy:  -349.24268363177060

   => Energetics <=

    Nuclear Repulsion Energy =            385.2926529716376649
    One-Electron Energy =               -1237.0437035957111220
    Two-Electron Energy =                 502.5083669923028538
    DFT Exchange-Correlation Energy =       0.0000000000000000
    Empirical Dispersion Energy =           0.0000000000000000
    PCM Polarization Energy =               0.0000000000000000
    EFP Energy =                            0.0000000000000000
    Total Energy =                       -349.2426836317706602
    Molecular point group: c1
  Basis Set: 6-31G*
  Basis Set:

  -Total Gradient:
     Atom            X                  Y                   Z
    ------   -----------------  -----------------  -----------------
       1       -0.000005982482     0.000013963379    -0.000019839752
       2       -0.000028413041     0.000065508334     0.000028425429
       3        0.000016414527     0.000209018515    -0.000264322658
       4       -0.000111048157    -0.000395869299     0.000246352595
       5       -0.000005900530    -0.000014471022     0.000018395139
       6        0.000006598046     0.000005365244    -0.000018169176
       7        0.000406958122     0.000081329693     0.000430652992
       8        0.000010971820     0.000006378128     0.000007037487
       9       -0.000025121254     0.000011453982    -0.000003469552
      10        0.000043341241     0.000027444274     0.000003568382
      11       -0.000325873248    -0.000008508740    -0.000426393041
      12        0.000032126309     0.000006499795    -0.000004085750
      13       -0.000023455578    -0.000027120617     0.000000927238
      14        0.000033940236    -0.000003028659     0.000001182803
      15       -0.000000318903     0.000014960624     0.000006721048
      16       -0.000001628072    -0.000005722920    -0.000008439137
      17       -0.000003690684    -0.000000790746     0.000006722410
      18       -0.000008329315     0.000001493046    -0.000005098286
      19       -0.000008152431     0.000005975178     0.000001896065
      20        0.000001008838     0.000007371944    -0.000002347134
      21        0.000003650022    -0.000007076442    -0.000004380559
      22        0.000002833243    -0.000003996250     0.000000080272
      23       -0.000004046264    -0.000001339447     0.000003746563
      24       -0.000005882441     0.000011162006     0.000000836624

  **** Optimization is complete! (in 7 steps) ****
    Final optimized geometry and variables:
    Molecular point group: c1

    Geometry (in Angstrom), charge = 0, multiplicity = 1:

    H           -3.030344541459     2.294892642089    -1.501612737993
    O           -3.088909358618     1.353833882332    -1.410350609450
    C           -2.834602229238     0.999885011208    -0.075343004582
    C           -1.423590649515     1.360211727744     0.375696633070
    H           -2.981232140319    -0.072175617614    -0.023603190559
    H           -3.566565877148     1.460071781625     0.586356836879
    C           -0.316933017451     0.664559792567    -0.446255984889
    H           -1.310119754305     2.441889032392     0.324847738626
    H           -1.330959514227     1.103974281215     1.428921103263
    C            0.563633023613    -0.270265099977     0.387065669485
    H            0.311892020684     1.409697957200    -0.925968417802
    H           -0.772986295567     0.103754181457    -1.256376456353
    C            1.639688251486    -0.971471508845    -0.445121479093
    H            1.024658950980     0.299897995666     1.189918348691
    H           -0.064021128950    -1.020712450690     0.866960690913
    C            2.488029920235    -1.987766859285     0.327990858636
    H            2.294420509616    -0.223556190478    -0.890121809502
    H            1.158024861924    -1.484009822167    -1.275236322741
    C            3.371156433091    -1.379669357479     1.419176831877
    H            3.122743036975    -2.515479339434    -0.379696816878
    H            1.835822195542    -2.739365883467     0.768288266721
    H            4.027051722189    -0.616002558443     1.009586821866
    H            3.996642442424    -2.139915646840     1.877047390690
    H            2.784549758993    -0.922722468189     2.209244761059

  Mulliken Charges: (a.u.)
   Center  Symbol    Alpha    Beta     Spin     Total
       1     H     0.28341  0.28341  0.00000  0.43318
       2     O     4.36818  4.36818  0.00000 -0.73636
       3     C     2.99846  2.99846  0.00000  0.00308
       4     C     3.17159  3.17159  0.00000 -0.34318
       5     H     0.41660  0.41660  0.00000  0.16680
       6     H     0.42877  0.42877  0.00000  0.14245
       7     C     3.15577  3.15577  0.00000 -0.31154
       8     H     0.42536  0.42536  0.00000  0.14929
       9     H     0.41932  0.41932  0.00000  0.16136
      10     C     3.15622  3.15622  0.00000 -0.31243
      11     H     0.42161  0.42161  0.00000  0.15679
      12     H     0.40813  0.40813  0.00000  0.18374
      13     C     3.15313  3.15313  0.00000 -0.30625
      14     H     0.42223  0.42223  0.00000  0.15554
      15     H     0.42538  0.42538  0.00000  0.14924
      16     C     3.15222  3.15222  0.00000 -0.30445
      17     H     0.42447  0.42447  0.00000  0.15107
      18     H     0.42100  0.42100  0.00000  0.15801
      19     C     3.24097  3.24097  0.00000 -0.48194
      20     H     0.42108  0.42108  0.00000  0.15785
      21     H     0.42357  0.42357  0.00000  0.15286
      22     H     0.42250  0.42250  0.00000  0.15501
      23     H     0.41954  0.41954  0.00000  0.16093
      24     H     0.42051  0.42051  0.00000  0.15898

   Total alpha = 33.00000, Total beta = 33.00000, Total charge = -0.00000
