                              Psi4 1.0.54 Driver

  ==> Input File <==

--------------------------------------------------------------------------
set {
	reference rhf
	basis cc-pvtz
}

set_num_threads( 4 )
memory 2 gb

molecule MOL {
0 1

H	 2.646708	 0.758099	 0.000000
O	 2.258158	 -0.097743	 0.000000
C	 0.911162	 -0.015915	 0.000000
C	 0.207375	 -1.038820	 0.614126
C	 0.233459	 1.037919	 -0.583586
H	 0.749677	 -1.848248	 1.061604
C	 -1.169862	 -0.997681	 0.638633
H	 0.779509	 1.831831	 -1.060225
C	 -1.149520	 1.066074	 -0.551395
H	 -1.710026	 -1.793154	 1.115965
C	 -1.860198	 0.052988	 0.057313
H	 -1.667976	 1.888218	 -1.007037
H	 -2.931988	 0.078071	 0.080380

	symmetry c1
}
set optking {
	frozen_dihedral = ("
		4 3 2 1
	")
}

ee,wfn = optimize('scf', return_wfn=True)
oeprop( wfn, 'DIPOLE', 'QUADRUPOLE', 'MULLIKEN_CHARGES')
f=open( 'psi4out.xyz', 'w' )
f.write( "13  " )
f.write( str(ee) + "\n" )
f.write( MOL.save_string_xyz() )
f.close()
--------------------------------------------------------------------------

    Molecular point group: c1
  Charge       = 0
  Multiplicity = 1
  Basis Set: CC-PVTZ
  Basis Set:
  @DF-RHF Final Energy:  -305.66930356008811
    Total Energy =                       -305.6693035600878829
    Molecular point group: c1
  Basis Set: CC-PVTZ
  Basis Set:
  Basis Set: CC-PVTZ
  Basis Set:
  @DF-RHF Final Energy:  -305.66934995807691
    Total Energy =                       -305.6693499580768503
  Basis Set: CC-PVTZ
  Basis Set:
  Basis Set: CC-PVTZ
  Basis Set:
  @DF-RHF Final Energy:  -305.66935824170019
    Total Energy =                       -305.6693582417000812
  Basis Set: CC-PVTZ
  Basis Set:
  Charge       = 0
  Multiplicity = 1
  Basis Set: CC-PVTZ
  Basis Set:

    Orbital Energies (a.u.)
    -----------------------

    Doubly Occupied:

       1A    -20.581300     2A    -11.295435     3A    -11.234956
       4A    -11.233337     5A    -11.226239     6A    -11.221431
       7A    -11.221033     8A     -1.411039     9A     -1.152862
      10A     -1.022699    11A     -1.008399    12A     -0.848464
      13A     -0.827010    14A     -0.740932    15A     -0.687487
      16A     -0.653844    17A     -0.618924    18A     -0.598886
      19A     -0.591835    20A     -0.553281    21A     -0.517464
      22A     -0.494944    23A     -0.482272    24A     -0.342904
      25A     -0.318110

  @DF-RHF Final Energy:  -305.66935909026120

   => Energetics <=

    Nuclear Repulsion Energy =            273.7083367993508318
    One-Electron Energy =                -956.9852174221043697
    Two-Electron Energy =                 377.6075215324923988
    DFT Exchange-Correlation Energy =       0.0000000000000000
    Empirical Dispersion Energy =           0.0000000000000000
    PCM Polarization Energy =               0.0000000000000000
    EFP Energy =                            0.0000000000000000
    Total Energy =                       -305.6693590902611390
    Molecular point group: c1
  Basis Set: CC-PVTZ
  Basis Set:

  -Total Gradient:
     Atom            X                  Y                   Z
    ------   -----------------  -----------------  -----------------
       1       -0.000003152494     0.000013269590     0.002426614163
       2        0.000080868466     0.000351378555    -0.002297551731
       3       -0.000203233465    -0.001141288917    -0.001657655256
       4       -0.000037990544     0.000851848885     0.001510081975
       5        0.000122909688    -0.000091826242     0.000005301811
       6        0.000021484074    -0.000006063805     0.000017394132
       7        0.000144244624    -0.000107430630     0.000027730998
       8       -0.000005537736    -0.000000968203    -0.000000348548
       9       -0.000169665051    -0.000059080333     0.000039732079
      10        0.000006271985     0.000010170631    -0.000007120741
      11        0.000038871585     0.000181649146    -0.000066632931
      12        0.000011612559     0.000010657072     0.000008998068
      13       -0.000006683686    -0.000012315746    -0.000006544020

  **** Optimization is complete! (in 4 steps) ****
    Final optimized geometry and variables:
    Molecular point group: c1

    Geometry (in Angstrom), charge = 0, multiplicity = 1:

    H            2.649105552557     0.742875612678    -0.057970841802
    O            2.260372153894    -0.112996518070    -0.048672531807
    C            0.908940189305    -0.027400660863    -0.027475719014
    C            0.206013868192    -1.041115654548     0.598871346405
    C            0.232806898834     1.027307986871    -0.611982321668
    H            0.748169731301    -1.847000695031     1.053020334894
    C           -1.172614082241    -0.999297607343     0.624756523386
    H            0.781980429344     1.809155971623    -1.103694482332
    C           -1.148904623247     1.064021961384    -0.568729918323
    H           -1.713541867716    -1.790048393063     1.108931925445
    C           -1.859942614059     0.052862983046     0.045221931818
    H           -1.667414050114     1.886731947120    -1.023257581016
    H           -2.931661423597     0.082190528203     0.073148877851

  Mulliken Charges: (a.u.)
   Center  Symbol    Alpha    Beta     Spin     Total
       1     H     0.38597  0.38597  0.00000  0.22805
       2     O     4.18028  4.18028  0.00000 -0.36056
       3     C     2.85819  2.85819  0.00000  0.28362
       4     C     3.10966  3.10966  0.00000 -0.21931
       5     C     3.12865  3.12865  0.00000 -0.25730
       6     H     0.41826  0.41826  0.00000  0.16348
       7     C     3.05919  3.05919  0.00000 -0.11839
       8     H     0.43005  0.43005  0.00000  0.13989
       9     C     3.06599  3.06599  0.00000 -0.13197
      10     H     0.42222  0.42222  0.00000  0.15555
      11     C     3.09552  3.09552  0.00000 -0.19104
      12     H     0.42230  0.42230  0.00000  0.15540
      13     H     0.42372  0.42372  0.00000  0.15256

   Total alpha = 25.00000, Total beta = 25.00000, Total charge = -0.00000

*** Psi4 exiting successfully. Buy a developer a beer!
