  ==> Input File <==

--------------------------------------------------------------------------
set {
	reference rhf
	basis 6-31G*
}

set_num_threads( 1 )
memory 2 gb

molecule MOL {
0 1

O	 -2.042549	 -1.228399	 -0.269030
C	 -1.653912	 -0.146171	 0.050137
C	 -0.332303	 0.024011	 0.778412
C	 -2.438579	 1.106236	 -0.272369
C	 -0.429112	 -0.497111	 2.220956
H	 0.463247	 -0.494471	 0.250531
H	 -0.097105	 1.082532	 0.790177
C	 0.873886	 -0.316359	 3.001055
H	 -0.699274	 -1.551646	 2.213913
H	 -1.235380	 0.027263	 2.725043
C	 0.777701	 -0.825551	 4.438650
H	 1.678828	 -0.836141	 2.485962
H	 1.143756	 0.737063	 3.007470
H	 0.542081	 -1.885667	 4.464922
H	 0.002122	 -0.300898	 4.988795
H	 1.714193	 -0.681891	 4.968150
H	 -3.277823	 0.863061	 -0.908988
H	 -1.806773	 1.843019	 -0.759671
H	 -2.802853	 1.554979	 0.648059

	symmetry c1
}
set optking {
	frozen_dihedral = ("
		11 8 5 9,
		9 5 3 2
	")
}

ee = energy('scf')
oeprop('DIPOLE', 'QUADRUPOLE', 'MULLIKEN_CHARGES')
f=open( 'psi4out.xyz', 'w' )
f.write( "19  " )
f.write( str(ee) + "\n" )
f.write( MOL.save_string_xyz() )
f.close()
--------------------------------------------------------------------------

    Molecular point group: c1

    Geometry (in Angstrom), charge = 0, multiplicity = 1:

       Center              X                  Y                   Z               Mass
    ------------   -----------------  -----------------  -----------------  -----------------
           O         -1.288144622003    -0.957165106406    -1.701437665150    15.994914619560
           C         -0.899507622003     0.125062893594    -1.382270665150    12.000000000000
           C          0.422101377997     0.295244893594    -0.653995665150    12.000000000000
           C         -1.684174622003     1.377469893594    -1.704776665150    12.000000000000
           C          0.325292377997    -0.225877106406     0.788548334850    12.000000000000
           H          1.217651377997    -0.223237106406    -1.181876665150     1.007825032070
           H          0.657299377997     1.353765893594    -0.642230665150     1.007825032070
           C          1.628290377997    -0.045125106406     1.568647334850    12.000000000000
           H          0.055130377997    -1.280412106406     0.781505334850     1.007825032070
           H         -0.480975622003     0.298496893594     1.292635334850     1.007825032070
           C          1.532105377997    -0.554317106406     3.006242334850    12.000000000000
           H          2.433232377997    -0.564907106406     1.053554334850     1.007825032070
           H          1.898160377997     1.008296893594     1.575062334850     1.007825032070
           H          1.296485377997    -1.614433106406     3.032514334850     1.007825032070
           H          0.756526377997    -0.029664106406     3.556387334850     1.007825032070
           H          2.468597377997    -0.410657106406     3.535742334850     1.007825032070
           H         -2.523418622003     1.134294893594    -2.341395665150     1.007825032070
           H         -1.052368622003     2.114252893594    -2.192078665150     1.007825032070
           H         -2.048448622003     1.826212893594    -0.784348665150     1.007825032070

  Charge       = 0
  Multiplicity = 1
  Basis Set: 6-31G*
  Basis Set:

    Orbital Energies (a.u.)
    -----------------------

    Doubly Occupied:

       1A    -20.547163     2A    -11.324537     3A    -11.229759
       4A    -11.228913     5A    -11.228265     6A    -11.223620
       7A    -11.213973     8A     -1.393016     9A     -1.090109
      10A     -1.029718    11A     -0.983971    12A     -0.888887
      13A     -0.805418    14A     -0.733046    15A     -0.662028
      16A     -0.646191    17A     -0.622808    18A     -0.612163
      19A     -0.582263    20A     -0.572772    21A     -0.553449
      22A     -0.536799    23A     -0.514105    24A     -0.497098
      25A     -0.480992    26A     -0.475062    27A     -0.465591
      28A     -0.396714

  @DF-RHF Final Energy:  -309.06404471296190

   => Energetics <=

    Nuclear Repulsion Energy =            301.0813201022596672
    One-Electron Energy =               -1015.2140225636615014
    Two-Electron Energy =                 405.0686577484406143
    DFT Exchange-Correlation Energy =       0.0000000000000000
    Empirical Dispersion Energy =           0.0000000000000000
    PCM Polarization Energy =               0.0000000000000000
    EFP Energy =                            0.0000000000000000
    Total Energy =                       -309.0640447129611630

  Mulliken Charges: (a.u.)
   Center  Symbol    Alpha    Beta     Spin     Total
       1     O     4.26238  4.26238  0.00000 -0.52475
       2     C     2.73733  2.73733  0.00000  0.52533
       3     C     3.19973  3.19973  0.00000 -0.39946
       4     C     3.29025  3.29025  0.00000 -0.58051
       5     C     3.15867  3.15867  0.00000 -0.31734
       6     H     0.40047  0.40047  0.00000  0.19905
       7     H     0.41838  0.41838  0.00000  0.16324
       8     C     3.15207  3.15207  0.00000 -0.30413
       9     H     0.40574  0.40574  0.00000  0.18851
      10     H     0.42127  0.42127  0.00000  0.15746
      11     C     3.24017  3.24017  0.00000 -0.48034
      12     H     0.42005  0.42005  0.00000  0.15991
      13     H     0.42287  0.42287  0.00000  0.15426
      14     H     0.41895  0.41895  0.00000  0.16210
      15     H     0.42106  0.42106  0.00000  0.15788
      16     H     0.41780  0.41780  0.00000  0.16439
      17     H     0.39653  0.39653  0.00000  0.20694
      18     H     0.40903  0.40903  0.00000  0.18193
      19     H     0.40724  0.40724  0.00000  0.18552

   Total alpha = 28.00000, Total beta = 28.00000, Total charge =  0.00000
