  ==> Input File <==

--------------------------------------------------------------------------
set {
	reference rhf
	basis 6-31G*
}

set_num_threads( 4 )
memory 2 gb

molecule MOL {
0 1

H	 -2.495541	 -0.149184	 1.951023
C	 -2.411466	 -0.652940	 0.990137
O	 -1.126839	 -0.541782	 0.467914
H	 -2.617709	 -1.705434	 1.127476
H	 -3.156256	 -0.234056	 0.314673
C	 -0.719715	 0.768384	 0.229244
C	 0.719720	 0.768376	 -0.229267
H	 -1.341832	 1.222938	 -0.542797
H	 -0.808983	 1.371713	 1.130371
O	 1.392611	 -0.295398	 0.366430
H	 0.750534	 0.687200	 -1.313918
H	 1.185043	 1.714359	 0.050526
C	 2.706965	 -0.449871	 -0.062409
H	 2.756559	 -0.644779	 -1.131878
H	 3.305899	 0.433456	 0.155466
H	 3.125548	 -1.294566	 0.467107

	symmetry c1
}
set optking {
	frozen_dihedral = ("
		3 6 7 11
	")
}

ee = optimize('scf')
oeprop('DIPOLE', 'QUADRUPOLE', 'MULLIKEN_CHARGES')
f=open( 'psi4out.xyz', 'w' )
f.write( "16  " )
f.write( str(ee) + "\n" )
f.write( MOL.save_string_xyz() )
f.close()
--------------------------------------------------------------------------

    Molecular point group: c1
  Charge       = 0
  Multiplicity = 1
  Basis Set: 6-31G*
  Basis Set:
  @DF-RHF Final Energy:  -306.96882450287649
    Total Energy =                       -306.9688245028768279
    Molecular point group: c1
  Basis Set: 6-31G*
  Basis Set:
  Basis Set: 6-31G*
  Basis Set:
  @DF-RHF Final Energy:  -306.96996654547968
    Total Energy =                       -306.9699665454800197
  Basis Set: 6-31G*
  Basis Set:
  Basis Set: 6-31G*
  Basis Set:
  @DF-RHF Final Energy:  -306.97039480321615
    Total Energy =                       -306.9703948032158678
  Basis Set: 6-31G*
  Basis Set:
  Basis Set: 6-31G*
  Basis Set:
  @DF-RHF Final Energy:  -306.97041194892819
    Total Energy =                       -306.9704119489279606
  Basis Set: 6-31G*
  Basis Set:
  Charge       = 0
  Multiplicity = 1
  Basis Set: 6-31G*
  Basis Set:

    Orbital Energies (a.u.)
    -----------------------

    Doubly Occupied:

       1A    -20.553913     2A    -20.551799     3A    -11.271093
       4A    -11.270474     5A    -11.263539     6A    -11.262577
       7A     -1.390210     8A     -1.369921     9A     -1.027868
      10A     -0.934858    11A     -0.897305    12A     -0.819964
      13A     -0.686138    14A     -0.676307    15A     -0.658713
      16A     -0.642607    17A     -0.622067    18A     -0.593204
      19A     -0.567980    20A     -0.520619    21A     -0.508346
      22A     -0.472423    23A     -0.467004    24A     -0.418192
      25A     -0.405188

  @DF-RHF Final Energy:  -306.97041255729812

   => Energetics <=

    Nuclear Repulsion Energy =            259.7020176611089255
    One-Electron Energy =                -933.6402413967914526
    Two-Electron Energy =                 366.9678111783842951
    DFT Exchange-Correlation Energy =       0.0000000000000000
    Empirical Dispersion Energy =           0.0000000000000000
    PCM Polarization Energy =               0.0000000000000000
    EFP Energy =                            0.0000000000000000
    Total Energy =                       -306.9704125572982321
    Molecular point group: c1
  Basis Set: 6-31G*
  Basis Set:

  -Total Gradient:
     Atom            X                  Y                   Z
    ------   -----------------  -----------------  -----------------
       1        0.000003455014    -0.000000278491     0.000004923905
       2       -0.000014239121     0.000023987573     0.000002078006
       3        0.002427025759     0.000317120702     0.006684465231
       4        0.000023293911    -0.000000695707    -0.000005304190
       5        0.000011013383    -0.000001636152    -0.000006573563
       6       -0.003191743906     0.001861912048    -0.008985899216
       7        0.000641645153    -0.011251019776     0.002708608865
       8       -0.000024044464    -0.000018074185     0.000005371417
       9        0.000022441360     0.000014721425    -0.000015222012
      10        0.000071452094    -0.000048401557     0.000022127379
      11        0.000043619046     0.009098305688    -0.000429115616
      12        0.000010005683     0.000006189013     0.000005329601
      13       -0.000015870279     0.000005801023     0.000006898128
      14       -0.000001119719    -0.000006228133    -0.000008005297
      15       -0.000002493071     0.000003087194     0.000007398489
      16       -0.000004440846    -0.000004790664     0.000002918874

  **** Optimization is complete! (in 5 steps) ****
    Final optimized geometry and variables:
    Molecular point group: c1

    Geometry (in Angstrom), charge = 0, multiplicity = 1:

    H           -2.660934462373     0.007331724975     1.639601931378
    C           -2.577210671950    -0.520835504329     0.691121958866
    O           -1.277768412004    -0.477893376470     0.198081060196
    H           -2.832046645822    -1.560074543701     0.845885400285
    H           -3.287953227720    -0.084401915593    -0.009313779580
    C           -0.806457160330     0.808395079894    -0.031426527870
    C            0.626947073829     0.773617601637    -0.550523494795
    H           -1.430945691473     1.338886279385    -0.750235904783
    H           -0.836495046571     1.371309664399     0.901212452723
    O            1.349894116792    -0.247930453289     0.041109621683
    H            0.640927431782     0.721426020106    -1.639261438065
    H            1.077878724289     1.740433302383    -0.313358295310
    C            2.678636729968    -0.306651726182    -0.366585733852
    H            2.759334941232    -0.470899750674    -1.439568839509
    H            3.214972266966     0.607615801338    -0.116534026198
    H            3.140307584444    -1.136280969750     0.150424790690

  Mulliken Charges: (a.u.)
   Center  Symbol    Alpha    Beta     Spin     Total
       1     H     0.43013  0.43013  0.00000  0.13974
       2     C     3.08009  3.08009  0.00000 -0.16017
       3     O     4.29347  4.29347  0.00000 -0.58694
       4     H     0.41044  0.41044  0.00000  0.17911
       5     H     0.43194  0.43194  0.00000  0.13611
       6     C     2.99268  2.99268  0.00000  0.01464
       7     C     2.99482  2.99482  0.00000  0.01037
       8     H     0.43137  0.43137  0.00000  0.13726
       9     H     0.42926  0.42926  0.00000  0.14149
      10     O     4.29152  4.29152  0.00000 -0.58303
      11     H     0.42905  0.42905  0.00000  0.14191
      12     H     0.43390  0.43390  0.00000  0.13219
      13     C     3.08048  3.08048  0.00000 -0.16095
      14     H     0.42923  0.42923  0.00000  0.14154
      15     H     0.43148  0.43148  0.00000  0.13704
      16     H     0.41015  0.41015  0.00000  0.17971

   Total alpha = 25.00000, Total beta = 25.00000, Total charge =  0.00000
