  ==> Input File <==

--------------------------------------------------------------------------
set {
	reference rhf
	basis 6-31G*
}

set_num_threads( 4 )
memory 2 gb

molecule MOL {
0 1

H	 -3.269016	 -0.876744	 0.468090
C	 -2.809304	 0.000122	 0.025886
N	 -1.391456	 0.000019	 0.300661
H	 -3.037557	 -0.000063	 -1.044252
H	 -3.269223	 0.876956	 0.468000
C	 -1.015198	 1.027646	 1.251555
C	 -0.596663	 0.101594	 -0.907559
H	 -1.231023	 2.029319	 0.867397
H	 -1.593655	 0.891596	 2.159542
C	 0.466338	 0.930360	 1.580428
H	 -0.869907	 -0.709838	 -1.574247
H	 -0.784781	 1.041966	 -1.434645
C	 0.884873	 0.004307	 -0.578686
H	 0.739582	 1.741791	 2.247116
H	 0.654456	 -0.010012	 2.107513
N	 1.261131	 1.031935	 0.372208
H	 1.463330	 0.140358	 -1.486674
H	 1.100698	 -0.997365	 -0.194528
C	 2.678979	 1.031833	 0.646982
H	 2.924202	 1.852819	 1.311527
H	 3.231995	 1.172204	 -0.275133
H	 3.024386	 0.103656	 1.112253

	symmetry c1
}
set optking {
	frozen_dihedral = ("
		6 3 2 4
	")
}

ee = optimize('scf')
oeprop('DIPOLE', 'QUADRUPOLE', 'MULLIKEN_CHARGES')
f=open( 'psi4out.xyz', 'w' )
f.write( "22  " )
f.write( str(ee) + "\n" )
f.write( MOL.save_string_xyz() )
f.close()
--------------------------------------------------------------------------

    Molecular point group: c1
  Charge       = 0
  Multiplicity = 1
  Basis Set: 6-31G*
  Basis Set:
  @DF-RHF Final Energy:  -344.22362058075112
    Total Energy =                       -344.2236205807512306
    Molecular point group: c1
  Basis Set: 6-31G*
  Basis Set:
  Basis Set: 6-31G*
  Basis Set:
  @DF-RHF Final Energy:  -344.22426216524445
    Total Energy =                       -344.2242621652442267
  Basis Set: 6-31G*
  Basis Set:
  Basis Set: 6-31G*
  Basis Set:
  @DF-RHF Final Energy:  -344.22439317373050
    Total Energy =                       -344.2243931737305047
  Basis Set: 6-31G*
  Basis Set:
  Charge       = 0
  Multiplicity = 1
  Basis Set: 6-31G*
  Basis Set:

    Orbital Energies (a.u.)
    -----------------------

    Doubly Occupied:

       1A    -15.541170     2A    -15.538687     3A    -11.238355
       4A    -11.238262     5A    -11.237349     6A    -11.237320
       7A    -11.235670     8A    -11.235385     9A     -1.252594
      10A     -1.200695    11A     -1.023898    12A     -0.990410
      13A     -0.911816    14A     -0.865917    15A     -0.835581
      16A     -0.754217    17A     -0.664259    18A     -0.634067
      19A     -0.629256    20A     -0.623474    21A     -0.618859
      22A     -0.579151    23A     -0.551007    24A     -0.549488
      25A     -0.541644    26A     -0.519843    27A     -0.497444
      28A     -0.486793    29A     -0.463753    30A     -0.454649
      31A     -0.348281    32A     -0.340228

  @DF-RHF Final Energy:  -344.22439507733577

   => Energetics <=

    Nuclear Repulsion Energy =            420.8279338831308678
    One-Electron Energy =               -1300.4256183998049892
    Two-Electron Energy =                 535.3732894393381230
    DFT Exchange-Correlation Energy =       0.0000000000000000
    Empirical Dispersion Energy =           0.0000000000000000
    PCM Polarization Energy =               0.0000000000000000
    EFP Energy =                            0.0000000000000000
    Total Energy =                       -344.2243950773359984
    Molecular point group: c1
  Basis Set: 6-31G*
  Basis Set:

  -Total Gradient:
     Atom            X                  Y                   Z
    ------   -----------------  -----------------  -----------------
       1        0.000017621147     0.000002501473     0.000014107254
       2        0.000031788133    -0.001802889839    -0.000436972525
       3       -0.000350056391    -0.000793227295     0.001406908873
       4       -0.000086049919     0.001692342344     0.000054104512
       5       -0.000011371817     0.000011492859     0.000000243873
       6        0.000189858671     0.000945212684    -0.000970653804
       7        0.000139533530     0.000010379669    -0.000000335588
       8       -0.000022433708    -0.000030110044    -0.000014645571
       9       -0.000000852456    -0.000028461854    -0.000037405379
      10        0.000030236672    -0.000066585272    -0.000003788048
      11        0.000002057612     0.000011239287     0.000042213967
      12        0.000010151997    -0.000031537983     0.000025194520
      13        0.000038890302     0.000037362011    -0.000074393002
      14        0.000023017905     0.000010858022     0.000002608602
      15        0.000010470676     0.000002222483     0.000005199082
      16       -0.000023047837     0.000008474650    -0.000009173183
      17        0.000086587161     0.000009017685    -0.000005493964
      18       -0.000031671828     0.000031151163    -0.000007123564
      19       -0.000021141465    -0.000022890414     0.000010307762
      20       -0.000013633985     0.000002668367     0.000002175833
      21       -0.000018837465    -0.000000698643    -0.000003113486
      22       -0.000001116933     0.000001478646     0.000000033836

  **** Optimization is complete! (in 4 steps) ****
    Final optimized geometry and variables:
    Molecular point group: c1

    Geometry (in Angstrom), charge = 0, multiplicity = 1:

    H           -3.206865030239    -1.433297530483     0.135450420561
    C           -2.762116962005    -0.541170196317    -0.294786519355
    N           -1.328527667474    -0.496199570407    -0.044748357746
    H           -2.975337969889    -0.533894264209    -1.358517318253
    H           -3.269837189096     0.322217026169     0.128572516612
    C           -0.945649423862     0.524634898112     0.910745771350
    C           -0.528523483618    -0.402725494746    -1.251087152118
    H           -1.154495032214     1.529890603206     0.532580111132
    H           -1.523630539495     0.387847781671     1.818817516965
    C            0.534083326827     0.415342345066     1.242556539466
    H           -0.800717749493    -1.216204412865    -1.914935762730
    H           -0.705106278549     0.536021629176    -1.784803093045
    C            0.950714280026    -0.511076046079    -0.915926214800
    H            0.812211178472     1.223485781405     1.911468203915
    H            0.713716792896    -0.527570545684     1.768122672322
    N            1.332402926915     0.513144873357     0.036433625191
    H            1.534324204355    -0.380183374352    -1.821593399845
    H            1.156133013761    -1.514442458271    -0.530437363802
    C            2.749319541056     0.501697806230     0.314854923541
    H            2.999385798739     1.319755219379     0.981274892724
    H            3.305725912443     0.639101332740    -0.605678785351
    H            3.086518899850    -0.429849379579     0.779511340801

  Mulliken Charges: (a.u.)
   Center  Symbol    Alpha    Beta     Spin     Total
       1     H     0.41590  0.41590  0.00000  0.16820
       2     C     3.13969  3.13969  0.00000 -0.27937
       3     N     3.79140  3.79140  0.00000 -0.58280
       4     H     0.42145  0.42145  0.00000  0.15710
       5     H     0.42424  0.42424  0.00000  0.15152
       6     C     3.05683  3.05683  0.00000 -0.11365
       7     C     3.05653  3.05653  0.00000 -0.11307
       8     H     0.42873  0.42873  0.00000  0.14253
       9     H     0.41744  0.41744  0.00000  0.16513
      10     C     3.05623  3.05623  0.00000 -0.11247
      11     H     0.41751  0.41751  0.00000  0.16498
      12     H     0.42900  0.42900  0.00000  0.14200
      13     C     3.05638  3.05638  0.00000 -0.11277
      14     H     0.41835  0.41835  0.00000  0.16330
      15     H     0.42871  0.42871  0.00000  0.14259
      16     N     3.78704  3.78704  0.00000 -0.57409
      17     H     0.41835  0.41835  0.00000  0.16330
      18     H     0.42872  0.42872  0.00000  0.14255
      19     C     3.14016  3.14016  0.00000 -0.28031
      20     H     0.41690  0.41690  0.00000  0.16620
      21     H     0.41691  0.41691  0.00000  0.16619
      22     H     0.43353  0.43353  0.00000  0.13294

   Total alpha = 32.00000, Total beta = 32.00000, Total charge = -0.00000
