                              Psi4 1.0.54 Driver

  ==> Input File <==

--------------------------------------------------------------------------
set {
	reference rhf
	basis cc-pvtz
}

set_num_threads( 4 )
memory 2 gb

molecule MOL {
0 1

H	 2.475671	 -0.215425	 -0.755082
O	 1.675515	 -0.612943	 -0.465627
C	 1.135873	 0.113391	 0.608264
C	 0.027642	 1.012027	 0.090274
H	 1.902972	 0.727968	 1.072615
H	 0.756163	 -0.561896	 1.370018
C	 -1.138737	 0.285728	 -0.581921
H	 0.464661	 1.708096	 -0.618252
H	 -0.340737	 1.603071	 0.925246
C	 -1.933983	 -0.631436	 0.343653
H	 -0.763151	 -0.285569	 -1.422081
H	 -1.808359	 1.035291	 -0.992333
H	 -2.789188	 -1.049673	 -0.174718
H	 -1.335629	 -1.461368	 0.700418
H	 -2.305435	 -0.092167	 1.209725

	symmetry c1
}
set optking {
	frozen_dihedral = ("
		1 2 3 4
	")
}

ee,wfn = optimize('scf', return_wfn=True)
oeprop( wfn, 'DIPOLE', 'QUADRUPOLE', 'MULLIKEN_CHARGES')
f=open( 'psi4out.xyz', 'w' )
f.write( "15  " )
f.write( str(ee) + "\n" )
f.write( MOL.save_string_xyz() )
f.close()
--------------------------------------------------------------------------

    Molecular point group: c1
  Charge       = 0
  Multiplicity = 1
  Basis Set: CC-PVTZ
  Basis Set:
  @DF-RHF Final Energy:  -232.23524243284902
    Total Energy =                       -232.2352424328489633
    Molecular point group: c1
  Basis Set: CC-PVTZ
  Basis Set:
  Basis Set: CC-PVTZ
  Basis Set:
  @DF-RHF Final Energy:  -232.06892738594610
    Total Energy =                       -232.0689273859459263
  Basis Set: CC-PVTZ
  Basis Set:
  Basis Set: CC-PVTZ
  Basis Set:
  @DF-RHF Final Energy:  -232.17638431372191
    Total Energy =                       -232.1763843137218828
  Basis Set: CC-PVTZ
  Basis Set:
  Basis Set: CC-PVTZ
  Basis Set:
  @DF-RHF Final Energy:  -232.23209551131103
    Total Energy =                       -232.2320955113110585
  Basis Set: CC-PVTZ
  Basis Set:
  @DF-RHF Final Energy:  -232.23502761964906
    Total Energy =                       -232.2350276196491450
  @DF-RHF Final Energy:  -232.23610165090258
    Total Energy =                       -232.2361016509026399
  @DF-RHF Final Energy:  -232.23621994988133
    Total Energy =                       -232.2362199498813311
  Basis Set: CC-PVTZ
  Basis Set:
  @DF-RHF Final Energy:  -232.23622295341013
    Total Energy =                       -232.2362229534099924
  Basis Set: CC-PVTZ
  Basis Set:
  Basis Set: CC-PVTZ
  Basis Set:
  @DF-RHF Final Energy:  -232.23622529758313
    Total Energy =                       -232.2362252975831325
  Basis Set: CC-PVTZ
  Basis Set:
  Basis Set: CC-PVTZ
  Basis Set:
  @DF-RHF Final Energy:  -232.23622649654968
    Total Energy =                       -232.2362264965496479
  Basis Set: CC-PVTZ
  Basis Set:
  Charge       = 0
  Multiplicity = 1
  Basis Set: CC-PVTZ
  Basis Set:

    Orbital Energies (a.u.)
    -----------------------

    Doubly Occupied:

       1A    -20.545758     2A    -11.265680     3A    -11.211771
       4A    -11.208356     5A    -11.202701     6A     -1.363201
       7A     -1.065583     8A     -0.970799     9A     -0.872736
      10A     -0.783001    11A     -0.695871    12A     -0.642067
      13A     -0.621586    14A     -0.577175    15A     -0.562785
      16A     -0.535026    17A     -0.507758    18A     -0.486177
      19A     -0.468595    20A     -0.453442    21A     -0.427940

  @DF-RHF Final Energy:  -232.23622651703715

   => Energetics <=

    Nuclear Repulsion Energy =            191.5100393297095707
    One-Electron Energy =                -694.5565186993912903
    Two-Electron Energy =                 270.8102528526445667
    DFT Exchange-Correlation Energy =       0.0000000000000000
    Empirical Dispersion Energy =           0.0000000000000000
    PCM Polarization Energy =               0.0000000000000000
    EFP Energy =                            0.0000000000000000
    Total Energy =                       -232.2362265170371529
    Molecular point group: c1
  Basis Set: CC-PVTZ
  Basis Set:

  -Total Gradient:
     Atom            X                  Y                   Z
    ------   -----------------  -----------------  -----------------
       1        0.000349631285    -0.000183660588     0.001274096913
       2       -0.000672314901     0.000015414473    -0.001471277283
       3        0.000923315101     0.000691977827    -0.000040651142
       4       -0.000609089188    -0.000517234550     0.000243573577
       5        0.000001392121    -0.000004952443    -0.000002067857
       6        0.000001909003     0.000002715400    -0.000002375696
       7        0.000004631838    -0.000005142780    -0.000004002752
       8       -0.000001832226    -0.000002939027     0.000003894870
       9        0.000002735944     0.000002421985    -0.000001209027
      10        0.000000132113     0.000003483871     0.000000937287
      11       -0.000002188673     0.000000380989    -0.000002977460
      12        0.000000560624    -0.000003296348     0.000004542721
      13        0.000002522560     0.000002092669     0.000001023565
      14       -0.000002345009     0.000001099489    -0.000003104706
      15        0.000000939406    -0.000002360967    -0.000000403010

  **** Optimization is complete! (in 11 steps) ****
    Final optimized geometry and variables:
    Molecular point group: c1

    Geometry (in Angstrom), charge = 0, multiplicity = 1:

    H            2.583935664183    -0.343880338274     0.209852549035
    O            1.712284101972    -0.628860658730     0.406954519384
    C            0.911693486893     0.465215260579     0.782729166096
    C            0.031443586476     0.953007795554    -0.358846609763
    H            1.528344481135     1.283830615082     1.140943658455
    H            0.304080488234     0.141304513129     1.617986549394
    C           -0.908088947092    -0.102532675454    -0.943750088952
    H            0.673206186673     1.329496482186    -1.150974253434
    H           -0.547691551097     1.801265294846     0.000254605166
    C           -1.984476568050    -0.596232720852     0.019723044122
    H           -0.320674692489    -0.944007967547    -1.291369235827
    H           -1.389564781943     0.321588460333    -1.819470995928
    H           -2.656880957473    -1.284677217143    -0.479057801453
    H           -1.558428646066    -1.118692205402     0.867710983520
    H           -2.580006976106     0.227788269030     0.400595140459

  Mulliken Charges: (a.u.)
   Center  Symbol    Alpha    Beta     Spin     Total
       1     H     0.39346  0.39346  0.00000  0.21308
       2     O     4.20486  4.20486  0.00000 -0.40972
       3     C     2.98263  2.98263  0.00000  0.03473
       4     C     3.09198  3.09198  0.00000 -0.18396
       5     H     0.45976  0.45976  0.00000  0.08048
       6     H     0.46024  0.46024  0.00000  0.07952
       7     C     3.08575  3.08575  0.00000 -0.17151
       8     H     0.45498  0.45498  0.00000  0.09004
       9     H     0.45714  0.45714  0.00000  0.08572
      10     C     3.15442  3.15442  0.00000 -0.30885
      11     H     0.44828  0.44828  0.00000  0.10345
      12     H     0.45084  0.45084  0.00000  0.09832
      13     H     0.44698  0.44698  0.00000  0.10603
      14     H     0.45151  0.45151  0.00000  0.09698
      15     H     0.45717  0.45717  0.00000  0.08566

   Total alpha = 21.00000, Total beta = 21.00000, Total charge = -0.00000

*** Psi4 exiting successfully. Buy a developer a beer!
