  ==> Input File <==

--------------------------------------------------------------------------
set {
	reference rhf
	basis cc-pvtz
}

set_num_threads( 4 )
memory 2 gb

molecule MOL {
0 1

H	 -2.698799	 -0.000846	 0.036018
C	 -1.694291	 -0.000483	 0.434279
O	 -0.828718	 -0.000608	 -0.655022
H	 -1.576855	 0.881100	 1.056504
H	 -1.576401	 -0.881658	 1.057001
C	 0.557892	 0.000078	 -0.420099
C	 1.369866	 -0.100939	 -1.706476
C	 1.002987	 1.166139	 0.455367
H	 0.714195	 -0.912590	 0.141349
H	 1.003381	 -0.914261	 -2.320688
H	 2.409785	 -0.294726	 -1.470339
H	 1.332160	 0.812924	 -2.287867
H	 0.382136	 1.231490	 1.340419
H	 2.029617	 1.018488	 0.770017
H	 0.955440	 2.113616	 -0.068625

	symmetry c1
}
set optking {
	frozen_dihedral = ("
		9 6 3 2
	")
}

ee = optimize('scf')
oeprop('DIPOLE', 'QUADRUPOLE', 'MULLIKEN_CHARGES')
f=open( 'psi4out.xyz', 'w' )
f.write( "15  " )
f.write( str(ee) + "\n" )
f.write( MOL.save_string_xyz() )
f.close()
--------------------------------------------------------------------------

    Molecular point group: c1
  Charge       = 0
  Multiplicity = 1
  Basis Set: CC-PVTZ
  Basis Set:
  @DF-RHF Final Energy:  -232.22430572552281
    Total Energy =                       -232.2243057255226972
    Molecular point group: c1
  Basis Set: CC-PVTZ
  Basis Set:
  Basis Set: CC-PVTZ
  Basis Set:
  @DF-RHF Final Energy:  -232.22840092031905
    Total Energy =                       -232.2284009203189044
  Basis Set: CC-PVTZ
  Basis Set:
  Basis Set: CC-PVTZ
  Basis Set:
  @DF-RHF Final Energy:  -232.22949286352664
    Total Energy =                       -232.2294928635267297
  Basis Set: CC-PVTZ
  Basis Set:
  Basis Set: CC-PVTZ
  Basis Set:
  @DF-RHF Final Energy:  -232.22952810681551
    Total Energy =                       -232.2295281068155646
  Basis Set: CC-PVTZ
  Basis Set:
  Basis Set: CC-PVTZ
  Basis Set:
  @DF-RHF Final Energy:  -232.22953288679565
    Total Energy =                       -232.2295328867957096
  Basis Set: CC-PVTZ
  Basis Set:
  Charge       = 0
  Multiplicity = 1
  Basis Set: CC-PVTZ
  Basis Set:

    Orbital Energies (a.u.)
    -----------------------

    Doubly Occupied:

       1A    -20.544245     2A    -11.272982     3A    -11.260246
       4A    -11.209073     5A    -11.204140     6A     -1.378023
       7A     -1.053800     8A     -0.945577     9A     -0.914510
      10A     -0.791514    11A     -0.676360    12A     -0.640503
      13A     -0.636737    14A     -0.592316    15A     -0.550598
      16A     -0.543028    17A     -0.527406    18A     -0.498199
      19A     -0.494046    20A     -0.453602    21A     -0.411876

  @DF-RHF Final Energy:  -232.22953370602650

   => Energetics <=

    Nuclear Repulsion Energy =            197.9784363262991462
    One-Electron Energy =                -707.2183771402699222
    Two-Electron Energy =                 277.0104071079444452
    DFT Exchange-Correlation Energy =       0.0000000000000000
    Empirical Dispersion Energy =           0.0000000000000000
    PCM Polarization Energy =               0.0000000000000000
    EFP Energy =                            0.0000000000000000
    Total Energy =                       -232.2295337060263023
    Molecular point group: c1
  Basis Set: CC-PVTZ
  Basis Set:

  -Total Gradient:
     Atom            X                  Y                   Z
    ------   -----------------  -----------------  -----------------
       1       -0.000014040504    -0.000002549727     0.000019832911
       2       -0.000002505825     0.001615252638     0.000062741772
       3       -0.000097809832    -0.002572060052    -0.000452198323
       4       -0.000001389179    -0.000005558785    -0.000010716185
       5       -0.000000984753     0.000004267312    -0.000004050555
       6       -0.000434496348     0.001880321025     0.001987478829
       7        0.000122558200    -0.000025681776     0.000025312343
       8        0.000085003356    -0.000016871157     0.000044659332
       9        0.000377498622    -0.000901634681    -0.001671138715
      10       -0.000004882658    -0.000008524632     0.000012754091
      11       -0.000018386892     0.000014546522    -0.000014904332
      12       -0.000005908169     0.000005778634     0.000001967144
      13        0.000005030501    -0.000004373708     0.000004236181
      14       -0.000008671986     0.000025961777     0.000003717584
      15       -0.000001014532    -0.000008873389    -0.000009692077

  **** Optimization is complete! (in 6 steps) ****
    Final optimized geometry and variables:
    Molecular point group: c1

    Geometry (in Angstrom), charge = 0, multiplicity = 1:

    H           -2.753185352876    -0.322107354749     0.297785121565
    C           -1.769820674404    -0.179103415994     0.722724872229
    O           -0.859969429076    -0.172226553816    -0.327497380533
    H           -1.769013078009     0.754346281886     1.276057551094
    H           -1.572877624733    -0.993118958986     1.417944862377
    C            0.500333370881    -0.252465559745     0.005276889327
    C            1.256947728963    -0.325641699174    -1.309316024793
    C            0.973488657584     0.915077263375     0.862632277507
    H            0.669383278342    -1.184099880942     0.546620580098
    H            0.895838718942    -1.155435770841    -1.902846778268
    H            2.317848316371    -0.460835870099    -1.134335712647
    H            1.114270194820     0.585777390423    -1.878159345725
    H            0.498700576895     0.927381418574     1.835307876943
    H            2.042947650605     0.845531297302     1.022789219072
    H            0.762570118195     1.856231414528     0.366852312005

  Mulliken Charges: (a.u.)
   Center  Symbol    Alpha    Beta     Spin     Total
       1     H     0.44368  0.44368  0.00000  0.11264
       2     C     3.04023  3.04023  0.00000 -0.08046
       3     O     4.18100  4.18100  0.00000 -0.36200
       4     H     0.46793  0.46793  0.00000  0.06413
       5     H     0.47170  0.47170  0.00000  0.05660
       6     C     2.92285  2.92285  0.00000  0.15430
       7     C     3.14100  3.14100  0.00000 -0.28201
       8     C     3.15807  3.15807  0.00000 -0.31613
       9     H     0.46525  0.46525  0.00000  0.06949
      10     H     0.44667  0.44667  0.00000  0.10667
      11     H     0.45886  0.45886  0.00000  0.08228
      12     H     0.45353  0.45353  0.00000  0.09293
      13     H     0.45025  0.45025  0.00000  0.09949
      14     H     0.44891  0.44891  0.00000  0.10218
      15     H     0.45007  0.45007  0.00000  0.09986

   Total alpha = 21.00000, Total beta = 21.00000, Total charge = -0.00000
