  ==> Input File <==

--------------------------------------------------------------------------
set {
	reference rhf
	basis 6-31G*
}

set_num_threads( 4 )
memory 2 gb

molecule MOL {
0 1

O	 -2.042549	 -1.228399	 -0.269030
C	 -1.653912	 -0.146171	 0.050137
C	 -0.332303	 0.024011	 0.778412
C	 -2.438579	 1.106236	 -0.272369
C	 0.845713	 -0.001731	 -0.208243
H	 -0.323783	 0.953829	 1.340327
H	 -0.235459	 -0.796807	 1.480410
C	 2.200309	 0.136118	 0.488247
H	 0.733710	 0.800019	 -0.936072
H	 0.811185	 -0.933796	 -0.764304
C	 3.256492	 -0.810590	 -0.080460
H	 2.549329	 1.162705	 0.400329
H	 2.077008	 -0.055888	 1.551496
H	 3.426998	 -0.620151	 -1.136260
H	 2.949567	 -1.847187	 0.023022
H	 4.204958	 -0.693113	 0.433969
H	 -3.277823	 0.863061	 -0.908988
H	 -1.806773	 1.843019	 -0.759671
H	 -2.802853	 1.554979	 0.648059

	symmetry c1
}
set optking {
	frozen_dihedral = ("
		11 8 5 9
	")
}

ee = optimize('scf')
oeprop('DIPOLE', 'QUADRUPOLE', 'MULLIKEN_CHARGES')
f=open( 'psi4out.xyz', 'w' )
f.write( "19  " )
f.write( str(ee) + "\n" )
f.write( MOL.save_string_xyz() )
f.close()
--------------------------------------------------------------------------

    Molecular point group: c1
  Charge       = 0
  Multiplicity = 1
  Basis Set: 6-31G*
  Basis Set:
  @DF-RHF Final Energy:  -309.06044743646385
    Total Energy =                       -309.0604474364638463
    Molecular point group: c1
  Basis Set: 6-31G*
  Basis Set:
  Basis Set: 6-31G*
  Basis Set:
  @DF-RHF Final Energy:  -309.06061583568396
    Total Energy =                       -309.0606158356839614
  Basis Set: 6-31G*
  Basis Set:
  Basis Set: 6-31G*
  Basis Set:
  @DF-RHF Final Energy:  -309.06054434226871
    Total Energy =                       -309.0605443422682015
  Basis Set: 6-31G*
  Basis Set:
  Basis Set: 6-31G*
  Basis Set:
  @DF-RHF Final Energy:  -309.06059489367709
    Total Energy =                       -309.0605948936774894
  Basis Set: 6-31G*
  Basis Set:
  @DF-RHF Final Energy:  -309.06056919096494
    Total Energy =                       -309.0605691909651114
  Basis Set: 6-31G*
  Basis Set:
  @DF-RHF Final Energy:  -309.06076484665471
    Total Energy =                       -309.0607648466548198
  Basis Set: 6-31G*
  Basis Set:
  Basis Set: 6-31G*
  Basis Set:
  @DF-RHF Final Energy:  -309.06075487796210
    Total Energy =                       -309.0607548779622107
  Basis Set: 6-31G*
  Basis Set:
  Basis Set: 6-31G*
  Basis Set:
  @DF-RHF Final Energy:  -309.06077626297503
    Total Energy =                       -309.0607762629748549
  Basis Set: 6-31G*
  Basis Set:
  Charge       = 0
  Multiplicity = 1
  Basis Set: 6-31G*
  Basis Set:

    Orbital Energies (a.u.)
    -----------------------

    Doubly Occupied:

       1A    -20.547550     2A    -11.324346     3A    -11.230418
       4A    -11.229440     5A    -11.228304     6A    -11.224583
       7A    -11.214249     8A     -1.393185     9A     -1.089255
      10A     -1.028451    11A     -0.983526    12A     -0.889372
      13A     -0.806719    14A     -0.734113    15A     -0.658233
      16A     -0.648979    17A     -0.617396    18A     -0.613512
      19A     -0.585298    20A     -0.577823    21A     -0.546319
      22A     -0.533835    23A     -0.521754    24A     -0.495602
      25A     -0.480859    26A     -0.474077    27A     -0.465058
      28A     -0.396477

  @DF-RHF Final Energy:  -309.06077623761610

   => Energetics <=

    Nuclear Repulsion Energy =            301.3272403235135926
    One-Electron Energy =               -1015.6985683487688448
    Two-Electron Energy =                 405.3105517876392128
    DFT Exchange-Correlation Energy =       0.0000000000000000
    Empirical Dispersion Energy =           0.0000000000000000
    PCM Polarization Energy =               0.0000000000000000
    EFP Energy =                            0.0000000000000000
    Total Energy =                       -309.0607762376160395
    Molecular point group: c1
  Basis Set: 6-31G*
  Basis Set:

  -Total Gradient:
     Atom            X                  Y                   Z
    ------   -----------------  -----------------  -----------------
       1       -0.000002568675     0.000002340591    -0.000003077448
       2       -0.000002165394    -0.000016956076     0.000027739513
       3       -0.000008606720    -0.000003532312    -0.000001091984
       4        0.000015911290     0.000009679094    -0.000010547019
       5        0.001714008450    -0.003452706355    -0.002599867073
       6       -0.000002586944     0.000004454253     0.000000987554
       7       -0.000007485955    -0.000000002612    -0.000001443384
       8        0.000638292983     0.003262059466    -0.001941086515
       9       -0.001622744016     0.002169768307     0.002659985969
      10       -0.000002891308    -0.000003279184     0.000010207976
      11       -0.000704356795    -0.001962559010     0.001855975364
      12       -0.000018518829    -0.000001577628     0.000009685164
      13        0.000011468709    -0.000004182291    -0.000003490742
      14        0.000007487932     0.000008542064     0.000003220397
      15       -0.000007074644    -0.000003949251    -0.000015812772
      16       -0.000003607034    -0.000006624826     0.000006760756
      17        0.000002080806    -0.000001922347     0.000000408007
      18       -0.000005169849     0.000003572780     0.000000785134
      19       -0.000001474005    -0.000003124661     0.000000661103

  **** Optimization is complete! (in 9 steps) ****
    Final optimized geometry and variables:
    Molecular point group: c1

    Geometry (in Angstrom), charge = 0, multiplicity = 1:

    O           -2.046154031290    -1.078716764641    -0.336729526537
    C           -1.644351622005    -0.002723837968    -0.012354648635
    C           -0.320083168783     0.146882630861     0.715075687260
    C           -2.414419603734     1.260491987949    -0.327874702460
    C            0.858479653714     0.099004100236    -0.273234367391
    H           -0.294377031825     1.078011121588     1.274723544923
    H           -0.235460058496    -0.673506621264     1.419115037920
    C            2.222745826050     0.267646429763     0.424836812676
    H            0.724034080613     0.892250369665    -1.004749830464
    H            0.816097256493    -0.843356264819    -0.808291842454
    C            3.302660657276    -0.657447554919    -0.136545721428
    H            2.547423524770     1.301825949493     0.356043538892
    H            2.113570950024     0.057959477743     1.486023473244
    H            3.459230537806    -0.485643295548    -1.197908352973
    H            3.022266885643    -1.698564371760    -0.008807355995
    H            4.251904331231    -0.503086586069     0.366968771349
    H           -3.255861133945     1.030857347971    -0.966629800519
    H           -1.774058161179     1.993328027199    -0.809974182801
    H           -2.774391310697     1.707476855675     0.595120004693

  Mulliken Charges: (a.u.)
   Center  Symbol    Alpha    Beta     Spin     Total
       1     O     4.26229  4.26229  0.00000 -0.52457
       2     C     2.73740  2.73740  0.00000  0.52520
       3     C     3.20216  3.20216  0.00000 -0.40433
       4     C     3.28952  3.28952  0.00000 -0.57905
       5     C     3.16359  3.16359  0.00000 -0.32718
       6     H     0.41656  0.41656  0.00000  0.16688
       7     H     0.40109  0.40109  0.00000  0.19782
       8     C     3.15430  3.15430  0.00000 -0.30860
       9     H     0.41895  0.41895  0.00000  0.16210
      10     H     0.40399  0.40399  0.00000  0.19201
      11     C     3.24070  3.24070  0.00000 -0.48140
      12     H     0.41901  0.41901  0.00000  0.16197
      13     H     0.41935  0.41935  0.00000  0.16129
      14     H     0.42020  0.42020  0.00000  0.15960
      15     H     0.41830  0.41830  0.00000  0.16340
      16     H     0.41882  0.41882  0.00000  0.16236
      17     H     0.39702  0.39702  0.00000  0.20596
      18     H     0.41004  0.41004  0.00000  0.17993
      19     H     0.40670  0.40670  0.00000  0.18661

   Total alpha = 28.00000, Total beta = 28.00000, Total charge =  0.00000
