  ==> Input File <==

--------------------------------------------------------------------------
set {
	reference rhf
	basis 6-31G*
}

set_num_threads( 1 )
memory 2 gb

molecule MOL {
0 1

H	 -2.130425	 -1.153358	 0.404236
O	 -2.347518	 -0.290803	 0.079804
C	 -1.184022	 0.487508	 -0.006784
C	 0.062599	 -0.378592	 0.031606
H	 -1.176523	 1.099369	 -0.904519
H	 -1.187323	 1.153111	 0.844927
O	 1.171513	 0.459272	 -0.058250
H	 0.050699	 -1.089204	 -0.797170
H	 0.078739	 -0.954914	 0.954740
C	 2.397842	 -0.198080	 -0.002151
H	 2.508049	 -0.905315	 -0.822092
H	 3.173794	 0.550865	 -0.078850
H	 2.517602	 -0.735921	 0.936026

	symmetry c1
}
set optking {
	frozen_dihedral = ("
		8 4 3 5,
		10 7 4 8,
		4 7 10 13
	")
}

ee = energy('scf')
oeprop('DIPOLE', 'QUADRUPOLE', 'MULLIKEN_CHARGES')
f=open( 'psi4out.xyz', 'w' )
f.write( "13  " )
f.write( str(ee) + "\n" )
f.write( MOL.save_string_xyz() )
f.close()
--------------------------------------------------------------------------

    Molecular point group: c1

    Geometry (in Angstrom), charge = 0, multiplicity = 1:

       Center              X                  Y                   Z               Mass
    ------------   -----------------  -----------------  -----------------  -----------------
           H         -2.135310398102    -1.147748520542     0.389005602083     1.007825032070
           O         -2.352403398102    -0.285193520542     0.064573602083    15.994914619560
           C         -1.188907398102     0.493117479458    -0.022014397917    12.000000000000
           C          0.057713601898    -0.372982520542     0.016375602083    12.000000000000
           H         -1.181408398102     1.104978479458    -0.919749397917     1.007825032070
           H         -1.192208398102     1.158720479458     0.829696602083     1.007825032070
           O          1.166627601898     0.464881479458    -0.073480397917    15.994914619560
           H          0.045813601898    -1.083594520542    -0.812400397917     1.007825032070
           H          0.073853601898    -0.949304520542     0.939509602083     1.007825032070
           C          2.392956601898    -0.192470520542    -0.017381397917    12.000000000000
           H          2.503163601898    -0.899705520542    -0.837322397917     1.007825032070
           H          3.168908601898     0.556474479458    -0.094080397917     1.007825032070
           H          2.512716601898    -0.730311520542     0.920795602083     1.007825032070

  Charge       = 0
  Multiplicity = 1
  Basis Set: 6-31G*
  Basis Set:

    Orbital Energies (a.u.)
    -----------------------

    Doubly Occupied:

       1A    -20.568545     2A    -20.557192     3A    -11.280808
       4A    -11.274471     5A    -11.268396     6A     -1.394534
       7A     -1.364621     8A     -1.022148     9A     -0.915739
      10A     -0.852802    11A     -0.695550    12A     -0.685607
      13A     -0.671267    14A     -0.627276    15A     -0.607888
      16A     -0.579723    17A     -0.547563    18A     -0.497677
      19A     -0.473353    20A     -0.438606    21A     -0.428053

  @DF-RHF Final Energy:  -267.94578554740366

   => Energetics <=

    Nuclear Repulsion Energy =            190.5922842414014440
    One-Electron Energy =                -743.5723635163257086
    Two-Electron Energy =                 285.0342937275208328
    DFT Exchange-Correlation Energy =       0.0000000000000000
    Empirical Dispersion Energy =           0.0000000000000000
    PCM Polarization Energy =               0.0000000000000000
    EFP Energy =                            0.0000000000000000
    Total Energy =                       -267.9457855474034318

  Mulliken Charges: (a.u.)
   Center  Symbol    Alpha    Beta     Spin     Total
       1     H     0.28028  0.28028  0.00000  0.43943
       2     O     4.37664  4.37664  0.00000 -0.75328
       3     C     2.98386  2.98386  0.00000  0.03228
       4     C     3.01512  3.01512  0.00000 -0.03025
       5     H     0.41260  0.41260  0.00000  0.17479
       6     H     0.41966  0.41966  0.00000  0.16068
       7     O     4.30528  4.30528  0.00000 -0.61057
       8     H     0.42646  0.42646  0.00000  0.14708
       9     H     0.43350  0.43350  0.00000  0.13300
      10     C     3.08158  3.08158  0.00000 -0.16316
      11     H     0.42779  0.42779  0.00000  0.14442
      12     H     0.40904  0.40904  0.00000  0.18193
      13     H     0.42818  0.42818  0.00000  0.14364

   Total alpha = 21.00000, Total beta = 21.00000, Total charge =  0.00000
