  ==> Input File <==

--------------------------------------------------------------------------
set {
	reference rhf
	basis 6-31G*
}

set_num_threads( 1 )
memory 2 gb

molecule MOL {
0 1

O	 2.012540	 -0.015602	 0.775186
C	 1.122059	 0.121804	 -0.000188
C	 -0.170150	 -0.657997	 -0.000612
O	 1.151960	 1.002955	 -0.991981
C	 -1.412532	 0.227344	 -0.000452
H	 -0.153702	 -1.313099	 -0.867402
H	 -0.153924	 -1.313811	 0.865644
C	 -2.706999	 -0.587347	 -0.000541
H	 -1.388000	 0.879466	 -0.868000
H	 -1.387972	 0.879138	 0.867341
C	 -3.956778	 0.291888	 0.000910
H	 -2.726114	 -1.239230	 -0.871609
H	 -2.725217	 -1.240844	 0.869333
H	 -3.985213	 0.933254	 -0.875158
H	 -4.860123	 -0.309979	 0.000519
H	 -3.984618	 0.931166	 0.878514
C	 2.314360	 1.803640	 -1.105429
H	 2.456448	 2.395884	 -0.212935
H	 2.149116	 2.444743	 -1.957269
H	 3.186844	 1.186490	 -1.264814

	symmetry c1
}
set optking {
	frozen_dihedral = ("
		9 5 8 12,
		9 5 3 6,
		1 2 4 17
	")
}

ee = energy('scf')
oeprop('DIPOLE', 'QUADRUPOLE', 'MULLIKEN_CHARGES')
f=open( 'psi4out.xyz', 'w' )
f.write( "20  " )
f.write( str(ee) + "\n" )
f.write( MOL.save_string_xyz() )
f.close()
--------------------------------------------------------------------------

    Molecular point group: c1

    Geometry (in Angstrom), charge = 0, multiplicity = 1:

       Center              X                  Y                   Z               Mass
    ------------   -----------------  -----------------  -----------------  -----------------
           O          2.191576741892    -0.312378419913     0.949250729892    15.994914619560
           C          1.301095741892    -0.174972419913     0.173876729892    12.000000000000
           C          0.008886741892    -0.954773419913     0.173452729892    12.000000000000
           O          1.330996741892     0.706178580087    -0.817916270108    15.994914619560
           C         -1.233495258108    -0.069432419913     0.173612729892    12.000000000000
           H          0.025334741892    -1.609875419913    -0.693337270108     1.007825032070
           H          0.025112741892    -1.610587419913     1.039708729892     1.007825032070
           C         -2.527962258108    -0.884123419913     0.173523729892    12.000000000000
           H         -1.208963258108     0.582689580087    -0.693935270108     1.007825032070
           H         -1.208935258108     0.582361580087     1.041405729892     1.007825032070
           C         -3.777741258108    -0.004888419913     0.174974729892    12.000000000000
           H         -2.547077258108    -1.536006419913    -0.697544270108     1.007825032070
           H         -2.546180258108    -1.537620419913     1.043397729892     1.007825032070
           H         -3.806176258108     0.636477580087    -0.701093270108     1.007825032070
           H         -4.681086258108    -0.606755419913     0.174583729892     1.007825032070
           H         -3.805581258108     0.634389580087     1.052578729892     1.007825032070
           C          2.493396741892     1.506863580087    -0.931364270108    12.000000000000
           H          2.635484741892     2.099107580087    -0.038870270108     1.007825032070
           H          2.328152741892     2.147966580087    -1.783204270108     1.007825032070
           H          3.365880741892     0.889713580087    -1.090749270108     1.007825032070

  Charge       = 0
  Multiplicity = 1
  Basis Set: 6-31G*
  Basis Set:

    Orbital Energies (a.u.)
    -----------------------

    Doubly Occupied:

       1A    -20.604473     2A    -20.544300     3A    -11.371554
       4A    -11.281154     5A    -11.234421     6A    -11.226593
       7A    -11.223653     8A    -11.213950     9A     -1.469415
      10A     -1.361970    11A     -1.093291    12A     -1.025319
      13A     -0.966472    14A     -0.891211    15A     -0.807552
      16A     -0.774456    17A     -0.693881    18A     -0.680999
      19A     -0.673260    20A     -0.646607    21A     -0.597007
      22A     -0.591412    23A     -0.576727    24A     -0.549785
      25A     -0.532798    26A     -0.522778    27A     -0.506340
      28A     -0.488064    29A     -0.482349    30A     -0.472897
      31A     -0.455005    32A     -0.428739

  @DF-RHF Final Energy:  -383.93987151474454

   => Energetics <=

    Nuclear Repulsion Energy =            384.1717953072404157
    One-Electron Energy =               -1284.2464985747683386
    Two-Electron Energy =                 516.1348317527828158
    DFT Exchange-Correlation Energy =       0.0000000000000000
    Empirical Dispersion Energy =           0.0000000000000000
    PCM Polarization Energy =               0.0000000000000000
    EFP Energy =                            0.0000000000000000
    Total Energy =                       -383.9398715147450503

  Mulliken Charges: (a.u.)
   Center  Symbol    Alpha    Beta     Spin     Total
       1     O     4.28593  4.28593  0.00000 -0.57186
       2     C     2.61277  2.61277  0.00000  0.77445
       3     C     3.20037  3.20037  0.00000 -0.40073
       4     O     4.30201  4.30201  0.00000 -0.60402
       5     C     3.16121  3.16121  0.00000 -0.32241
       6     H     0.40357  0.40357  0.00000  0.19287
       7     H     0.39926  0.39926  0.00000  0.20149
       8     C     3.15367  3.15367  0.00000 -0.30733
       9     H     0.40681  0.40681  0.00000  0.18639
      10     H     0.41598  0.41598  0.00000  0.16804
      11     C     3.23998  3.23998  0.00000 -0.47996
      12     H     0.42105  0.42105  0.00000  0.15790
      13     H     0.42044  0.42044  0.00000  0.15912
      14     H     0.42034  0.42034  0.00000  0.15932
      15     H     0.41760  0.41760  0.00000  0.16479
      16     H     0.42022  0.42022  0.00000  0.15956
      17     C     3.09237  3.09237  0.00000 -0.18473
      18     H     0.40881  0.40881  0.00000  0.18238
      19     H     0.40886  0.40886  0.00000  0.18229
      20     H     0.40877  0.40877  0.00000  0.18246

   Total alpha = 32.00000, Total beta = 32.00000, Total charge = -0.00000
