  ==> Input File <==

--------------------------------------------------------------------------
set {
	reference rhf
	basis cc-pvtz
}

set_num_threads( 4 )
memory 2 gb

molecule MOL {
0 1

H	 1.651322	 -0.822465	 0.000000
O	 0.729993	 -1.034364	 0.000000
C	 0.037305	 0.100061	 0.000000
C	 -0.255637	 0.579817	 1.389998
O	 -0.292527	 0.640232	 -0.998109
H	 -0.817843	 -0.176544	 1.922268
H	 -0.816586	 1.498491	 1.344178
H	 0.674020	 0.734398	 1.922268

	symmetry c1
}
set optking {
	frozen_dihedral = ("
		4 3 2 1
	")
}

ee = optimize('scf')
oeprop('DIPOLE', 'QUADRUPOLE', 'MULLIKEN_CHARGES')
f=open( 'psi4out.xyz', 'w' )
f.write( "8  " )
f.write( str(ee) + "\n" )
f.write( MOL.save_string_xyz() )
f.close()
--------------------------------------------------------------------------

    Molecular point group: c1
  Charge       = 0
  Multiplicity = 1
  Basis Set: CC-PVTZ
  Basis Set:
  @DF-RHF Final Energy:  -227.88296187898868
    Total Energy =                       -227.8829618789886524
    Molecular point group: c1
  Basis Set: CC-PVTZ
  Basis Set:
  Basis Set: CC-PVTZ
  Basis Set:
  @DF-RHF Final Energy:  -227.88431588869040
    Total Energy =                       -227.8843158886902245
  Basis Set: CC-PVTZ
  Basis Set:
  Basis Set: CC-PVTZ
  Basis Set:
  @DF-RHF Final Energy:  -227.88379275120511
    Total Energy =                       -227.8837927512050783
  Basis Set: CC-PVTZ
  Basis Set:
  Basis Set: CC-PVTZ
  Basis Set:
  @DF-RHF Final Energy:  -227.88453299982501
    Total Energy =                       -227.8845329998249838
  Basis Set: CC-PVTZ
  Basis Set:
  Basis Set: CC-PVTZ
  Basis Set:
  @DF-RHF Final Energy:  -227.88454078189744
    Total Energy =                       -227.8845407818974707
  Basis Set: CC-PVTZ
  Basis Set:
  Charge       = 0
  Multiplicity = 1
  Basis Set: CC-PVTZ
  Basis Set:

    Orbital Energies (a.u.)
    -----------------------

    Doubly Occupied:

       1A    -20.588295     2A    -20.552861     3A    -11.379171
       4A    -11.241904     5A     -1.465862     6A     -1.373179
       7A     -1.024430     8A     -0.829581     9A     -0.712270
      10A     -0.673294    11A     -0.664815    12A     -0.592295
      13A     -0.578769    14A     -0.511361    15A     -0.508850
      16A     -0.453960

  @DF-RHF Final Energy:  -227.88454167100841

   => Energetics <=

    Nuclear Repulsion Energy =            122.0423814360778749
    One-Electron Energy =                -553.5520531536189992
    Two-Electron Energy =                 203.6251300465327176
    DFT Exchange-Correlation Energy =       0.0000000000000000
    Empirical Dispersion Energy =           0.0000000000000000
    PCM Polarization Energy =               0.0000000000000000
    EFP Energy =                            0.0000000000000000
    Total Energy =                       -227.8845416710083782
    Molecular point group: c1
  Basis Set: CC-PVTZ
  Basis Set:

  -Total Gradient:
     Atom            X                  Y                   Z
    ------   -----------------  -----------------  -----------------
       1       -0.000023942356    -0.000032653571     0.001526255228
       2        0.000337559895     0.000349051425    -0.001906605050
       3       -0.001166112882    -0.000801778631     0.000345456804
       4        0.000864812054     0.000503971641     0.000012609274
       5        0.000008052696    -0.000013535912     0.000020865736
       6        0.000001354737     0.000000062100    -0.000000181032
       7       -0.000004267833     0.000004073224    -0.000003973908
       8       -0.000017456311    -0.000009190277     0.000005572947

  **** Optimization is complete! (in 6 steps) ****
    Final optimized geometry and variables:
    Molecular point group: c1

    Geometry (in Angstrom), charge = 0, multiplicity = 1:

    H            1.593386459446    -0.948653957825    -0.118946267195
    O            0.663105932104    -1.102531045288    -0.122759362688
    C           -0.041789327005     0.059870820404    -0.094447660123
    C           -0.352067975922     0.537799728370     1.294924905488
    O           -0.388839271066     0.592856175907    -1.080107625312
    H           -0.896955280084    -0.233769759136     1.823883174011
    H           -0.931221921255     1.446102440496     1.255930174027
    H            0.571571232580     0.708870481944     1.835628018541

  Mulliken Charges: (a.u.)
   Center  Symbol    Alpha    Beta     Spin     Total
       1     H     0.38633  0.38633  0.00000  0.22734
       2     O     4.17508  4.17508  0.00000 -0.35016
       3     C     2.80601  2.80601  0.00000  0.38799
       4     C     3.13752  3.13752  0.00000 -0.27505
       5     O     4.16059  4.16059  0.00000 -0.32117
       6     H     0.44254  0.44254  0.00000  0.11493
       7     H     0.43801  0.43801  0.00000  0.12398
       8     H     0.45393  0.45393  0.00000  0.09214

   Total alpha = 16.00000, Total beta = 16.00000, Total charge =  0.00000
