  ==> Input File <==

--------------------------------------------------------------------------
set {
	reference rhf
	basis 6-31G*
}

set_num_threads( 4 )
memory 2 gb

molecule MOL {
0 1

O	 1.226576	 1.331037	 0.398587
C	 0.861134	 0.272526	 -0.014869
C	 -0.623889	 -0.118271	 -0.003699
C	 1.878797	 -0.714509	 -0.559045
C	 -0.895332	 -1.256461	 -1.002431
C	 -1.473649	 1.103340	 -0.370799
C	 -0.983900	 -0.581483	 1.422328
H	 -0.615301	 -0.972064	 -2.012700
H	 -1.954261	 -1.493213	 -1.010207
H	 -0.360539	 -2.164946	 -0.747760
H	 -1.227476	 1.468527	 -1.361691
H	 -2.526716	 0.838935	 -0.358521
H	 -1.314819	 1.915855	 0.325860
H	 -2.039679	 -0.828001	 1.472951
H	 -0.427637	 -1.464071	 1.720694
H	 -0.789023	 0.202493	 2.147048
H	 1.869782	 -0.681644	 -1.644539
H	 2.861725	 -0.424253	 -0.214485
H	 1.672689	 -1.735634	 -0.262319

	symmetry c1
}
set optking {
	frozen_dihedral = ("
		1 2 3 5
	")
}

ee = optimize('scf')
oeprop('DIPOLE', 'QUADRUPOLE', 'MULLIKEN_CHARGES')
f=open( 'psi4out.xyz', 'w' )
f.write( "19  " )
f.write( str(ee) + "\n" )
f.write( MOL.save_string_xyz() )
f.close()
--------------------------------------------------------------------------

    Molecular point group: c1
  Charge       = 0
  Multiplicity = 1
  Basis Set: 6-31G*
  Basis Set:
  @DF-RHF Final Energy:  -309.06111200233346
    Total Energy =                       -309.0611120023335729
    Molecular point group: c1
  Basis Set: 6-31G*
  Basis Set:
  Basis Set: 6-31G*
  Basis Set:
  @DF-RHF Final Energy:  -309.06046594057102
    Total Energy =                       -309.0604659405711345
  Basis Set: 6-31G*
  Basis Set:
  Basis Set: 6-31G*
  Basis Set:
  @DF-RHF Final Energy:  -309.06110502520045
    Total Energy =                       -309.0611050252005043
  Basis Set: 6-31G*
  Basis Set:
  Basis Set: 6-31G*
  Basis Set:
  @DF-RHF Final Energy:  -309.06233088555871
    Total Energy =                       -309.0623308855589357
  Basis Set: 6-31G*
  Basis Set:
  Basis Set: 6-31G*
  Basis Set:
  @DF-RHF Final Energy:  -309.06238394543448
    Total Energy =                       -309.0623839454344193
  Basis Set: 6-31G*
  Basis Set:
  Basis Set: 6-31G*
  Basis Set:
  @DF-RHF Final Energy:  -309.06242122164213
    Total Energy =                       -309.0624212216421256
  Basis Set: 6-31G*
  Basis Set:
  Basis Set: 6-31G*
  Basis Set:
  @DF-RHF Final Energy:  -309.06242616410111
    Total Energy =                       -309.0624261641012822
  Basis Set: 6-31G*
  Basis Set:
  Charge       = 0
  Multiplicity = 1
  Basis Set: 6-31G*
  Basis Set:

    Orbital Energies (a.u.)
    -----------------------

    Doubly Occupied:

       1A    -20.547647     2A    -11.323287     3A    -11.246340
       4A    -11.227412     5A    -11.222702     6A    -11.221913
       7A    -11.211176     8A     -1.394505     9A     -1.108636
      10A     -1.003154    11A     -0.944152    12A     -0.936909
      13A     -0.834024    14A     -0.703805    15A     -0.664704
      16A     -0.631448    17A     -0.621706    18A     -0.590632
      19A     -0.587717    20A     -0.569710    21A     -0.549184
      22A     -0.545968    23A     -0.524518    24A     -0.512729
      25A     -0.500096    26A     -0.472022    27A     -0.461813
      28A     -0.391863

  @DF-RHF Final Energy:  -309.06242707222299

   => Energetics <=

    Nuclear Repulsion Energy =            326.2823648421630764
    One-Electron Energy =               -1065.5900389130715666
    Two-Electron Energy =                 430.2452469986855021
    DFT Exchange-Correlation Energy =       0.0000000000000000
    Empirical Dispersion Energy =           0.0000000000000000
    PCM Polarization Energy =               0.0000000000000000
    EFP Energy =                            0.0000000000000000
    Total Energy =                       -309.0624270722229312
    Molecular point group: c1
  Basis Set: 6-31G*
  Basis Set:

  -Total Gradient:
     Atom            X                  Y                   Z
    ------   -----------------  -----------------  -----------------
       1        0.000089959973    -0.000542647074     0.001192272928
       2       -0.000141197691     0.000587690675    -0.001384458502
       3       -0.000189156213     0.000743297894    -0.000582137624
       4       -0.000051919600    -0.000046093274     0.000043863592
       5        0.000188008135    -0.000690845612     0.000668986295
       6        0.000097220815    -0.000040705761     0.000019346955
       7       -0.000000534929     0.000023516209     0.000061647362
       8        0.000013896085    -0.000008134477    -0.000012300061
       9        0.000000375697    -0.000011702580    -0.000012853528
      10       -0.000013160578     0.000006260029    -0.000020278442
      11        0.000017996006    -0.000010379757     0.000011758471
      12        0.000011397645    -0.000028613346     0.000002916947
      13        0.000002686977     0.000014416073     0.000023560620
      14        0.000002391885    -0.000002785569     0.000010686735
      15       -0.000009347103     0.000014350094     0.000000194225
      16        0.000002450523    -0.000004422437     0.000017487511
      17       -0.000025879438     0.000004444380    -0.000009574485
      18       -0.000010760876     0.000006363121    -0.000014658795
      19        0.000015572688    -0.000014008592    -0.000016460205

  **** Optimization is complete! (in 8 steps) ****
    Final optimized geometry and variables:
    Molecular point group: c1

    Geometry (in Angstrom), charge = 0, multiplicity = 1:

    O            1.199815821576     1.325440893754     0.445133187597
    C            0.864835905783     0.268750148877     0.001146226835
    C           -0.622485402136    -0.125231282745    -0.016560865958
    C            1.910861660959    -0.717250966288    -0.480461205266
    C           -0.934609084014    -1.241729063517    -1.024146491447
    C           -1.463195556330     1.116351688135    -0.343114026114
    C           -0.956075076252    -0.614259339792     1.407687534435
    H           -0.687623574946    -0.947803200122    -2.040193907823
    H           -1.995794363420    -1.466898558011    -1.000684548911
    H           -0.403699899356    -2.160662413638    -0.801306663413
    H           -1.247329578387     1.483848369441    -1.341877111753
    H           -2.520304999746     0.872333393459    -0.298605080973
    H           -1.262495820457     1.916068418670     0.356291917691
    H           -2.003734906540    -0.891683943567     1.470262047346
    H           -0.368059061911    -1.486147126768     1.681196283237
    H           -0.764463954576     0.164747218643     2.136232823863
    H            1.801086374133    -0.908742526768    -1.542792884881
    H            2.890913307319    -0.302802535645    -0.290856090738
    H            1.815701552197    -1.669908445679     0.030697667411

  Mulliken Charges: (a.u.)
   Center  Symbol    Alpha    Beta     Spin     Total
       1     O     4.26674  4.26674  0.00000 -0.53349
       2     C     2.72631  2.72631  0.00000  0.54738
       3     C     3.06337  3.06337  0.00000 -0.12673
       4     C     3.29006  3.29006  0.00000 -0.58012
       5     C     3.24081  3.24081  0.00000 -0.48162
       6     C     3.23228  3.23228  0.00000 -0.46456
       7     C     3.23976  3.23976  0.00000 -0.47952
       8     H     0.41746  0.41746  0.00000  0.16508
       9     H     0.41402  0.41402  0.00000  0.17197
      10     H     0.41786  0.41786  0.00000  0.16429
      11     H     0.41923  0.41923  0.00000  0.16155
      12     H     0.42134  0.42134  0.00000  0.15733
      13     H     0.40114  0.40114  0.00000  0.19773
      14     H     0.41468  0.41468  0.00000  0.17064
      15     H     0.41988  0.41988  0.00000  0.16024
      16     H     0.40492  0.40492  0.00000  0.19017
      17     H     0.40605  0.40605  0.00000  0.18790
      18     H     0.39555  0.39555  0.00000  0.20891
      19     H     0.40857  0.40857  0.00000  0.18285

   Total alpha = 28.00000, Total beta = 28.00000, Total charge =  0.00000
