  ==> Input File <==

--------------------------------------------------------------------------
set {
	reference rhf
	basis 6-31G*
}

set_num_threads( 4 )
memory 2 gb

molecule MOL {
0 1

H	 2.159149	 -1.327963	 -0.157213
N	 2.434251	 -0.367735	 -0.081097
C	 1.267428	 0.496480	 0.024474
H	 2.958506	 -0.150480	 -0.907458
C	 -0.016086	 -0.325158	 -0.029487
H	 1.288818	 1.183521	 -0.816092
H	 1.267576	 1.109062	 0.929528
C	 -1.282277	 0.529072	 0.046735
H	 -0.012495	 -0.908639	 -0.945788
H	 -0.015903	 -1.041248	 0.791956
C	 -2.563920	 -0.301775	 -0.006060
H	 -1.284084	 1.244622	 -0.773004
H	 -1.271387	 1.115393	 0.963286
H	 -2.621848	 -0.873522	 -0.927727
H	 -3.445135	 0.329952	 0.047812
H	 -2.609542	 -1.004582	 0.821105

	symmetry c1
}
set optking {
	frozen_dihedral = ("
		1 2 3 6
	")
}

ee = optimize('scf')
oeprop('DIPOLE', 'QUADRUPOLE', 'MULLIKEN_CHARGES')
f=open( 'psi4out.xyz', 'w' )
f.write( "16  " )
f.write( str(ee) + "\n" )
f.write( MOL.save_string_xyz() )
f.close()
--------------------------------------------------------------------------

    Molecular point group: c1
  Charge       = 0
  Multiplicity = 1
  Basis Set: 6-31G*
  Basis Set:
  @DF-RHF Final Energy:  -212.31127575581274
    Total Energy =                       -212.3112757558128578
    Molecular point group: c1
  Basis Set: 6-31G*
  Basis Set:
  Basis Set: 6-31G*
  Basis Set:
  @DF-RHF Final Energy:  -212.31244957943866
    Total Energy =                       -212.3124495794386064
  Basis Set: 6-31G*
  Basis Set:
  Basis Set: 6-31G*
  Basis Set:
  @DF-RHF Final Energy:  -212.31264267136061
    Total Energy =                       -212.3126426713606065
  Basis Set: 6-31G*
  Basis Set:
  Basis Set: 6-31G*
  Basis Set:
  @DF-RHF Final Energy:  -212.31264555637472
    Total Energy =                       -212.3126455563748323
  Basis Set: 6-31G*
  Basis Set:
  Charge       = 0
  Multiplicity = 1
  Basis Set: 6-31G*
  Basis Set:

    Orbital Energies (a.u.)
    -----------------------

    Doubly Occupied:

       1A    -15.528735     2A    -11.239481     3A    -11.218698
       4A    -11.216669     5A    -11.211078     6A     -1.173074
       7A     -1.062783     8A     -0.960649     9A     -0.847161
      10A     -0.798501    11A     -0.663922    12A     -0.637651
      13A     -0.596615    14A     -0.583578    15A     -0.567630
      16A     -0.520102    17A     -0.512309    18A     -0.473713
      19A     -0.473124    20A     -0.464684    21A     -0.373542

  @DF-RHF Final Energy:  -212.31264631268724

   => Energetics <=

    Nuclear Repulsion Energy =            186.1836125688952563
    One-Electron Energy =                -654.7451182800710967
    Two-Electron Energy =                 256.2488593984886620
    DFT Exchange-Correlation Energy =       0.0000000000000000
    Empirical Dispersion Energy =           0.0000000000000000
    PCM Polarization Energy =               0.0000000000000000
    EFP Energy =                            0.0000000000000000
    Total Energy =                       -212.3126463126872068
    Molecular point group: c1
  Basis Set: 6-31G*
  Basis Set:

  -Total Gradient:
     Atom            X                  Y                   Z
    ------   -----------------  -----------------  -----------------
       1       -0.000000176345    -0.000016274825     0.000037092344
       2        0.000057429751    -0.000036141084    -0.000023849979
       3       -0.000070502986    -0.000015951100    -0.000021424810
       4       -0.000009510328    -0.000003232471    -0.000022816912
       5        0.000097199330     0.000023170456    -0.000007284863
       6        0.000015918444     0.000012928295     0.000009937082
       7       -0.000053841854     0.000007694326     0.000011679806
       8        0.000008676524    -0.000000985207     0.000019766567
       9        0.000025117696     0.000017832278     0.000005859847
      10       -0.000002010819     0.000004082455    -0.000024509293
      11       -0.000044810015     0.000019609497     0.000012870694
      12        0.000002036107    -0.000012802458     0.000004692399
      13       -0.000006672424     0.000005478929    -0.000005167372
      14        0.000009355703     0.000004368740     0.000006448613
      15       -0.000024917661    -0.000012653596    -0.000003809333
      16       -0.000003291120     0.000002875765     0.000000515211

  **** Optimization is complete! (in 5 steps) ****
    Final optimized geometry and variables:
    Molecular point group: c1

    Geometry (in Angstrom), charge = 0, multiplicity = 1:

    H            2.240019029666    -1.315932927707    -0.097450390993
    N            2.471007962714    -0.345822187793    -0.019115247770
    C            1.271505351275     0.490518569378     0.006459002610
    H            3.064324155407    -0.119327241360    -0.790555015782
    C           -0.020142303202    -0.322965171670    -0.036862542393
    H            1.279952935664     1.187876921532    -0.828274616307
    H            1.278217085305     1.094462137365     0.910093544980
    C           -1.279573504950     0.537582701427     0.072257985575
    H           -0.049226805667    -0.896876586321    -0.962047065954
    H           -0.006540458244    -1.046410012149     0.777132578520
    C           -2.567747735386    -0.284072095030     0.035508676445
    H           -1.291993805027     1.263220734801    -0.738288965517
    H           -1.244191169518     1.111266541746     0.995495409250
    H           -2.649197198727    -0.844658967592    -0.891434970384
    H           -3.442823911291     0.353425555968     0.114204439752
    H           -2.601960542060    -0.995608510278     0.855569557504

  Mulliken Charges: (a.u.)
   Center  Symbol    Alpha    Beta     Spin     Total
       1     H     0.33140  0.33140  0.00000  0.33720
       2     N     3.93263  3.93263  0.00000 -0.86526
       3     C     3.04500  3.04500  0.00000 -0.09000
       4     H     0.33159  0.33159  0.00000  0.33682
       5     C     3.16723  3.16723  0.00000 -0.33447
       6     H     0.42855  0.42855  0.00000  0.14290
       7     H     0.42065  0.42065  0.00000  0.15871
       8     C     3.15471  3.15471  0.00000 -0.30942
       9     H     0.42512  0.42512  0.00000  0.14976
      10     H     0.42018  0.42018  0.00000  0.15964
      11     C     3.23915  3.23915  0.00000 -0.47829
      12     H     0.42250  0.42250  0.00000  0.15501
      13     H     0.42020  0.42020  0.00000  0.15961
      14     H     0.42175  0.42175  0.00000  0.15650
      15     H     0.41850  0.41850  0.00000  0.16300
      16     H     0.42086  0.42086  0.00000  0.15829

   Total alpha = 21.00000, Total beta = 21.00000, Total charge = -0.00000
