                              Psi4 1.0.54 Driver

  ==> Input File <==

--------------------------------------------------------------------------
set {
	reference rhf
	basis cc-pvtz
}

set_num_threads( 4 )
memory 2 gb

molecule MOL {
0 1

H	 2.249072	 -5.280292	 2.252142
C	 2.167901	 -4.314392	 1.793271
C	 1.001266	 -3.939582	 1.141878
C	 3.217602	 -3.426822	 1.840418
H	 0.171440	 -4.619075	 1.094855
C	 0.892979	 -2.703033	 0.552606
H	 4.128232	 -3.698879	 2.339846
C	 3.125092	 -2.173881	 1.250511
H	 -0.003879	 -2.403705	 0.046920
C	 1.958208	 -1.810117	 0.603875
H	 3.959761	 -1.506163	 1.304735
O	 1.760432	 -0.625184	 0.000000
C	 2.773565	 0.334879	 0.000000
H	 2.728295	 0.960928	 -0.884150
H	 3.706387	 -0.206610	 0.000000
H	 2.728295	 0.960928	 0.884150

	symmetry c1
}
set optking {
	frozen_dihedral = ("
		10 12 13 14
	")
}

ee,wfn = optimize('scf', return_wfn=True)
oeprop( wfn, 'DIPOLE', 'QUADRUPOLE', 'MULLIKEN_CHARGES')
f=open( 'psi4out.xyz', 'w' )
f.write( "16  " )
f.write( str(ee) + "\n" )
f.write( MOL.save_string_xyz() )
f.close()
--------------------------------------------------------------------------

    Molecular point group: c1
  Charge       = 0
  Multiplicity = 1
  Basis Set: CC-PVTZ
  Basis Set:
  @DF-RHF Final Energy:  -344.69800509348266
    Total Energy =                       -344.6980050934826068
    Molecular point group: c1
  Basis Set: CC-PVTZ
  Basis Set:
  Basis Set: CC-PVTZ
  Basis Set:
  @DF-RHF Final Energy:  -344.69954764859591
    Total Energy =                       -344.6995476485959102
  Basis Set: CC-PVTZ
  Basis Set:
  Basis Set: CC-PVTZ
  Basis Set:
  @DF-RHF Final Energy:  -344.70159987153841
    Total Energy =                       -344.7015998715386331
  Basis Set: CC-PVTZ
  Basis Set:
  Basis Set: CC-PVTZ
  Basis Set:
  @DF-RHF Final Energy:  -344.70180964771373
    Total Energy =                       -344.7018096477136169
  Basis Set: CC-PVTZ
  Basis Set:
  Basis Set: CC-PVTZ
  Basis Set:
  @DF-RHF Final Energy:  -344.70189026069903
    Total Energy =                       -344.7018902606990309
  Basis Set: CC-PVTZ
  Basis Set:
  Basis Set: CC-PVTZ
  Basis Set:
  @DF-RHF Final Energy:  -344.70189562454408
    Total Energy =                       -344.7018956245441359
  Basis Set: CC-PVTZ
  Basis Set:
  Charge       = 0
  Multiplicity = 1
  Basis Set: CC-PVTZ
  Basis Set:

    Orbital Energies (a.u.)
    -----------------------

    Doubly Occupied:

       1A    -20.577629     2A    -11.293053     3A    -11.277946
       4A    -11.231341     5A    -11.230019     6A    -11.222086
       7A    -11.218156     8A    -11.217444     9A     -1.416727
      10A     -1.151006    11A     -1.025009    12A     -1.016804
      13A     -0.943333    14A     -0.835059    15A     -0.808488
      16A     -0.724839    17A     -0.667378    18A     -0.666867
      19A     -0.658033    20A     -0.618411    21A     -0.591095
      22A     -0.581551    23A     -0.527682    24A     -0.521678
      25A     -0.511794    26A     -0.481560    27A     -0.462612
      28A     -0.339607    29A     -0.311036

  @DF-RHF Final Energy:  -344.70189686402665

   => Energetics <=

    Nuclear Repulsion Energy =            348.6778297956648771
    One-Electron Energy =               -1158.5029661159423995
    Two-Electron Energy =                 465.1232394562510990
    DFT Exchange-Correlation Energy =       0.0000000000000000
    Empirical Dispersion Energy =           0.0000000000000000
    PCM Polarization Energy =               0.0000000000000000
    EFP Energy =                            0.0000000000000000
    Total Energy =                       -344.7018968640264802
    Molecular point group: c1
  Basis Set: CC-PVTZ
  Basis Set:

  -Total Gradient:
     Atom            X                  Y                   Z
    ------   -----------------  -----------------  -----------------
       1       -0.000012515467    -0.000018557815     0.000004284594
       2        0.000155188850     0.000077492825     0.000122102387
       3       -0.000070912292     0.000085991278    -0.000131913859
       4       -0.000056893144    -0.000239602891     0.000004858259
       5        0.000015186481    -0.000009722469     0.000020489706
       6       -0.000030435057    -0.000167921832    -0.000000085242
       7       -0.000005518711     0.000005072592    -0.000001963704
       8       -0.000089657203     0.000125751507    -0.000134012213
       9        0.000011098105     0.000021912388    -0.000000036182
      10        0.000834817033    -0.000864511050    -0.002276443136
      11        0.000008313978    -0.000001250693    -0.000010523553
      12       -0.000820768796     0.000981877448     0.003212976456
      13       -0.001594077991     0.001869452300     0.000858019892
      14        0.001676692145    -0.001910045004    -0.001662031029
      15       -0.000014590869     0.000012976319     0.000017623846
      16       -0.000005927062     0.000031085095    -0.000023346222

  **** Optimization is complete! (in 7 steps) ****
    Final optimized geometry and variables:
    Molecular point group: c1

    Geometry (in Angstrom), charge = 0, multiplicity = 1:

    H            0.177413981042    -3.090768478967     1.263380860864
    C            0.076807507748    -2.106537292114     0.849326241967
    C           -0.923628988338    -1.828965658242    -0.069774502055
    C            0.936184205797    -1.098471686821     1.224200754698
    H           -1.603338001681    -2.602940613548    -0.372209804355
    C           -1.054582665272    -0.569082382050    -0.606159766546
    H            1.712022396497    -1.293200815927     1.940301356799
    C            0.813961239963     0.177919471961     0.696368742412
    H           -1.823212760721    -0.344363781598    -1.319137781759
    C           -0.181085840306     0.442559595694    -0.227166550776
    H            1.484584877604     0.948716344999     1.017908037077
    O           -0.394097476080     1.651718152215    -0.778522140013
    C            0.635056033552     2.598517654212    -0.825603403019
    H            0.464460640724     3.204361439231    -1.702838270316
    H            1.603871112975     2.126197379852    -0.927980206950
    H            0.634476799002     3.224630360245     0.058998114204

  Mulliken Charges: (a.u.)
   Center  Symbol    Alpha    Beta     Spin     Total
       1     H     0.42436  0.42436  0.00000  0.15128
       2     C     3.09963  3.09963  0.00000 -0.19926
       3     C     3.05887  3.05887  0.00000 -0.11774
       4     C     3.06294  3.06294  0.00000 -0.12587
       5     H     0.42292  0.42292  0.00000  0.15417
       6     C     3.11023  3.11023  0.00000 -0.22046
       7     H     0.42317  0.42317  0.00000  0.15366
       8     C     3.13732  3.13732  0.00000 -0.27465
       9     H     0.42017  0.42017  0.00000  0.15966
      10     C     2.85439  2.85439  0.00000  0.29121
      11     H     0.42311  0.42311  0.00000  0.15378
      12     O     4.15618  4.15618  0.00000 -0.31236
      13     C     3.04209  3.04209  0.00000 -0.08418
      14     H     0.44223  0.44223  0.00000  0.11554
      15     H     0.46438  0.46438  0.00000  0.07123
      16     H     0.45800  0.45800  0.00000  0.08400

   Total alpha = 29.00000, Total beta = 29.00000, Total charge =  0.00000

*** Psi4 exiting successfully. Buy a developer a beer!
