  ==> Input File <==

--------------------------------------------------------------------------
set {
	reference rhf
	basis 6-31G*
}

set_num_threads( 4 )
memory 2 gb

molecule MOL {
0 1

O	 1.214711	 1.306902	 -0.000018
C	 1.122059	 0.121804	 -0.000188
C	 -0.170150	 -0.657997	 -0.000612
O	 2.172624	 -0.688929	 0.000216
C	 -1.412532	 0.227344	 -0.000452
H	 -0.153702	 -1.313099	 -0.867402
H	 -0.153924	 -1.313811	 0.865644
C	 -2.684957	 -0.556476	 0.325010
H	 -1.512364	 0.704966	 -0.970202
H	 -1.280588	 1.029855	 0.718624
C	 -3.934420	 0.323204	 0.328558
H	 -2.811942	 -1.359756	 -0.397964
H	 -2.578540	 -1.035092	 1.296438
H	 -4.087742	 0.789335	 -0.640394
H	 -4.822003	 -0.256588	 0.561609
H	 -3.852933	 1.115923	 1.066526
C	 3.452279	 -0.082609	 0.000533
H	 3.583069	 0.529321	 -0.880332
H	 4.163299	 -0.894027	 0.001117
H	 3.582335	 0.529955	 0.881077

	symmetry c1
}
set optking {
	frozen_dihedral = ("
		9 5 3 6
	")
}

ee = optimize('scf')
oeprop('DIPOLE', 'QUADRUPOLE', 'MULLIKEN_CHARGES')
f=open( 'psi4out.xyz', 'w' )
f.write( "20  " )
f.write( str(ee) + "\n" )
f.write( MOL.save_string_xyz() )
f.close()
--------------------------------------------------------------------------

    Molecular point group: c1
  Charge       = 0
  Multiplicity = 1
  Basis Set: 6-31G*
  Basis Set:
  @DF-RHF Final Energy:  -383.94100821382489
    Total Energy =                       -383.9410082138249436
    Molecular point group: c1
  Basis Set: 6-31G*
  Basis Set:
  Basis Set: 6-31G*
  Basis Set:
  @DF-RHF Final Energy:  -383.94106040102082
    Total Energy =                       -383.9410604010206498
  Basis Set: 6-31G*
  Basis Set:
  Basis Set: 6-31G*
  Basis Set:
  @DF-RHF Final Energy:  -383.94108975081582
    Total Energy =                       -383.9410897508159906
  Basis Set: 6-31G*
  Basis Set:
  Basis Set: 6-31G*
  Basis Set:
  @DF-RHF Final Energy:  -383.94106513970877
    Total Energy =                       -383.9410651397088259
  Basis Set: 6-31G*
  Basis Set:
  Basis Set: 6-31G*
  Basis Set:
  @DF-RHF Final Energy:  -383.94109171387566
    Total Energy =                       -383.9410917138758350
  Basis Set: 6-31G*
  Basis Set:
  Charge       = 0
  Multiplicity = 1
  Basis Set: 6-31G*
  Basis Set:

    Orbital Energies (a.u.)
    -----------------------

    Doubly Occupied:

       1A    -20.603687     2A    -20.545549     3A    -11.372327
       4A    -11.280904     5A    -11.235834     6A    -11.220164
       7A    -11.219236     8A    -11.210561     9A     -1.469402
      10A     -1.362839    11A     -1.088524    12A     -1.024355
      13A     -0.968963    14A     -0.885891    15A     -0.803823
      16A     -0.767410    17A     -0.696649    18A     -0.683673
      19A     -0.671992    20A     -0.645917    21A     -0.597497
      22A     -0.592502    23A     -0.578768    24A     -0.540781
      25A     -0.535850    26A     -0.522616    27A     -0.501629
      28A     -0.478191    29A     -0.472432    30A     -0.470608
      31A     -0.455935    32A     -0.436823

  @DF-RHF Final Energy:  -383.94109197045344

   => Energetics <=

    Nuclear Repulsion Energy =            381.0923042684165125
    One-Electron Energy =               -1278.1841266323312993
    Two-Electron Energy =                 513.1507303934615720
    DFT Exchange-Correlation Energy =       0.0000000000000000
    Empirical Dispersion Energy =           0.0000000000000000
    PCM Polarization Energy =               0.0000000000000000
    EFP Energy =                            0.0000000000000000
    Total Energy =                       -383.9410919704532716
    Molecular point group: c1
  Basis Set: 6-31G*
  Basis Set:

  -Total Gradient:
     Atom            X                  Y                   Z
    ------   -----------------  -----------------  -----------------
       1       -0.000003914997     0.000015285160    -0.000016099143
       2        0.000004979003    -0.000011182766     0.000049718609
       3       -0.001634374109    -0.002275754706     0.001220352626
       4       -0.000006240135     0.000002268067    -0.000005482015
       5        0.001734994643     0.002392204479     0.000557121863
       6        0.001070310813     0.001508522247    -0.001114390642
       7       -0.000004540333     0.000001940648    -0.000014154683
       8        0.000004462426    -0.000004382237     0.000008065969
       9       -0.001172892399    -0.001642245507    -0.000692385891
      10        0.000008848363     0.000009847613     0.000003194856
      11        0.000000498747     0.000005123966     0.000012666278
      12        0.000012699646     0.000003198326    -0.000004344353
      13       -0.000016704915    -0.000004889543     0.000001782049
      14       -0.000002239431    -0.000006288635    -0.000002778585
      15        0.000001989126     0.000000410946     0.000005795315
      16       -0.000000054046     0.000005286510    -0.000006609021
      17        0.000004484859     0.000001468802    -0.000003449722
      18        0.000000239866    -0.000000255048     0.000000832526
      19       -0.000000830426    -0.000000197889     0.000000142309
      20       -0.000001716702    -0.000000360434     0.000000021655

  **** Optimization is complete! (in 6 steps) ****
    Final optimized geometry and variables:
    Molecular point group: c1

    Geometry (in Angstrom), charge = 0, multiplicity = 1:

    O            1.216302207905     1.300600963057    -0.067071333932
    C            1.118717254212     0.115919159946    -0.071183103399
    C           -0.175928801804    -0.661801896285    -0.053865232743
    O            2.166340142308    -0.698533885887    -0.094336030664
    C           -1.416571142281     0.227929368523    -0.047577120525
    H           -0.161949518301    -1.309136024977    -0.926176162034
    H           -0.149519899897    -1.316420127768     0.812638632747
    C           -2.693928975898    -0.563662329501     0.242318250245
    H           -1.512299198916     0.712945978029    -1.014675260373
    H           -1.295436880161     1.016662150642     0.686571695337
    C           -3.947834419477     0.309057455152     0.212317571942
    H           -2.797231155228    -1.368082402105    -0.483309668770
    H           -2.610529979016    -1.041117904312     1.216495636747
    H           -4.081633048776     0.769342166681    -0.762361843577
    H           -4.837497886556    -0.274284866985     0.427991987768
    H           -3.887362214993     1.106093252932     0.947686851004
    C            3.447999954891    -0.096832472123    -0.113135995640
    H            3.565509011438     0.519661097256    -0.992701079995
    H            4.155924317467    -0.910797356931    -0.129683602921
    H            3.595881095694     0.510213171026     0.768416629417

  Mulliken Charges: (a.u.)
   Center  Symbol    Alpha    Beta     Spin     Total
       1     O     4.28580  4.28580  0.00000 -0.57159
       2     C     2.60664  2.60664  0.00000  0.78673
       3     C     3.20783  3.20783  0.00000 -0.41566
       4     O     4.30704  4.30704  0.00000 -0.61408
       5     C     3.15162  3.15162  0.00000 -0.30323
       6     H     0.40014  0.40014  0.00000  0.19971
       7     H     0.40051  0.40051  0.00000  0.19898
       8     C     3.15461  3.15461  0.00000 -0.30922
       9     H     0.41509  0.41509  0.00000  0.16983
      10     H     0.40761  0.40761  0.00000  0.18478
      11     C     3.23938  3.23938  0.00000 -0.47876
      12     H     0.42324  0.42324  0.00000  0.15352
      13     H     0.42272  0.42272  0.00000  0.15455
      14     H     0.42039  0.42039  0.00000  0.15923
      15     H     0.41874  0.41874  0.00000  0.16252
      16     H     0.41969  0.41969  0.00000  0.16061
      17     C     3.09237  3.09237  0.00000 -0.18474
      18     H     0.40905  0.40905  0.00000  0.18189
      19     H     0.40844  0.40844  0.00000  0.18312
      20     H     0.40909  0.40909  0.00000  0.18181

   Total alpha = 32.00000, Total beta = 32.00000, Total charge =  0.00000
