  ==> Input File <==

--------------------------------------------------------------------------
set {
	reference rhf
	basis 6-31G*
}

set_num_threads( 4 )
memory 2 gb

molecule MOL {
0 1

H	 -0.821032	 -1.655889	 0.000000
O	 -1.037828	 -0.728600	 0.000000
C	 0.100509	 -0.036935	 0.000000
C	 -0.101959	 1.372880	 -0.476793
O	 1.132905	 -0.512104	 0.342924
H	 -0.507980	 1.363027	 -1.481664
H	 0.840687	 1.898574	 -0.462153
H	 -0.818796	 1.874565	 0.162873

	symmetry c1
}
set optking {
	frozen_dihedral = ("
		4 3 2 1
	")
}

ee = optimize('scf')
oeprop('DIPOLE', 'QUADRUPOLE', 'MULLIKEN_CHARGES')
f=open( 'psi4out.xyz', 'w' )
f.write( "8  " )
f.write( str(ee) + "\n" )
f.write( MOL.save_string_xyz() )
f.close()
--------------------------------------------------------------------------

    Molecular point group: c1
  Charge       = 0
  Multiplicity = 1
  Basis Set: 6-31G*
  Basis Set:
  @DF-RHF Final Energy:  -227.80770808190957
    Total Energy =                       -227.8077080819095102
    Molecular point group: c1
  Basis Set: 6-31G*
  Basis Set:
  Basis Set: 6-31G*
  Basis Set:
  @DF-RHF Final Energy:  -227.80508107805747
    Total Energy =                       -227.8050810780574977
  Basis Set: 6-31G*
  Basis Set:
  Basis Set: 6-31G*
  Basis Set:
  @DF-RHF Final Energy:  -227.80793408644320
    Total Energy =                       -227.8079340864430833
  Basis Set: 6-31G*
  Basis Set:
  Basis Set: 6-31G*
  Basis Set:
  @DF-RHF Final Energy:  -227.80799432112121
    Total Energy =                       -227.8079943211212424
  Basis Set: 6-31G*
  Basis Set:
  Basis Set: 6-31G*
  Basis Set:
  @DF-RHF Final Energy:  -227.80805013307997
    Total Energy =                       -227.8080501330797745
  Basis Set: 6-31G*
  Basis Set:
  Basis Set: 6-31G*
  Basis Set:
  @DF-RHF Final Energy:  -227.80806907074262
    Total Energy =                       -227.8080690707425902
  Basis Set: 6-31G*
  Basis Set:
  Charge       = 0
  Multiplicity = 1
  Basis Set: 6-31G*
  Basis Set:

    Orbital Energies (a.u.)
    -----------------------

    Doubly Occupied:

       1A    -20.613748     2A    -20.553957     3A    -11.386215
       4A    -11.240673     5A     -1.475628     6A     -1.368406
       7A     -1.026768     8A     -0.831139     9A     -0.702841
      10A     -0.682361    11A     -0.654287    12A     -0.581753
      13A     -0.574934    14A     -0.556435    15A     -0.481116
      16A     -0.449103

  @DF-RHF Final Energy:  -227.80806982487610

   => Energetics <=

    Nuclear Repulsion Energy =            122.3959667918419285
    One-Electron Energy =                -554.0493444977093986
    Two-Electron Energy =                 203.8453078809914132
    DFT Exchange-Correlation Energy =       0.0000000000000000
    Empirical Dispersion Energy =           0.0000000000000000
    PCM Polarization Energy =               0.0000000000000000
    EFP Energy =                            0.0000000000000000
    Total Energy =                       -227.8080698248760427
    Molecular point group: c1
  Basis Set: 6-31G*
  Basis Set:

  -Total Gradient:
     Atom            X                  Y                   Z
    ------   -----------------  -----------------  -----------------
       1       -0.000552955390     0.000065990770    -0.007302354680
       2        0.000712904864    -0.000650583994     0.007036425237
       3       -0.000507715632     0.001958748245     0.004793635070
       4        0.000450999922    -0.001405618438    -0.004516572171
       5       -0.000068354135     0.000038844545    -0.000014654458
       6       -0.000004796133    -0.000002485587     0.000002747331
       7       -0.000013304245    -0.000006532811    -0.000005241888
       8       -0.000016779253     0.000001637271     0.000006015557

  **** Optimization is complete! (in 7 steps) ****
    Final optimized geometry and variables:
    Molecular point group: c1

    Geometry (in Angstrom), charge = 0, multiplicity = 1:

    H           -0.859263417830    -1.631578545893     0.113375075504
    O           -1.052762018633    -0.699792455912     0.132154350236
    C            0.098039809479    -0.028765582588     0.043844135134
    C           -0.112110027219     1.386671402009    -0.412302666623
    O            1.149755332173    -0.541867252976     0.238820945324
    H           -0.406725132784     1.366158918651    -1.455971130238
    H            0.805263658524     1.945608403060    -0.304834409764
    H           -0.911097707922     1.857499894035     0.146955925320

  Mulliken Charges: (a.u.)
   Center  Symbol    Alpha    Beta     Spin     Total
       1     H     0.26696  0.26696  0.00000  0.46608
       2     O     4.34642  4.34642  0.00000 -0.69285
       3     C     2.63845  2.63845  0.00000  0.72309
       4     C     3.28436  3.28436  0.00000 -0.56872
       5     O     4.27272  4.27272  0.00000 -0.54545
       6     H     0.39742  0.39742  0.00000  0.20516
       7     H     0.39519  0.39519  0.00000  0.20963
       8     H     0.39847  0.39847  0.00000  0.20305

   Total alpha = 16.00000, Total beta = 16.00000, Total charge =  0.00000
