  ==> Input File <==

--------------------------------------------------------------------------
set {
	reference rhf
	basis 6-31G*
}

set_num_threads( 4 )
memory 2 gb

molecule MOL {
0 1

H	 -0.736572	 3.355054	 3.178404
O	 -0.051881	 2.766150	 2.895040
C	 -0.523529	 1.965407	 1.841973
C	 0.598241	 1.035953	 1.413610
H	 -1.388213	 1.384488	 2.160033
H	 -0.837095	 2.583286	 1.001591
C	 0.198102	 0.111031	 0.262842
H	 0.904671	 0.449913	 2.275808
H	 1.453792	 1.641661	 1.127907
C	 1.331804	 -0.827780	 -0.158768
H	 -0.672983	 -0.469291	 0.557138
H	 -0.106965	 0.709003	 -0.594993
C	 2.723619	 -0.410569	 0.329459
H	 1.342964	 -0.912588	 -1.244120
H	 1.116806	 -1.824343	 0.220779
C	 3.243875	 0.895854	 -0.272975
H	 3.424222	 -1.207124	 0.091250
H	 2.714788	 -0.329854	 1.414619
H	 3.251977	 0.848779	 -1.358681
H	 2.637085	 1.747371	 0.016682
H	 4.259473	 1.094070	 0.055697

	symmetry c1
}
set optking {
	frozen_dihedral = ("
		4 7 10 14
	")
}

ee = optimize('scf')
oeprop('DIPOLE', 'QUADRUPOLE', 'MULLIKEN_CHARGES')
f=open( 'psi4out.xyz', 'w' )
f.write( "21  " )
f.write( str(ee) + "\n" )
f.write( MOL.save_string_xyz() )
f.close()
--------------------------------------------------------------------------

    Molecular point group: c1
  Charge       = 0
  Multiplicity = 1
  Basis Set: 6-31G*
  Basis Set:
  @DF-RHF Final Energy:  -310.19444382895216
    Total Energy =                       -310.1944438289518189
    Molecular point group: c1
  Basis Set: 6-31G*
  Basis Set:
  Basis Set: 6-31G*
  Basis Set:
  @DF-RHF Final Energy:  -310.20207553684133
    Total Energy =                       -310.2020755368413916
  Basis Set: 6-31G*
  Basis Set:
  Basis Set: 6-31G*
  Basis Set:
  @DF-RHF Final Energy:  -310.20350969233806
    Total Energy =                       -310.2035096923381161
  Basis Set: 6-31G*
  Basis Set:
  Basis Set: 6-31G*
  Basis Set:
  @DF-RHF Final Energy:  -310.20372297758848
    Total Energy =                       -310.2037229775883134
  Basis Set: 6-31G*
  Basis Set:
  @DF-RHF Final Energy:  -310.20382776217718
    Total Energy =                       -310.2038277621771840
  Basis Set: 6-31G*
  Basis Set:
  @DF-RHF Final Energy:  -310.20383825289770
    Total Energy =                       -310.2038382528979810
  Basis Set: 6-31G*
  Basis Set:
  Basis Set: 6-31G*
  Basis Set:
  @DF-RHF Final Energy:  -310.20384456227345
    Total Energy =                       -310.2038445622731615
  Basis Set: 6-31G*
  Basis Set:
  Basis Set: 6-31G*
  Basis Set:
  @DF-RHF Final Energy:  -310.20384698942138
    Total Energy =                       -310.2038469894211516
  Basis Set: 6-31G*
  Basis Set:
  Charge       = 0
  Multiplicity = 1
  Basis Set: 6-31G*
  Basis Set:

    Orbital Energies (a.u.)
    -----------------------

    Doubly Occupied:

       1A    -20.552018     2A    -11.267160     3A    -11.216764
       4A    -11.214360     5A    -11.212609     6A    -11.210477
       7A    -11.206232     8A     -1.358815     9A     -1.083009
      10A     -1.029112    11A     -0.955077    12A     -0.873855
      13A     -0.820454    14A     -0.763924    15A     -0.688500
      16A     -0.660972    17A     -0.626115    18A     -0.616754
      19A     -0.569577    20A     -0.565665    21A     -0.543441
      22A     -0.526510    23A     -0.502968    24A     -0.494268
      25A     -0.477563    26A     -0.450513    27A     -0.448103
      28A     -0.445474    29A     -0.434309

  @DF-RHF Final Energy:  -310.20384718748966

   => Energetics <=

    Nuclear Repulsion Energy =            319.7714527241450355
    One-Electron Energy =               -1054.3214045178237939
    Two-Electron Energy =                 424.3461046061888169
    DFT Exchange-Correlation Energy =       0.0000000000000000
    Empirical Dispersion Energy =           0.0000000000000000
    PCM Polarization Energy =               0.0000000000000000
    EFP Energy =                            0.0000000000000000
    Total Energy =                       -310.2038471874898846
    Molecular point group: c1
  Basis Set: 6-31G*
  Basis Set:

  -Total Gradient:
     Atom            X                  Y                   Z
    ------   -----------------  -----------------  -----------------
       1        0.000003959413     0.000003674084     0.000007192654
       2       -0.000008703719     0.000012708715     0.000024166422
       3       -0.000000726574     0.000016743877    -0.000003897927
       4        0.001856951834     0.003827876322    -0.003342483054
       5        0.000006399426    -0.000002432308    -0.000004234116
       6       -0.000007624261    -0.000003402537    -0.000010881810
       7       -0.001768863118    -0.004424540806     0.004862128097
       8        0.000011684046    -0.000016598762     0.000004482081
       9        0.000045905791     0.000039892675    -0.000025964533
      10       -0.004848122854    -0.004921102211    -0.001531908781
      11       -0.000008417392     0.000019991005    -0.000001085746
      12        0.000001888424     0.000004794379     0.000008935541
      13        0.000000447787    -0.000027037577    -0.000000517874
      14        0.004690853485     0.005466014419     0.000006300531
      15        0.000031034160     0.000007768204    -0.000005274266
      16        0.000016705108    -0.000027666549    -0.000003404930
      17        0.000015197780    -0.000007979656     0.000009598864
      18       -0.000003259320     0.000005662636    -0.000006866881
      19       -0.000000118933    -0.000012441499    -0.000006710580
      20       -0.000041973289     0.000047784428     0.000021246736
      21        0.000006782206    -0.000009708837    -0.000000820432

  **** Optimization is complete! (in 9 steps) ****
    Final optimized geometry and variables:
    Molecular point group: c1

    Geometry (in Angstrom), charge = 0, multiplicity = 1:

    H           -2.054771811728     2.449392749901     2.301354472487
    O           -1.325203325295     1.901420819503     2.049559471176
    C           -1.688160995078     1.107995660507     0.948818246397
    C           -0.494698063193     0.245946774021     0.573662312495
    H           -2.541859099834     0.478351456333     1.195358680081
    H           -1.977013275966     1.733238903300     0.104933887507
    C           -0.795348455858    -0.647350890145    -0.633888287858
    H           -0.227167649297    -0.350979206649     1.441188205752
    H            0.343087695966     0.903392230045     0.375995565453
    C            0.328525292658    -1.610143353764    -1.102040801544
    H           -1.686138156553    -1.234826865262    -0.426750316938
    H           -1.063513443988     0.003542533755    -1.463515143533
    C            1.768396820421    -1.277836854603    -0.674063484640
    H            0.339438770735    -1.617373532197    -2.188790372527
    H            0.096408163035    -2.617395618725    -0.771317836064
    C            2.388614653725    -0.106881295989    -1.440102949143
    H            2.379262003522    -2.159688067312    -0.851694138417
    H            1.819691712573    -1.091151486907     0.393793084055
    H            2.433757527674    -0.324993465844    -2.503763733390
    H            1.821652728100     0.810227053471    -1.319381541046
    H            3.401592103020     0.087373478933    -1.100894328200

  Mulliken Charges: (a.u.)
   Center  Symbol    Alpha    Beta     Spin     Total
       1     H     0.28113  0.28113  0.00000  0.43775
       2     O     4.37217  4.37217  0.00000 -0.74435
       3     C     2.98907  2.98907  0.00000  0.02186
       4     C     3.16432  3.16432  0.00000 -0.32865
       5     H     0.43272  0.43272  0.00000  0.13456
       6     H     0.43297  0.43297  0.00000  0.13405
       7     C     3.16401  3.16401  0.00000 -0.32803
       8     H     0.41469  0.41469  0.00000  0.17061
       9     H     0.41096  0.41096  0.00000  0.17809
      10     C     3.15462  3.15462  0.00000 -0.30924
      11     H     0.42063  0.42063  0.00000  0.15873
      12     H     0.42261  0.42261  0.00000  0.15478
      13     C     3.15717  3.15717  0.00000 -0.31434
      14     H     0.42165  0.42165  0.00000  0.15669
      15     H     0.41955  0.41955  0.00000  0.16090
      16     C     3.24086  3.24086  0.00000 -0.48172
      17     H     0.42089  0.42089  0.00000  0.15822
      18     H     0.41795  0.41795  0.00000  0.16409
      19     H     0.42283  0.42283  0.00000  0.15434
      20     H     0.42021  0.42021  0.00000  0.15958
      21     H     0.41897  0.41897  0.00000  0.16207

   Total alpha = 29.00000, Total beta = 29.00000, Total charge =  0.00000
