  ==> Input File <==

--------------------------------------------------------------------------
set {
	reference rhf
	basis 6-31G*
}

set_num_threads( 4 )
memory 2 gb

molecule MOL {
0 1

H	 -3.408315	 -1.030961	 0.139285
O	 -3.119657	 -0.141268	 -0.011510
C	 -1.777545	 -0.059395	 -0.001477
C	 -0.968376	 -1.172140	 0.208392
C	 -1.212713	 1.192493	 -0.210777
H	 -1.414216	 -2.138822	 0.369833
C	 0.403175	 -1.028375	 0.208105
H	 -1.857870	 2.035453	 -0.370347
C	 0.160646	 1.320219	 -0.208218
H	 1.039518	 -1.878295	 0.368736
C	 0.984182	 0.218375	 0.000000
H	 0.598863	 2.290134	 -0.370364
C	 2.452467	 0.370529	 0.000000
O	 3.228994	 -0.533774	 0.000000
H	 2.809473	 1.405765	 0.000000

	symmetry c1
}
set optking {
	frozen_dihedral = ("
		7 11 13 14
	")
}

ee = optimize('scf')
oeprop('DIPOLE', 'QUADRUPOLE', 'MULLIKEN_CHARGES')
f=open( 'psi4out.xyz', 'w' )
f.write( "15  " )
f.write( str(ee) + "\n" )
f.write( MOL.save_string_xyz() )
f.close()
--------------------------------------------------------------------------

    Molecular point group: c1
  Charge       = 0
  Multiplicity = 1
  Basis Set: 6-31G*
  Basis Set:
  @DF-RHF Final Energy:  -418.28955641364854
    Total Energy =                       -418.2895564136490520
    Molecular point group: c1
  Basis Set: 6-31G*
  Basis Set:
  Basis Set: 6-31G*
  Basis Set:
  @DF-RHF Final Energy:  -418.28915176116823
    Total Energy =                       -418.2891517611684549
  Basis Set: 6-31G*
  Basis Set:
  Basis Set: 6-31G*
  Basis Set:
  @DF-RHF Final Energy:  -418.28960462742299
    Total Energy =                       -418.2896046274232731
  Basis Set: 6-31G*
  Basis Set:
  Basis Set: 6-31G*
  Basis Set:
  @DF-RHF Final Energy:  -418.28962399262929
    Total Energy =                       -418.2896239926294584
  Basis Set: 6-31G*
  Basis Set:
  Charge       = 0
  Multiplicity = 1
  Basis Set: 6-31G*
  Basis Set:

    Orbital Energies (a.u.)
    -----------------------

    Doubly Occupied:

       1A    -20.611008     2A    -20.555977     3A    -11.327996
       4A    -11.323758     5A    -11.260538     6A    -11.256857
       7A    -11.244399     8A    -11.238736     9A    -11.238668
      10A     -1.432123    11A     -1.397110    12A     -1.170565
      13A     -1.041450    14A     -1.038697    15A     -0.888843
      16A     -0.867333    17A     -0.794433    18A     -0.757422
      19A     -0.713646    20A     -0.666396    21A     -0.641161
      22A     -0.628196    23A     -0.608271    24A     -0.608044
      25A     -0.582920    26A     -0.558465    27A     -0.548198
      28A     -0.506392    29A     -0.483884    30A     -0.418568
      31A     -0.357939    32A     -0.326267

  @DF-RHF Final Energy:  -418.28962432170283

   => Energetics <=

    Nuclear Repulsion Energy =            401.3429610933105778
    One-Electron Energy =               -1365.0766440972552118
    Two-Electron Energy =                 545.4440586822416890
    DFT Exchange-Correlation Energy =       0.0000000000000000
    Empirical Dispersion Energy =           0.0000000000000000
    PCM Polarization Energy =               0.0000000000000000
    EFP Energy =                            0.0000000000000000
    Total Energy =                       -418.2896243217029451
    Molecular point group: c1
  Basis Set: 6-31G*
  Basis Set:

  -Total Gradient:
     Atom            X                  Y                   Z
    ------   -----------------  -----------------  -----------------
       1       -0.000006716438     0.000000085707     0.000014685964
       2        0.000003527725     0.000010489153     0.000082080808
       3        0.000000384749    -0.000037677533    -0.000270615651
       4        0.000001168676     0.000007790889     0.000043326511
       5       -0.000001475651     0.000021241088     0.000081908396
       6       -0.000000078861     0.000000921001     0.000005803053
       7       -0.000056347851     0.000357953114     0.001935733780
       8       -0.000001329681    -0.000003376845    -0.000001657517
       9       -0.000005732441     0.000008371036     0.000050658049
      10        0.000001105547     0.000001922219    -0.000013101339
      11        0.000123050647    -0.000518601108    -0.003867232778
      12        0.000001446360    -0.000012381831    -0.000054835791
      13       -0.000082096750     0.000200089042     0.004383555716
      14        0.000038168701    -0.000037137043    -0.002402702739
      15       -0.000015074728     0.000000311111     0.000012393539

  **** Optimization is complete! (in 5 steps) ****
    Final optimized geometry and variables:
    Molecular point group: c1

    Geometry (in Angstrom), charge = 0, multiplicity = 1:

    H           -3.407989494685    -1.030642910983     0.139048970451
    O           -3.119917791802    -0.140604844828    -0.010524934993
    C           -1.777635749463    -0.059601765722    -0.004620070956
    C           -0.968571971717    -1.172199364970     0.206105277526
    C           -1.212799729066     1.192449996227    -0.212430297401
    H           -1.414384901838    -2.137805054372     0.373878547194
    C            0.403067473530    -1.029363843250     0.200577268145
    H           -1.857631709068     2.036362062444    -0.368615455946
    C            0.160545492569     1.320608458506    -0.207262357702
    H            1.039072391988    -1.879894995084     0.359645489321
    C            0.984224126061     0.216242249346    -0.013629884323
    H            0.598484005405     2.291972725365    -0.361213652961
    C            2.452366455282     0.371141194918     0.003690971927
    O            3.229760300715    -0.532289739516     0.023597656047
    H            2.808654509258     1.406206968933    -0.021957003083

  Mulliken Charges: (a.u.)
   Center  Symbol    Alpha    Beta     Spin     Total
       1     H     0.26850  0.26850  0.00000  0.46300
       2     O     4.37296  4.37296  0.00000 -0.74592
       3     C     2.78519  2.78519  0.00000  0.42961
       4     C     3.14738  3.14738  0.00000 -0.29475
       5     C     3.12838  3.12838  0.00000 -0.25676
       6     H     0.39793  0.39793  0.00000  0.20413
       7     C     3.07808  3.07808  0.00000 -0.15617
       8     H     0.38646  0.38646  0.00000  0.22709
       9     C     3.09205  3.09205  0.00000 -0.18410
      10     H     0.37491  0.37491  0.00000  0.25018
      11     C     3.06805  3.06805  0.00000 -0.13610
      12     H     0.38986  0.38986  0.00000  0.22028
      13     C     2.83139  2.83139  0.00000  0.33723
      14     O     4.25407  4.25407  0.00000 -0.50814
      15     H     0.42479  0.42479  0.00000  0.15042

   Total alpha = 32.00000, Total beta = 32.00000, Total charge =  0.00000
