  ==> Input File <==

--------------------------------------------------------------------------
set {
	reference rhf
	basis 6-31G*
}

set_num_threads( 4 )
memory 2 gb

molecule MOL {
0 1

H	 1.907351	 -1.008961	 1.081101
C	 1.951159	 -0.223429	 0.317018
C	 0.692068	 0.589600	 0.160137
O	 2.943148	 -0.062451	 -0.317153
C	 -0.558097	 -0.297372	 0.091132
H	 0.791645	 1.202255	 -0.728243
H	 0.616171	 1.253469	 1.020572
C	 -1.850991	 0.512573	 -0.019058
H	 -0.476753	 -0.965681	 -0.762987
H	 -0.604799	 -0.930658	 0.975228
C	 -3.096943	 -0.368295	 -0.099594
H	 -1.800724	 1.150330	 -0.898172
H	 -1.931651	 1.177355	 0.838044
H	 -3.060452	 -1.020287	 -0.967456
H	 -3.996858	 0.233488	 -0.175704
H	 -3.191959	 -0.995686	 0.782074

	symmetry c1
}
set optking {
	frozen_dihedral = ("
		4 2 3 6
	")
}

ee = optimize('scf')
oeprop('DIPOLE', 'QUADRUPOLE', 'MULLIKEN_CHARGES')
f=open( 'psi4out.xyz', 'w' )
f.write( "16  " )
f.write( str(ee) + "\n" )
f.write( MOL.save_string_xyz() )
f.close()
--------------------------------------------------------------------------

    Molecular point group: c1
  Charge       = 0
  Multiplicity = 1
  Basis Set: 6-31G*
  Basis Set:
  @DF-RHF Final Energy:  -270.01982715786130
    Total Energy =                       -270.0198271578613003
    Molecular point group: c1
  Basis Set: 6-31G*
  Basis Set:
  Basis Set: 6-31G*
  Basis Set:
  @DF-RHF Final Energy:  -270.01958869021223
    Total Energy =                       -270.0195886902120037
  Basis Set: 6-31G*
  Basis Set:
  Basis Set: 6-31G*
  Basis Set:
  @DF-RHF Final Energy:  -270.01984562048688
    Total Energy =                       -270.0198456204869899
  Basis Set: 6-31G*
  Basis Set:
  Basis Set: 6-31G*
  Basis Set:
  @DF-RHF Final Energy:  -270.01983516675500
    Total Energy =                       -270.0198351667547740
  Basis Set: 6-31G*
  Basis Set:
  Basis Set: 6-31G*
  Basis Set:
  @DF-RHF Final Energy:  -270.01984666406935
    Total Energy =                       -270.0198466640694619
  Basis Set: 6-31G*
  Basis Set:
  Basis Set: 6-31G*
  Basis Set:
  @DF-RHF Final Energy:  -270.01984788364882
    Total Energy =                       -270.0198478836488221
  Basis Set: 6-31G*
  Basis Set:
  Charge       = 0
  Multiplicity = 1
  Basis Set: 6-31G*
  Basis Set:

    Orbital Energies (a.u.)
    -----------------------

    Doubly Occupied:

       1A    -20.562346     2A    -11.326778     3A    -11.236336
       4A    -11.235427     5A    -11.229466     6A    -11.218617
       7A     -1.402299     8A     -1.096759     9A     -1.019003
      10A     -0.905812    11A     -0.812067    12A     -0.794609
      13A     -0.676079    14A     -0.648643    15A     -0.630669
      16A     -0.602923    17A     -0.583967    18A     -0.548956
      19A     -0.529556    20A     -0.506147    21A     -0.488057
      22A     -0.483070    23A     -0.478628    24A     -0.409207

  @DF-RHF Final Energy:  -270.01984800608761

   => Energetics <=

    Nuclear Repulsion Energy =            228.5612536413922271
    One-Electron Energy =                -818.3113600588003465
    Two-Electron Energy =                 319.7302584113202784
    DFT Exchange-Correlation Energy =       0.0000000000000000
    Empirical Dispersion Energy =           0.0000000000000000
    PCM Polarization Energy =               0.0000000000000000
    EFP Energy =                            0.0000000000000000
    Total Energy =                       -270.0198480060878410
    Molecular point group: c1
  Basis Set: 6-31G*
  Basis Set:

  -Total Gradient:
     Atom            X                  Y                   Z
    ------   -----------------  -----------------  -----------------
       1        0.000013455092    -0.000028590176     0.000026324073
       2       -0.000291403248    -0.000515776067    -0.000607833152
       3        0.000338437651     0.000608307554     0.000561964296
       4        0.000197078364     0.000309460989     0.000352790228
       5       -0.000014148080     0.000003639929    -0.000075908915
       6       -0.000215435304    -0.000370771818    -0.000267378386
       7        0.000011467111     0.000012347414     0.000002578419
       8       -0.000011702942    -0.000021580616     0.000023277660
       9       -0.000018830784    -0.000029108539    -0.000005162190
      10        0.000008591618     0.000032942230    -0.000009904611
      11       -0.000016421971     0.000007418088    -0.000012993371
      12        0.000001110240    -0.000006660077     0.000005961103
      13        0.000005128778     0.000001042834     0.000003769735
      14        0.000002636701    -0.000004100546     0.000004861351
      15       -0.000008065179    -0.000004581944    -0.000004673466
      16       -0.000001898052     0.000006010746     0.000002327227

  **** Optimization is complete! (in 7 steps) ****
    Final optimized geometry and variables:
    Molecular point group: c1

    Geometry (in Angstrom), charge = 0, multiplicity = 1:

    H            1.910724105330    -1.025866849575     1.066840320371
    C            1.945182698938    -0.243138801971     0.299485674111
    C            0.679936913201     0.561647260424     0.142425049798
    O            2.937496172826    -0.069102093360    -0.330634173287
    C           -0.571306625677    -0.321226353607     0.070409675269
    H            0.780352444181     1.179822902141    -0.742137909811
    H            0.607392363495     1.224315283487     1.004480502904
    C           -1.862541536576     0.491260499622    -0.038667519909
    H           -0.492727966498    -0.989738245396    -0.784316076913
    H           -0.619817452340    -0.955553651560     0.953569742779
    C           -3.110686770283    -0.386621004586    -0.116039967229
    H           -1.812354924768     1.127873786671    -0.918669639849
    H           -1.940290450271     1.157692086540     0.817516600700
    H           -3.076280468079    -1.041781162000    -0.981615305129
    H           -4.009038422218     0.217233925227    -0.193974561655
    H           -3.207177103520    -1.010860736717     0.767674913248

  Mulliken Charges: (a.u.)
   Center  Symbol    Alpha    Beta     Spin     Total
       1     H     0.43188  0.43188  0.00000  0.13625
       2     C     2.82912  2.82912  0.00000  0.34175
       3     C     3.20908  3.20908  0.00000 -0.41816
       4     O     4.23799  4.23799  0.00000 -0.47599
       5     C     3.16422  3.16422  0.00000 -0.32844
       6     H     0.39896  0.39896  0.00000  0.20209
       7     H     0.40746  0.40746  0.00000  0.18508
       8     C     3.15159  3.15159  0.00000 -0.30318
       9     H     0.41411  0.41411  0.00000  0.17179
      10     H     0.41955  0.41955  0.00000  0.16091
      11     C     3.24041  3.24041  0.00000 -0.48081
      12     H     0.41848  0.41848  0.00000  0.16304
      13     H     0.42080  0.42080  0.00000  0.15840
      14     H     0.41945  0.41945  0.00000  0.16109
      15     H     0.41637  0.41637  0.00000  0.16727
      16     H     0.42054  0.42054  0.00000  0.15891

   Total alpha = 24.00000, Total beta = 24.00000, Total charge = -0.00000
