                              Psi4 1.0.54 Driver

  ==> Input File <==

--------------------------------------------------------------------------
set {
	reference rhf
	basis cc-pvtz
}

set_num_threads( 4 )
memory 2 gb

molecule MOL {
0 1

O	 -0.694481	 1.313155	 -0.204815
C	 -0.862519	 0.151932	 -0.046791
C	 -2.171428	 -0.477048	 0.339095
O	 0.085519	 -0.757083	 -0.192238
H	 -2.467997	 -1.191667	 -0.417688
H	 -2.923379	 0.287970	 0.444097
H	 -2.053854	 -1.015120	 1.270901
C	 1.392036	 -0.330828	 -0.560749
C	 1.358815	 0.969693	 -1.336274
H	 1.873028	 -1.110850	 -1.129984
H	 1.913736	 -0.206574	 0.376343
H	 2.372122	 1.296529	 -1.540822
H	 0.845417	 0.844134	 -2.279693
H	 0.860374	 1.743356	 -0.764790

	symmetry c1
}
set optking {
	frozen_dihedral = ("
		10 8 4 2
	")
}

ee,wfn = optimize('scf', return_wfn=True)
oeprop( wfn, 'DIPOLE', 'QUADRUPOLE', 'MULLIKEN_CHARGES')
f=open( 'psi4out.xyz', 'w' )
f.write( "14  " )
f.write( str(ee) + "\n" )
f.write( MOL.save_string_xyz() )
f.close()
--------------------------------------------------------------------------

    Molecular point group: c1
  Charge       = 0
  Multiplicity = 1
  Basis Set: CC-PVTZ
  Basis Set:
  @DF-RHF Final Energy:  -305.95529118574274
    Total Energy =                       -305.9552911857429081
    Molecular point group: c1
  Basis Set: CC-PVTZ
  Basis Set:
  Basis Set: CC-PVTZ
  Basis Set:
  @DF-RHF Final Energy:  -305.97198803178458
    Total Energy =                       -305.9719880317845764
  Basis Set: CC-PVTZ
  Basis Set:
  Basis Set: CC-PVTZ
  Basis Set:
  @DF-RHF Final Energy:  -305.98120214078483
    Total Energy =                       -305.9812021407846032
  Basis Set: CC-PVTZ
  Basis Set:
  Basis Set: CC-PVTZ
  Basis Set:
  @DF-RHF Final Energy:  -305.98198905864967
    Total Energy =                       -305.9819890586497309
  Basis Set: CC-PVTZ
  Basis Set:
  @DF-RHF Final Energy:  -305.97334792355048
    Total Energy =                       -305.9733479235507048
  @DF-RHF Final Energy:  -305.98146060222422
    Total Energy =                       -305.9814606022243311
  @DF-RHF Final Energy:  -305.98258552313092
    Total Energy =                       -305.9825855231310925
  @DF-RHF Final Energy:  -305.98265448379965
    Total Energy =                       -305.9826544837995357
  @DF-RHF Final Energy:  -305.98265910907992
    Total Energy =                       -305.9826591090803163
  Basis Set: CC-PVTZ
  Basis Set:
  @DF-RHF Final Energy:  -305.98266143511512
    Total Energy =                       -305.9826614351150624
  Basis Set: CC-PVTZ
  Basis Set:
  Basis Set: CC-PVTZ
  Basis Set:
  @DF-RHF Final Energy:  -305.98266254053897
    Total Energy =                       -305.9826625405390246
  Basis Set: CC-PVTZ
  Basis Set:
  Basis Set: CC-PVTZ
  Basis Set:
  @DF-RHF Final Energy:  -305.98266287010790
    Total Energy =                       -305.9826628701080722
  Basis Set: CC-PVTZ
  Basis Set:
  Charge       = 0
  Multiplicity = 1
  Basis Set: CC-PVTZ
  Basis Set:

    Orbital Energies (a.u.)
    -----------------------

    Doubly Occupied:

       1A    -20.591834     2A    -20.530391     3A    -11.367874
       4A    -11.289007     5A    -11.229644     6A    -11.214180
       7A     -1.465564     8A     -1.365229     9A     -1.055729
      10A     -0.997595    11A     -0.892368    12A     -0.751222
      13A     -0.696209    14A     -0.683589    15A     -0.669932
      16A     -0.615888    17A     -0.587636    18A     -0.570379
      19A     -0.549014    20A     -0.533341    21A     -0.514407
      22A     -0.496887    23A     -0.451874    24A     -0.434225

  @DF-RHF Final Energy:  -305.98266368334657

   => Energetics <=

    Nuclear Repulsion Energy =            249.7110498542076868
    One-Electron Energy =                -912.2793892829115521
    Two-Electron Energy =                 356.5856757453573209
    DFT Exchange-Correlation Energy =       0.0000000000000000
    Empirical Dispersion Energy =           0.0000000000000000
    PCM Polarization Energy =               0.0000000000000000
    EFP Energy =                            0.0000000000000000
    Total Energy =                       -305.9826636833465727
    Molecular point group: c1
  Basis Set: CC-PVTZ
  Basis Set:

  -Total Gradient:
     Atom            X                  Y                   Z
    ------   -----------------  -----------------  -----------------
       1       -0.000017201611     0.000044408046     0.000004451573
       2       -0.002054106491    -0.003055170734    -0.004207550751
       3        0.000007724458    -0.000007401084     0.000011135316
       4        0.002357291916     0.004604193054     0.005667150001
       5        0.000004690972    -0.000000629124    -0.000002369810
       6       -0.000008337115    -0.000000176754    -0.000001670545
       7       -0.000000047193     0.000010938170    -0.000013990344
       8        0.003004065807    -0.001294346099     0.003362760883
       9       -0.000040827472    -0.000000311201     0.000018194821
      10       -0.003350777705    -0.000360280864    -0.004743078542
      11        0.000025113069     0.000055888359    -0.000059927832
      12        0.000029514930     0.000006400351    -0.000011500817
      13        0.000019013531     0.000013612046     0.000002256434
      14        0.000023882902    -0.000017124166    -0.000025860389

  **** Optimization is complete! (in 13 steps) ****
    Final optimized geometry and variables:
    Molecular point group: c1

    Geometry (in Angstrom), charge = 0, multiplicity = 1:

    O           -0.938954785595     1.061123396481     0.122523584110
    C           -0.675736152656    -0.028634180664     0.500256866148
    C           -1.639139754190    -0.926168913754     1.227700097811
    O            0.499856548856    -0.614068965700     0.367821318503
    H           -1.815101662588    -1.818128056812     0.639767739133
    H           -2.566971230386    -0.402647377082     1.391668219386
    H           -1.210010742826    -1.234840666627     2.171714379677
    C            1.560754179071    -0.122804828081    -0.450621827702
    C            1.172660491015     0.618704247744    -1.719253624483
    H            2.077512217780    -1.022619230077    -0.749007867571
    H            2.211402924744     0.479666907755     0.168225956594
    H            2.070297893891     0.716095388782    -2.320982883308
    H            0.448368692386     0.053518572151    -2.293448105241
    H            0.769840218414     1.597963663625    -1.528219146200

  Mulliken Charges: (a.u.)
   Center  Symbol    Alpha    Beta     Spin     Total
       1     O     4.19816  4.19816  0.00000 -0.39632
       2     C     2.80255  2.80255  0.00000  0.39490
       3     C     3.13800  3.13800  0.00000 -0.27600
       4     O     4.15615  4.15615  0.00000 -0.31230
       5     H     0.44750  0.44750  0.00000  0.10499
       6     H     0.43878  0.43878  0.00000  0.12243
       7     H     0.44467  0.44467  0.00000  0.11067
       8     C     2.97867  2.97867  0.00000  0.04266
       9     C     3.15490  3.15490  0.00000 -0.30979
      10     H     0.44955  0.44955  0.00000  0.10089
      11     H     0.45463  0.45463  0.00000  0.09073
      12     H     0.45137  0.45137  0.00000  0.09727
      13     H     0.45182  0.45182  0.00000  0.09636
      14     H     0.43324  0.43324  0.00000  0.13352

   Total alpha = 24.00000, Total beta = 24.00000, Total charge = -0.00000

*** Psi4 exiting successfully. Buy a developer a beer!
