  ==> Input File <==

--------------------------------------------------------------------------
set {
	reference rhf
	basis 6-31G*
}

set_num_threads( 4 )
memory 2 gb

molecule MOL {
0 1

O	 -1.276010	 1.052711	 -0.768302
C	 -1.204840	 0.067374	 -0.106123
C	 -2.388195	 -0.672128	 0.458071
O	 -0.067104	 -0.527208	 0.221609
H	 -2.388023	 -1.694060	 0.097175
H	 -3.300579	 -0.174919	 0.164318
H	 -2.315377	 -0.706351	 1.539059
C	 1.170111	 0.034140	 -0.238951
C	 1.074023	 0.068392	 -1.753937
C	 2.334073	 -0.804703	 0.265211
H	 1.245734	 1.037430	 0.153729
H	 0.223960	 0.662121	 -2.070365
H	 1.973291	 0.505154	 -2.175704
H	 0.959106	 -0.933455	 -2.153624
H	 3.272241	 -0.398288	 -0.099048
H	 2.364924	 -0.807567	 1.347346
H	 2.244900	 -1.827455	 -0.086975

	symmetry c1
}
set optking {
	frozen_dihedral = ("
		11 8 4 2
	")
}

ee = optimize('scf')
oeprop('DIPOLE', 'QUADRUPOLE', 'MULLIKEN_CHARGES')
f=open( 'psi4out.xyz', 'w' )
f.write( "17  " )
f.write( str(ee) + "\n" )
f.write( MOL.save_string_xyz() )
f.close()
--------------------------------------------------------------------------

    Molecular point group: c1
  Charge       = 0
  Multiplicity = 1
  Basis Set: 6-31G*
  Basis Set:
  @DF-RHF Final Energy:  -344.90506607829434
    Total Energy =                       -344.9050660782942828
    Molecular point group: c1
  Basis Set: 6-31G*
  Basis Set:
  Basis Set: 6-31G*
  Basis Set:
  @DF-RHF Final Energy:  -344.91177761359052
    Total Energy =                       -344.9117776135902886
  Basis Set: 6-31G*
  Basis Set:
  Basis Set: 6-31G*
  Basis Set:
  @DF-RHF Final Energy:  -344.91255952174851
    Total Energy =                       -344.9125595217485056
  Basis Set: 6-31G*
  Basis Set:
  Basis Set: 6-31G*
  Basis Set:
  @DF-RHF Final Energy:  -344.91031317817766
    Total Energy =                       -344.9103131781774891
  Basis Set: 6-31G*
  Basis Set:
  Basis Set: 6-31G*
  Basis Set:
  @DF-RHF Final Energy:  -344.91271252944870
    Total Energy =                       -344.9127125294487541
  Basis Set: 6-31G*
  Basis Set:
  Basis Set: 6-31G*
  Basis Set:
  @DF-RHF Final Energy:  -344.91273172879568
    Total Energy =                       -344.9127317287952792
  Basis Set: 6-31G*
  Basis Set:
  Charge       = 0
  Multiplicity = 1
  Basis Set: 6-31G*
  Basis Set:

    Orbital Energies (a.u.)
    -----------------------

    Doubly Occupied:

       1A    -20.598775     2A    -20.542826     3A    -11.374526
       4A    -11.292567     5A    -11.232072     6A    -11.218996
       7A    -11.213841     8A     -1.464605     9A     -1.361697
      10A     -1.078792    11A     -1.004734    12A     -0.946944
      13A     -0.851068    14A     -0.759380    15A     -0.691482
      16A     -0.674287    17A     -0.658072    18A     -0.615111
      19A     -0.585299    20A     -0.578359    21A     -0.556201
      22A     -0.549618    23A     -0.539615    24A     -0.519087
      25A     -0.501168    26A     -0.483227    27A     -0.448078
      28A     -0.433363

  @DF-RHF Final Energy:  -344.91273268685495

   => Energetics <=

    Nuclear Repulsion Energy =            323.7574586908843912
    One-Electron Energy =               -1111.7928008784947451
    Two-Electron Energy =                 443.1226095007555159
    DFT Exchange-Correlation Energy =       0.0000000000000000
    Empirical Dispersion Energy =           0.0000000000000000
    PCM Polarization Energy =               0.0000000000000000
    EFP Energy =                            0.0000000000000000
    Total Energy =                       -344.9127326868548380
    Molecular point group: c1
  Basis Set: 6-31G*
  Basis Set:

  -Total Gradient:
     Atom            X                  Y                   Z
    ------   -----------------  -----------------  -----------------
       1        0.000026958590     0.000001342467     0.000027022623
       2       -0.000450758119    -0.002486428782    -0.003568294874
       3       -0.000017702374    -0.000042437953    -0.000090859689
       4        0.001150818503     0.003222283130     0.006102218006
       5        0.000012906712     0.000005612039     0.000041558146
       6       -0.000003379085     0.000005872224     0.000013727605
       7       -0.000008885698     0.000030223300     0.000024795927
       8       -0.003170415822     0.000959330673    -0.006380802826
       9       -0.000012543451     0.000019940664    -0.000007092295
      10        0.000022818419     0.000022039889     0.000001851612
      11        0.002455363642    -0.001720080949     0.003830735275
      12        0.000007429888    -0.000011528165     0.000007261184
      13       -0.000010079460    -0.000007102904     0.000012088331
      14       -0.000002762669    -0.000005833933    -0.000009328706
      15        0.000015047597    -0.000008034965     0.000002373072
      16       -0.000004486246     0.000002662658    -0.000003063060
      17       -0.000010330424     0.000012140605    -0.000004190330

  **** Optimization is complete! (in 7 steps) ****
    Final optimized geometry and variables:
    Molecular point group: c1

    Geometry (in Angstrom), charge = 0, multiplicity = 1:

    O           -1.287664844146     1.232194093833    -0.337609986968
    C           -1.165074110104     0.191635621157     0.224404017917
    C           -2.306565891308    -0.624707564924     0.769861029652
    O           -0.000854775209    -0.389250558742     0.473502552554
    H           -2.306690990032    -1.606839405444     0.311363170990
    H           -3.240615968333    -0.121529719918     0.569028489006
    H           -2.180441744834    -0.761485357183     1.837683620406
    C            1.211893166856     0.162362612016    -0.060095911293
    C            1.228412186624     0.148175746424    -1.580947507968
    C            2.319235483658    -0.696067313469     0.532174586821
    H            1.312611744821     1.168408001016     0.326340125947
    H            0.468157807326     0.792136769861    -1.996557768067
    H            2.196878291517     0.489052380172    -1.932781944379
    H            1.074991756177    -0.863249430972    -1.945346466284
    H            3.289568909309    -0.315357173699     0.231208180472
    H            2.268871481962    -0.689947469997     1.614872405672
    H            2.231595514316    -1.722373542491     0.192044188521

  Mulliken Charges: (a.u.)
   Center  Symbol    Alpha    Beta     Spin     Total
       1     O     4.28539  4.28539  0.00000 -0.57079
       2     C     2.61568  2.61568  0.00000  0.76864
       3     C     3.28112  3.28112  0.00000 -0.56225
       4     O     4.31646  4.31646  0.00000 -0.63292
       5     H     0.40155  0.40155  0.00000  0.19691
       6     H     0.39749  0.39749  0.00000  0.20501
       7     H     0.40046  0.40046  0.00000  0.19908
       8     C     2.91962  2.91962  0.00000  0.16077
       9     C     3.25973  3.25973  0.00000 -0.51945
      10     C     3.24277  3.24277  0.00000 -0.48554
      11     H     0.40836  0.40836  0.00000  0.18327
      12     H     0.39190  0.39190  0.00000  0.21619
      13     H     0.41770  0.41770  0.00000  0.16460
      14     H     0.41807  0.41807  0.00000  0.16385
      15     H     0.41792  0.41792  0.00000  0.16415
      16     H     0.41121  0.41121  0.00000  0.17757
      17     H     0.41455  0.41455  0.00000  0.17090

   Total alpha = 28.00000, Total beta = 28.00000, Total charge = -0.00000
