                              Psi4 1.0.54 Driver

  ==> Input File <==

--------------------------------------------------------------------------
set {
	reference rhf
	basis cc-pvtz
}

set_num_threads( 4 )
memory 2 gb

molecule MOL {
0 1

H	 1.651322	 -0.822465	 0.000000
O	 0.729993	 -1.034364	 0.000000
C	 0.037305	 0.100061	 0.000000
C	 0.150110	 0.827570	 1.306171
O	 -0.583880	 0.462330	 -0.937916
H	 -0.211738	 0.193548	 2.105265
H	 -0.424214	 1.738077	 1.263114
H	 1.190155	 1.049553	 1.507417

	symmetry c1
}
set optking {
	frozen_dihedral = ("
		4 3 2 1
	")
}

ee,wfn = optimize('scf', return_wfn=True)
oeprop( wfn, 'DIPOLE', 'QUADRUPOLE', 'MULLIKEN_CHARGES')
f=open( 'psi4out.xyz', 'w' )
f.write( "8  " )
f.write( str(ee) + "\n" )
f.write( MOL.save_string_xyz() )
f.close()
--------------------------------------------------------------------------

    Molecular point group: c1
  Charge       = 0
  Multiplicity = 1
  Basis Set: CC-PVTZ
  Basis Set:
  @DF-RHF Final Energy:  -227.88353997155053
    Total Energy =                       -227.8835399715504764
    Molecular point group: c1
  Basis Set: CC-PVTZ
  Basis Set:
  Basis Set: CC-PVTZ
  Basis Set:
  @DF-RHF Final Energy:  -227.88375532641214
    Total Energy =                       -227.8837553264121425
  Basis Set: CC-PVTZ
  Basis Set:
  Basis Set: CC-PVTZ
  Basis Set:
  @DF-RHF Final Energy:  -227.88512002443883
    Total Energy =                       -227.8851200244389190
  Basis Set: CC-PVTZ
  Basis Set:
  Basis Set: CC-PVTZ
  Basis Set:
  @DF-RHF Final Energy:  -227.88546910103912
    Total Energy =                       -227.8854691010390638
  Basis Set: CC-PVTZ
  Basis Set:
  Basis Set: CC-PVTZ
  Basis Set:
  @DF-RHF Final Energy:  -227.88548810313449
    Total Energy =                       -227.8854881031345769
  Basis Set: CC-PVTZ
  Basis Set:
  Basis Set: CC-PVTZ
  Basis Set:
  @DF-RHF Final Energy:  -227.88553289837552
    Total Energy =                       -227.8855328983754589
  Basis Set: CC-PVTZ
  Basis Set:
  Basis Set: CC-PVTZ
  Basis Set:
  @DF-RHF Final Energy:  -227.88553786435938
    Total Energy =                       -227.8855378643594065
  Basis Set: CC-PVTZ
  Basis Set:
  Charge       = 0
  Multiplicity = 1
  Basis Set: CC-PVTZ
  Basis Set:

    Orbital Energies (a.u.)
    -----------------------

    Doubly Occupied:

       1A    -20.592065     2A    -20.550261     3A    -11.378676
       4A    -11.244154     5A     -1.466666     6A     -1.374516
       7A     -1.024547     8A     -0.832619     9A     -0.714980
      10A     -0.670986    11A     -0.665416    12A     -0.596714
      13A     -0.577622    14A     -0.521812    15A     -0.500095
      16A     -0.453255

  @DF-RHF Final Energy:  -227.88554084620853

   => Energetics <=

    Nuclear Repulsion Energy =            122.1217588010667754
    One-Electron Energy =                -553.6858317261180673
    Two-Electron Energy =                 203.6785320788426930
    DFT Exchange-Correlation Energy =       0.0000000000000000
    Empirical Dispersion Energy =           0.0000000000000000
    PCM Polarization Energy =               0.0000000000000000
    EFP Energy =                            0.0000000000000000
    Total Energy =                       -227.8855408462085848
    Molecular point group: c1
  Basis Set: CC-PVTZ
  Basis Set:

  -Total Gradient:
     Atom            X                  Y                   Z
    ------   -----------------  -----------------  -----------------
       1       -0.000001358619     0.000154966852    -0.004474204930
       2       -0.000891601377    -0.000912327515     0.006062037967
       3        0.002977594628     0.002157860892    -0.002446558608
       4       -0.002229467198    -0.001434201790     0.000883372616
       5        0.000106536783     0.000022540665    -0.000072106111
       6       -0.000014868666    -0.000045012998     0.000043841815
       7       -0.000020055611     0.000047225026     0.000005269557
       8        0.000073220062     0.000008948870    -0.000001652305

  **** Optimization is complete! (in 8 steps) ****
    Final optimized geometry and variables:
    Molecular point group: c1

    Geometry (in Angstrom), charge = 0, multiplicity = 1:

    H            1.583418963133    -0.950888451687    -0.138413942655
    O            0.653533347180    -1.105910146767    -0.134444633111
    C           -0.056857983101     0.048003260941    -0.094671778593
    C            0.032178362844     0.780354199290     1.215682758398
    O           -0.745287818906     0.365946255898    -0.989410258575
    H           -0.377097737520     0.144827348206     1.991203229554
    H           -0.521686409830     1.703521257187     1.162455768347
    H            1.065431245471     0.983193405120     1.473461948141

  Mulliken Charges: (a.u.)
   Center  Symbol    Alpha    Beta     Spin     Total
       1     H     0.38869  0.38869  0.00000  0.22261
       2     O     4.16662  4.16662  0.00000 -0.33324
       3     C     2.80858  2.80858  0.00000  0.38283
       4     C     3.13975  3.13975  0.00000 -0.27951
       5     O     4.16131  4.16131  0.00000 -0.32262
       6     H     0.44169  0.44169  0.00000  0.11661
       7     H     0.43728  0.43728  0.00000  0.12543
       8     H     0.45607  0.45607  0.00000  0.08787

   Total alpha = 16.00000, Total beta = 16.00000, Total charge =  0.00000

*** Psi4 exiting successfully. Buy a developer a beer!
