  ==> Input File <==

--------------------------------------------------------------------------
set {
	reference rhf
	basis 6-31G*
}

set_num_threads( 4 )
memory 2 gb

molecule MOL {
0 1

H	 -2.499100	 -0.730091	 -0.745082
O	 -2.347518	 -0.290803	 0.079804
C	 -1.184022	 0.487508	 -0.006784
C	 0.062599	 -0.378592	 0.031606
H	 -1.176523	 1.099369	 -0.904519
H	 -1.187323	 1.153111	 0.844927
O	 1.114232	 0.401823	 0.505739
H	 0.286381	 -0.757526	 -0.967549
H	 -0.110078	 -1.239073	 0.675297
C	 2.325703	 -0.274025	 0.627014
H	 2.665628	 -0.656846	 -0.333470
H	 3.056084	 0.429354	 1.002119
H	 2.247870	 -1.107024	 1.322604

	symmetry c1
}
set optking {
	frozen_dihedral = ("
		8 4 3 5
	")
}

ee = optimize('scf')
oeprop('DIPOLE', 'QUADRUPOLE', 'MULLIKEN_CHARGES')
f=open( 'psi4out.xyz', 'w' )
f.write( "13  " )
f.write( str(ee) + "\n" )
f.write( MOL.save_string_xyz() )
f.close()
--------------------------------------------------------------------------

    Molecular point group: c1
  Charge       = 0
  Multiplicity = 1
  Basis Set: 6-31G*
  Basis Set:
  @DF-RHF Final Energy:  -267.94800035950254
    Total Energy =                       -267.9480003595026005
    Molecular point group: c1
  Basis Set: 6-31G*
  Basis Set:
  Basis Set: 6-31G*
  Basis Set:
  @DF-RHF Final Energy:  -267.94835474684919
    Total Energy =                       -267.9483547468489633
  Basis Set: 6-31G*
  Basis Set:
  Basis Set: 6-31G*
  Basis Set:
  @DF-RHF Final Energy:  -267.94844332112609
    Total Energy =                       -267.9484433211262058
  Basis Set: 6-31G*
  Basis Set:
  Basis Set: 6-31G*
  Basis Set:
  @DF-RHF Final Energy:  -267.94844548647148
    Total Energy =                       -267.9484454864715417
  Basis Set: 6-31G*
  Basis Set:
  Charge       = 0
  Multiplicity = 1
  Basis Set: 6-31G*
  Basis Set:

    Orbital Energies (a.u.)
    -----------------------

    Doubly Occupied:

       1A    -20.560689     2A    -20.558587     3A    -11.270241
       4A    -11.269194     5A    -11.269126     6A     -1.386643
       7A     -1.363117     8A     -1.017278     9A     -0.912010
      10A     -0.841469    11A     -0.708806    12A     -0.670006
      13A     -0.661218    14A     -0.640864    15A     -0.584537
      16A     -0.572039    17A     -0.547427    18A     -0.488322
      19A     -0.481364    20A     -0.437869    21A     -0.421076

  @DF-RHF Final Energy:  -267.94844574218394

   => Energetics <=

    Nuclear Repulsion Energy =            190.0984339337338724
    One-Electron Energy =                -742.7699941741976772
    Two-Electron Energy =                 284.7231144982799833
    DFT Exchange-Correlation Energy =       0.0000000000000000
    Empirical Dispersion Energy =           0.0000000000000000
    PCM Polarization Energy =               0.0000000000000000
    EFP Energy =                            0.0000000000000000
    Total Energy =                       -267.9484457421838215
    Molecular point group: c1
  Basis Set: 6-31G*
  Basis Set:

  -Total Gradient:
     Atom            X                  Y                   Z
    ------   -----------------  -----------------  -----------------
       1        0.000009905913    -0.000004288509    -0.000007860934
       2       -0.000005986490     0.000014495808     0.000022579658
       3        0.003551934019     0.005279443243     0.002721393248
       4       -0.003989388851    -0.005647835577     0.000424758835
       5       -0.002300492003    -0.003435677156    -0.002349164270
       6       -0.000011497088    -0.000005284576    -0.000004952195
       7        0.000002417030     0.000023418188     0.000005582905
       8        0.002742234518     0.003792714382    -0.000789940398
       9        0.000008159813    -0.000003228753    -0.000015889570
      10       -0.000001889065    -0.000019421446    -0.000012825581
      11        0.000003005134    -0.000000215302     0.000001935480
      12       -0.000012648290     0.000005519516     0.000001580494
      13        0.000004245358     0.000000360180     0.000002802331

  **** Optimization is complete! (in 5 steps) ****
    Final optimized geometry and variables:
    Molecular point group: c1

    Geometry (in Angstrom), charge = 0, multiplicity = 1:

    H           -2.473159653974    -0.658393124433    -1.051346321249
    O           -2.333133860970    -0.254910079745    -0.206598927033
    C           -1.155562669033     0.512975558355    -0.235333503216
    C            0.083926425809    -0.368266681265    -0.162618556929
    H           -1.134302925784     1.121793665473    -1.134455908016
    H           -1.178293984130     1.161124254871     0.627885552071
    O            1.141643255589     0.424120714759     0.289325007820
    H            0.334946285271    -0.764819855883    -1.147246991798
    H           -0.101881829155    -1.197927256653     0.514894427396
    C            2.362722008908    -0.239308364875     0.371422659396
    H            2.682358573933    -0.607647324876    -0.601817740483
    H            3.095035512093     0.467839143816     0.735787551889
    H            2.312381544601    -1.081085178509     1.059257525065

  Mulliken Charges: (a.u.)
   Center  Symbol    Alpha    Beta     Spin     Total
       1     H     0.28185  0.28185  0.00000  0.43630
       2     O     4.37148  4.37148  0.00000 -0.74295
       3     C     3.00586  3.00586  0.00000 -0.01172
       4     C     2.99930  2.99930  0.00000  0.00139
       5     H     0.42472  0.42472  0.00000  0.15055
       6     H     0.40382  0.40382  0.00000  0.19235
       7     O     4.30809  4.30809  0.00000 -0.61619
       8     H     0.43573  0.43573  0.00000  0.12854
       9     H     0.42025  0.42025  0.00000  0.15951
      10     C     3.07995  3.07995  0.00000 -0.15989
      11     H     0.43000  0.43000  0.00000  0.14000
      12     H     0.41086  0.41086  0.00000  0.17827
      13     H     0.42808  0.42808  0.00000  0.14384

   Total alpha = 21.00000, Total beta = 21.00000, Total charge = -0.00000
