                              Psi4 1.0.54 Driver

  ==> Input File <==

--------------------------------------------------------------------------
set {
	reference rhf
	basis cc-pvtz
}

set_num_threads( 4 )
memory 2 gb

molecule MOL {
0 1

O	 -1.278239	 1.034789	 -0.784693
C	 -1.204115	 0.062668	 -0.112312
C	 -2.386398	 -0.667698	 0.460323
O	 -0.068058	 -0.518372	 0.226882
H	 -2.382952	 -1.693172	 0.114333
H	 -3.296656	 -0.175702	 0.158400
H	 -2.312537	 -0.685191	 1.540100
C	 1.169086	 0.037484	 -0.230612
C	 1.569823	 -0.766879	 -1.451072
C	 2.201172	 -0.016693	 0.881355
H	 0.988651	 1.065228	 -0.506789
H	 0.806639	 -0.706801	 -2.216376
H	 2.496458	 -0.382979	 -1.860561
H	 1.714647	 -1.809289	 -1.193498
H	 3.142155	 0.392643	 0.532793
H	 1.876752	 0.561945	 1.734923
H	 2.369266	 -1.041021	 1.194054

	symmetry c1
}
set optking {
	frozen_dihedral = ("
		11 8 4 2
	")
}

ee,wfn = optimize('scf', return_wfn=True)
oeprop( wfn, 'DIPOLE', 'QUADRUPOLE', 'MULLIKEN_CHARGES')
f=open( 'psi4out.xyz', 'w' )
f.write( "17  " )
f.write( str(ee) + "\n" )
f.write( MOL.save_string_xyz() )
f.close()
--------------------------------------------------------------------------

    Molecular point group: c1
  Charge       = 0
  Multiplicity = 1
  Basis Set: CC-PVTZ
  Basis Set:
  @DF-RHF Final Energy:  -345.04214596374351
    Total Energy =                       -345.0421459637433372
    Molecular point group: c1
  Basis Set: CC-PVTZ
  Basis Set:
  Basis Set: CC-PVTZ
  Basis Set:
  @DF-RHF Final Energy:  -345.04281592096220
    Total Energy =                       -345.0428159209619139
  Basis Set: CC-PVTZ
  Basis Set:
  Basis Set: CC-PVTZ
  Basis Set:
  @DF-RHF Final Energy:  -345.04174201774106
    Total Energy =                       -345.0417420177409440
  Basis Set: CC-PVTZ
  Basis Set:
  Basis Set: CC-PVTZ
  Basis Set:
  @DF-RHF Final Energy:  -345.04294758964227
    Total Energy =                       -345.0429475896418694
  Basis Set: CC-PVTZ
  Basis Set:
  Basis Set: CC-PVTZ
  Basis Set:
  @DF-RHF Final Energy:  -345.04295697572638
    Total Energy =                       -345.0429569757264403
  Basis Set: CC-PVTZ
  Basis Set:
  Charge       = 0
  Multiplicity = 1
  Basis Set: CC-PVTZ
  Basis Set:

    Orbital Energies (a.u.)
    -----------------------

    Doubly Occupied:

       1A    -20.590797     2A    -20.531201     3A    -11.367039
       4A    -11.287172     5A    -11.230378     6A    -11.217957
       7A    -11.215860     8A     -1.467765     9A     -1.364527
      10A     -1.079911    11A     -1.005578    12A     -0.949373
      13A     -0.849665    14A     -0.769430    15A     -0.694869
      16A     -0.669594    17A     -0.663017    18A     -0.613837
      19A     -0.587383    20A     -0.579166    21A     -0.566893
      22A     -0.551647    23A     -0.536644    24A     -0.523335
      25A     -0.504348    26A     -0.482991    27A     -0.448488
      28A     -0.439831

  @DF-RHF Final Energy:  -345.04295732140616

   => Energetics <=

    Nuclear Repulsion Energy =            322.8015359350820859
    One-Electron Energy =               -1110.1115930429555192
    Two-Electron Energy =                 442.2670997864669857
    DFT Exchange-Correlation Energy =       0.0000000000000000
    Empirical Dispersion Energy =           0.0000000000000000
    PCM Polarization Energy =               0.0000000000000000
    EFP Energy =                            0.0000000000000000
    Total Energy =                       -345.0429573214065044
    Molecular point group: c1
  Basis Set: CC-PVTZ
  Basis Set:

  -Total Gradient:
     Atom            X                  Y                   Z
    ------   -----------------  -----------------  -----------------
       1       -0.000065565490     0.000030784816    -0.000021957142
       2        0.000151362217     0.000579056877     0.000968852589
       3       -0.000000251999     0.000010406823    -0.000007698245
       4       -0.000223036079    -0.001046179270    -0.001650121894
       5        0.000005264427     0.000012710542     0.000003806439
       6       -0.000009907488     0.000003829840    -0.000001185528
       7       -0.000001345645    -0.000001114473    -0.000009385806
       8        0.000406341830     0.000809366492     0.001886222982
       9       -0.000017867569     0.000004980819     0.000004640313
      10        0.000015394030    -0.000013670799    -0.000019511952
      11       -0.000255840463    -0.000401024762    -0.001185494258
      12        0.000003593489    -0.000000123233    -0.000001296383
      13       -0.000013733267     0.000003239961     0.000015676378
      14       -0.000003264173     0.000005541332     0.000006894387
      15        0.000008893191    -0.000001513996     0.000010100716
      16       -0.000003787889    -0.000001436397    -0.000006553559
      17        0.000003750874     0.000005145427     0.000007010959

  **** Optimization is complete! (in 6 steps) ****
    Final optimized geometry and variables:
    Molecular point group: c1

    Geometry (in Angstrom), charge = 0, multiplicity = 1:

    O           -1.303262534904     1.123141452633    -0.679374486044
    C           -1.208729105893     0.178151458171     0.027979983509
    C           -2.375193774469    -0.532847371724     0.655050699879
    O           -0.064402422801    -0.388395539643     0.365305791770
    H           -2.375685290617    -1.570353470425     0.346872814976
    H           -3.293834758926    -0.055246905829     0.355472378756
    H           -2.276859179041    -0.510613538790     1.732697387695
    C            1.170688316070     0.163034643234    -0.103486368554
    C            1.629313641307    -0.626833197742    -1.315944007277
    C            2.147738922637     0.103218266454     1.053558338877
    H            0.990729835076     1.185481442638    -0.393294428427
    H            0.898481149059    -0.560452668908    -2.111550116713
    H            2.568315646913    -0.231887855079    -1.685628575416
    H            1.772238196184    -1.670606320340    -1.061380558807
    H            3.105020978705     0.512362147100     0.753333998849
    H            1.780332146034     0.677005489272     1.894878210940
    H            2.298349367811    -0.919967956696     1.376743311662

  Mulliken Charges: (a.u.)
   Center  Symbol    Alpha    Beta     Spin     Total
       1     O     4.19977  4.19977  0.00000 -0.39954
       2     C     2.80389  2.80389  0.00000  0.39223
       3     C     3.14016  3.14016  0.00000 -0.28031
       4     O     4.16603  4.16603  0.00000 -0.33206
       5     H     0.44600  0.44600  0.00000  0.10800
       6     H     0.43846  0.43846  0.00000  0.12309
       7     H     0.44623  0.44623  0.00000  0.10754
       8     C     2.93428  2.93428  0.00000  0.13144
       9     C     3.14824  3.14824  0.00000 -0.29647
      10     C     3.13786  3.13786  0.00000 -0.27572
      11     H     0.43778  0.43778  0.00000  0.12445
      12     H     0.44307  0.44307  0.00000  0.11386
      13     H     0.45121  0.45121  0.00000  0.09758
      14     H     0.45330  0.45330  0.00000  0.09339
      15     H     0.45383  0.45383  0.00000  0.09235
      16     H     0.44731  0.44731  0.00000  0.10537
      17     H     0.45260  0.45260  0.00000  0.09480

   Total alpha = 28.00000, Total beta = 28.00000, Total charge =  0.00000

*** Psi4 exiting successfully. Buy a developer a beer!
