  ==> Input File <==

--------------------------------------------------------------------------
set {
	reference rhf
	basis 6-31G*
}

set_num_threads( 4 )
memory 2 gb

molecule MOL {
0 1

O	 -2.439975	 -0.936229	 -0.422735
C	 -1.921153	 0.064240	 -0.045697
C	 -2.624136	 1.380336	 0.149372
O	 -0.632575	 0.154573	 0.251549
H	 -2.167530	 2.136143	 -0.479289
H	 -3.669214	 1.273626	 -0.100148
H	 -2.519028	 1.702467	 1.178907
C	 0.160891	 -1.019931	 0.106212
C	 1.589627	 -0.672828	 0.480843
H	 0.089836	 -1.367806	 -0.916050
H	 -0.238459	 -1.792301	 0.749618
C	 2.246377	 0.346236	 -0.452210
H	 2.163194	 -1.597435	 0.473358
H	 1.604769	 -0.303424	 1.502885
C	 3.691736	 0.652107	 -0.061850
H	 2.219579	 -0.032311	 -1.472055
H	 1.666466	 1.263317	 -0.447249
H	 4.134505	 1.377213	 -0.737283
H	 4.305508	 -0.243868	 -0.089969
H	 3.748266	 1.059562	 0.943567

	symmetry c1
}
set optking {
	frozen_dihedral = ("
		1 2 4 8
	")
}

ee = optimize('scf')
oeprop('DIPOLE', 'QUADRUPOLE', 'MULLIKEN_CHARGES')
f=open( 'psi4out.xyz', 'w' )
f.write( "20  " )
f.write( str(ee) + "\n" )
f.write( MOL.save_string_xyz() )
f.close()
--------------------------------------------------------------------------

    Molecular point group: c1
  Charge       = 0
  Multiplicity = 1
  Basis Set: 6-31G*
  Basis Set:
  @DF-RHF Final Energy:  -383.94569101442056
    Total Energy =                       -383.9456910144206176
    Molecular point group: c1
  Basis Set: 6-31G*
  Basis Set:
  Basis Set: 6-31G*
  Basis Set:
  @DF-RHF Final Energy:  -383.94563926120804
    Total Energy =                       -383.9456392612083846
  Basis Set: 6-31G*
  Basis Set:
  Basis Set: 6-31G*
  Basis Set:
  @DF-RHF Final Energy:  -383.94569293334661
    Total Energy =                       -383.9456929333471180
  Basis Set: 6-31G*
  Basis Set:
  Charge       = 0
  Multiplicity = 1
  Basis Set: 6-31G*
  Basis Set:

    Orbital Energies (a.u.)
    -----------------------

    Doubly Occupied:

       1A    -20.601848     2A    -20.544109     3A    -11.374565
       4A    -11.282387     5A    -11.233466     6A    -11.225527
       7A    -11.220625     8A    -11.213453     9A     -1.468028
      10A     -1.362252    11A     -1.086074    12A     -1.028280
      13A     -0.981448    14A     -0.880234    15A     -0.811430
      16A     -0.775183    17A     -0.689643    18A     -0.683529
      19A     -0.667074    20A     -0.631565    21A     -0.601086
      22A     -0.592616    23A     -0.572332    24A     -0.550514
      25A     -0.544720    26A     -0.531634    27A     -0.511708
      28A     -0.483382    29A     -0.474793    30A     -0.472417
      31A     -0.448915    32A     -0.438773

  @DF-RHF Final Energy:  -383.94569294039286

   => Energetics <=

    Nuclear Repulsion Energy =            385.1815903513999046
    One-Electron Energy =               -1286.2873535193994030
    Two-Electron Energy =                 517.1600702276064112
    DFT Exchange-Correlation Energy =       0.0000000000000000
    Empirical Dispersion Energy =           0.0000000000000000
    PCM Polarization Energy =               0.0000000000000000
    EFP Energy =                            0.0000000000000000
    Total Energy =                       -383.9456929403930872
    Molecular point group: c1
  Basis Set: 6-31G*
  Basis Set:

  -Total Gradient:
     Atom            X                  Y                   Z
    ------   -----------------  -----------------  -----------------
       1        0.000012998873     0.000008470186    -0.000015704112
       2       -0.000013368014    -0.000009044665    -0.000003819498
       3       -0.000002363349    -0.000002619018     0.000022329688
       4        0.000019620552     0.000012263726    -0.000049102949
       5        0.000001453977    -0.000005018450    -0.000001286907
       6       -0.000000275685    -0.000000693424     0.000000102478
       7       -0.000001398901     0.000004657687     0.000002193434
       8       -0.000023740863    -0.000020082048     0.000089542941
       9       -0.000000084295     0.000015045034    -0.000004774048
      10       -0.000007711044     0.000005261222    -0.000017724039
      11        0.000012113240    -0.000000557026    -0.000012186334
      12        0.000009228703    -0.000009248680    -0.000010206813
      13       -0.000000375159     0.000006256573    -0.000002687285
      14       -0.000007462725    -0.000003299528     0.000003817353
      15       -0.000003286087     0.000005336507     0.000002240308
      16       -0.000002494968    -0.000001952897    -0.000003436353
      17        0.000005392648    -0.000002629517     0.000001852128
      18       -0.000000759170     0.000003217467     0.000002152339
      19        0.000001817442    -0.000000456985    -0.000004964103
      20        0.000000694825    -0.000004906163     0.000001661773

  **** Optimization is complete! (in 4 steps) ****
    Final optimized geometry and variables:
    Molecular point group: c1

    Geometry (in Angstrom), charge = 0, multiplicity = 1:

    O           -2.439797765635    -0.935663887707    -0.424802813549
    C           -1.920778084639     0.064962903201    -0.048339084612
    C           -2.624974280874     1.379754672089     0.151733329019
    O           -0.632584552994     0.155086961366     0.250140015769
    H           -2.170364801649     2.137645145322    -0.475839310321
    H           -3.670332978875     1.272376186720    -0.096351409492
    H           -2.518396591739     1.699209843268     1.181976730903
    C            0.160729989279    -1.019825951261     0.107045069733
    C            1.589355171286    -0.672616645207     0.482012929686
    H            0.090206869562    -1.369167953231    -0.914759174499
    H           -0.239271097386    -1.791154611151     0.751313041504
    C            2.246855360104     0.345319061806    -0.451640234214
    H            2.162734560011    -1.597373656961     0.476064711341
    H            1.604045137392    -0.302003553314     1.503591585177
    C            3.692008000264     0.651517139101    -0.060664377706
    H            2.220824885462    -0.034711641950    -1.470929158313
    H            1.666928142686     1.262435833170    -0.448497499066
    H            4.135537467234     1.375303016232    -0.737023133998
    H            4.305726427231    -0.244605453282    -0.086542487900
    H            3.747800807786     1.060830634845     0.944034464210

  Mulliken Charges: (a.u.)
   Center  Symbol    Alpha    Beta     Spin     Total
       1     O     4.28332  4.28332  0.00000 -0.56665
       2     C     2.61921  2.61921  0.00000  0.76157
       3     C     3.28167  3.28167  0.00000 -0.56334
       4     O     4.30861  4.30861  0.00000 -0.61722
       5     H     0.40077  0.40077  0.00000  0.19846
       6     H     0.39685  0.39685  0.00000  0.20629
       7     H     0.40059  0.40059  0.00000  0.19881
       8     C     3.00264  3.00264  0.00000 -0.00528
       9     C     3.16470  3.16470  0.00000 -0.32940
      10     H     0.41053  0.41053  0.00000  0.17895
      11     H     0.40838  0.40838  0.00000  0.18324
      12     C     3.15508  3.15508  0.00000 -0.31017
      13     H     0.41826  0.41826  0.00000  0.16348
      14     H     0.41457  0.41457  0.00000  0.17086
      15     C     3.24038  3.24038  0.00000 -0.48076
      16     H     0.42276  0.42276  0.00000  0.15447
      17     H     0.41189  0.41189  0.00000  0.17621
      18     H     0.41755  0.41755  0.00000  0.16490
      19     H     0.42165  0.42165  0.00000  0.15670
      20     H     0.42057  0.42057  0.00000  0.15886

   Total alpha = 32.00000, Total beta = 32.00000, Total charge =  0.00000
