  ==> Input File <==

--------------------------------------------------------------------------
set {
	reference rhf
	basis cc-pvtz
}

set_num_threads( 4 )
memory 2 gb

molecule MOL {
0 1

H	 2.745000	 -0.308000	 0.018000
C	 1.800000	 0.086000	 -0.335000
C	 0.678000	 -0.494000	 0.513000
H	 1.683000	 -0.192000	 -1.376000
H	 1.822000	 1.165000	 -0.259000
N	 -0.642000	 0.019000	 0.053000
H	 0.616000	 -1.567000	 0.449000
H	 0.759000	 -0.185000	 1.545000
O	 -1.449000	 -0.777000	 -0.309000
O	 -0.800000	 1.202000	 0.083000

	symmetry c1
}
ee = optimize('scf')
oeprop('DIPOLE', 'QUADRUPOLE', 'MULLIKEN_CHARGES')
f=open( 'psi4out.xyz', 'w' )
f.write( "10  " )
f.write( str(ee) + "\n" )
f.write( MOL.save_string_xyz() )
f.close()
--------------------------------------------------------------------------

    Molecular point group: c1
  Charge       = 0
  Multiplicity = 1
  Basis Set: CC-PVTZ
  Basis Set:
  @DF-RHF Final Energy:  -282.81301205602347
    Total Energy =                       -282.8130120560234673
    Molecular point group: c1
  Basis Set: CC-PVTZ
  Basis Set:
  Basis Set: CC-PVTZ
  Basis Set:
  @DF-RHF Final Energy:  -282.81303073418923
    Total Energy =                       -282.8130307341893968
  Basis Set: CC-PVTZ
  Basis Set:
  Basis Set: CC-PVTZ
  Basis Set:
  @DF-RHF Final Energy:  -282.81268319400351
    Total Energy =                       -282.8126831940034549
  Basis Set: CC-PVTZ
  Basis Set:
  Basis Set: CC-PVTZ
  Basis Set:
  @DF-RHF Final Energy:  -282.81324623566775
    Total Energy =                       -282.8132462356676342
  Basis Set: CC-PVTZ
  Basis Set:
  @DF-RHF Final Energy:  -282.81326684691277
    Total Energy =                       -282.8132668469128248
  @DF-RHF Final Energy:  -282.81328682501749
    Total Energy =                       -282.8132868250175420
  @DF-RHF Final Energy:  -282.81329218339954
    Total Energy =                       -282.8132921833993692
  @DF-RHF Final Energy:  -282.81329675394682
    Total Energy =                       -282.8132967539467018
  @DF-RHF Final Energy:  -282.81330901015286
    Total Energy =                       -282.8133090101529774
  @DF-RHF Final Energy:  -282.81331991571449
    Total Energy =                       -282.8133199157144304
  @DF-RHF Final Energy:  -282.81332936793677
    Total Energy =                       -282.8133293679368307
  Basis Set: CC-PVTZ
  Basis Set:
  @DF-RHF Final Energy:  -282.81334778550831
    Total Energy =                       -282.8133477855081992
  Basis Set: CC-PVTZ
  Basis Set:
  Basis Set: CC-PVTZ
  Basis Set:
  @DF-RHF Final Energy:  -282.81335381345792
    Total Energy =                       -282.8133538134579226
  Basis Set: CC-PVTZ
  Basis Set:
  Basis Set: CC-PVTZ
  Basis Set:
  @DF-RHF Final Energy:  -282.81335500882392
    Total Energy =                       -282.8133550088239190
  Basis Set: CC-PVTZ
  Basis Set:
  Charge       = 0
  Multiplicity = 1
  Basis Set: CC-PVTZ
  Basis Set:

    Orbital Energies (a.u.)
    -----------------------

    Doubly Occupied:

       1A    -20.591920     2A    -20.591750     3A    -15.838348
       4A    -11.301798     5A    -11.251036     6A     -1.637601
       7A     -1.422038     8A     -1.126667     9A     -0.966832
      10A     -0.839838    11A     -0.763478    12A     -0.739516
      13A     -0.730100    14A     -0.660075    15A     -0.590574
      16A     -0.559912    17A     -0.550281    18A     -0.488387
      19A     -0.479342    20A     -0.454807

  @DF-RHF Final Energy:  -282.81335521280874

   => Energetics <=

    Nuclear Repulsion Energy =            186.7896601467020332
    One-Electron Energy =                -756.0374354515311097
    Two-Electron Energy =                 286.4344200920203320
    DFT Exchange-Correlation Energy =       0.0000000000000000
    Empirical Dispersion Energy =           0.0000000000000000
    PCM Polarization Energy =               0.0000000000000000
    EFP Energy =                            0.0000000000000000
    Total Energy =                       -282.8133552128086876
    Molecular point group: c1
  Basis Set: CC-PVTZ
  Basis Set:

  -Total Gradient:
     Atom            X                  Y                   Z
    ------   -----------------  -----------------  -----------------
       1       -0.000010328863    -0.000001111275     0.000006541766
       2        0.000000493660     0.000002402130    -0.000009469041
       3       -0.000009578555     0.000019460677     0.000009276013
       4       -0.000002887710     0.000000637973     0.000002105686
       5        0.000000546071     0.000002671888     0.000000077101
       6        0.000015593541    -0.000046905981    -0.000021390600
       7       -0.000005741345     0.000002615995    -0.000005173938
       8        0.000010164251    -0.000005028813     0.000006320405
       9        0.000000505699     0.000015884038     0.000011706535
      10        0.000001233253     0.000009373369     0.000000006074

  **** Optimization is complete! (in 15 steps) ****
    Final optimized geometry and variables:
    Molecular point group: c1

    Geometry (in Angstrom), charge = 0, multiplicity = 1:

    H            2.828710928208    -0.346903310048     0.001082988653
    C            1.876752101607     0.015930757844    -0.363449588436
    C            0.776285191867    -0.474665094130     0.563091979667
    H            1.728113077829    -0.357243770844    -1.367440094856
    H            1.906170799590     1.096574473161    -0.386152770230
    N           -0.540022139370     0.017605624033     0.071630512091
    H            0.707110731774    -1.548968783841     0.573035289053
    H            0.886169020198    -0.084184073002     1.560431599671
    O           -1.124971501088    -0.671415061362    -0.694712334346
    O           -0.900284242674     1.078338981567     0.458218788760

  Mulliken Charges: (a.u.)
   Center  Symbol    Alpha    Beta     Spin     Total
       1     H     0.44788  0.44788  0.00000  0.10425
       2     C     3.14070  3.14070  0.00000 -0.28139
       3     C     3.03738  3.03738  0.00000 -0.07476
       4     H     0.44093  0.44093  0.00000  0.11815
       5     H     0.44070  0.44070  0.00000  0.11860
       6     N     3.27629  3.27629  0.00000  0.44741
       7     H     0.43476  0.43476  0.00000  0.13049
       8     H     0.43487  0.43487  0.00000  0.13025
       9     O     4.17312  4.17312  0.00000 -0.34624
      10     O     4.17338  4.17338  0.00000 -0.34677

   Total alpha = 20.00000, Total beta = 20.00000, Total charge = -0.00000
