  ==> Input File <==

--------------------------------------------------------------------------
set {
	reference rhf
	basis 6-31G*
}

set_num_threads( 4 )
memory 2 gb

molecule MOL {
0 1

H	 -2.337989	 -2.727877	 -0.074043
C	 -2.771575	 -1.799197	 -0.465425
C	 -2.642109	 -0.603082	 0.442958
O	 -3.294993	 -1.787557	 -1.532031
C	 -1.197339	 -0.369046	 0.905690
H	 -3.040688	 0.262874	 -0.072759
H	 -3.270409	 -0.792331	 1.312486
C	 -0.252658	 0.041456	 -0.226725
H	 -1.201656	 0.402833	 1.669541
H	 -0.822124	 -1.270174	 1.388329
C	 1.180775	 0.282413	 0.250794
H	 -0.634639	 0.944024	 -0.699281
H	 -0.248899	 -0.724333	 -1.000090
C	 2.148627	 -0.814315	 -0.201312
H	 1.516199	 1.249228	 -0.115937
H	 1.192670	 0.346017	 1.338083
C	 3.580890	 -0.659131	 0.322722
H	 2.166869	 -0.852443	 -1.289387
H	 1.762857	 -1.776509	 0.128956
C	 4.324889	 0.564933	 -0.213704
H	 4.142010	 -1.551473	 0.056605
H	 3.564836	 -0.624694	 1.410140
H	 4.342616	 0.565491	 -1.300421
H	 3.866655	 1.493402	 0.110242
H	 5.353900	 0.572371	 0.132816

	symmetry c1
}
set optking {
	frozen_dihedral = ("
		12 8 11 14
	")
}

ee = optimize('scf')
oeprop('DIPOLE', 'QUADRUPOLE', 'MULLIKEN_CHARGES')
f=open( 'psi4out.xyz', 'w' )
f.write( "25  " )
f.write( str(ee) + "\n" )
f.write( MOL.save_string_xyz() )
f.close()
--------------------------------------------------------------------------

    Molecular point group: c1
  Charge       = 0
  Multiplicity = 1
  Basis Set: 6-31G*
  Basis Set:
  @DF-RHF Final Energy:  -387.11684022426721
    Total Energy =                       -387.1168402242661841
    Molecular point group: c1
  Basis Set: 6-31G*
  Basis Set:
  Basis Set: 6-31G*
  Basis Set:
  @DF-RHF Final Energy:  -387.11685759357687
    Total Energy =                       -387.1168575935773788
  Basis Set: 6-31G*
  Basis Set:
  Basis Set: 6-31G*
  Basis Set:
  @DF-RHF Final Energy:  -387.11363340227587
    Total Energy =                       -387.1136334022754681
  Basis Set: 6-31G*
  Basis Set:
  Basis Set: 6-31G*
  Basis Set:
  @DF-RHF Final Energy:  -387.11708769341044
    Total Energy =                       -387.1170876934106673
  Basis Set: 6-31G*
  Basis Set:
  @DF-RHF Final Energy:  -387.11706522404688
    Total Energy =                       -387.1170652240471100
  @DF-RHF Final Energy:  -387.11712247211466
    Total Energy =                       -387.1171224721149429
  @DF-RHF Final Energy:  -387.11713236587281
    Total Energy =                       -387.1171323658729762
  Basis Set: 6-31G*
  Basis Set:
  @DF-RHF Final Energy:  -387.11712275986611
    Total Energy =                       -387.1171227598662199
  Basis Set: 6-31G*
  Basis Set:
  Basis Set: 6-31G*
  Basis Set:
  @DF-RHF Final Energy:  -387.11714368767718
    Total Energy =                       -387.1171436876769576
  Basis Set: 6-31G*
  Basis Set:
  Basis Set: 6-31G*
  Basis Set:
  @DF-RHF Final Energy:  -387.11714959692029
    Total Energy =                       -387.1171495969206262
  Basis Set: 6-31G*
  Basis Set:
  Charge       = 0
  Multiplicity = 1
  Basis Set: 6-31G*
  Basis Set:

    Orbital Energies (a.u.)
    -----------------------

    Doubly Occupied:

       1A    -20.562066     2A    -11.326236     3A    -11.235743
       4A    -11.234588     5A    -11.223581     6A    -11.219545
       7A    -11.218644     8A    -11.218072     9A    -11.210757
      10A     -1.402022    11A     -1.103037    12A     -1.069541
      13A     -1.011813    14A     -0.941880    15A     -0.877535
      16A     -0.821442    17A     -0.788648    18A     -0.781748
      19A     -0.665474    20A     -0.653686    21A     -0.631459
      22A     -0.625185    23A     -0.606637    24A     -0.592736
      25A     -0.577611    26A     -0.556514    27A     -0.529767
      28A     -0.524074    29A     -0.512701    30A     -0.496753
      31A     -0.489360    32A     -0.480313    33A     -0.463837
      34A     -0.451960    35A     -0.443296    36A     -0.409613

  @DF-RHF Final Energy:  -387.11714885388938

   => Energetics <=

    Nuclear Repulsion Energy =            441.8093082796522140
    One-Electron Energy =               -1399.9371663358260776
    Two-Electron Energy =                 571.0107092022841471
    DFT Exchange-Correlation Energy =       0.0000000000000000
    Empirical Dispersion Energy =           0.0000000000000000
    PCM Polarization Energy =               0.0000000000000000
    EFP Energy =                            0.0000000000000000
    Total Energy =                       -387.1171488538897165
    Molecular point group: c1
  Basis Set: 6-31G*
  Basis Set:

  -Total Gradient:
     Atom            X                  Y                   Z
    ------   -----------------  -----------------  -----------------
       1       -0.000016263318     0.000026380910     0.000051315425
       2        0.000058766010    -0.000064709169    -0.000036519916
       3       -0.000041017727    -0.000006414089    -0.000021919469
       4       -0.000026075300     0.000064286745     0.000039109905
       5        0.000047508025     0.000085096999     0.000023348086
       6       -0.000005407956     0.000007137118    -0.000003932069
       7        0.000006868180    -0.000020138510    -0.000034074279
       8       -0.000766430661     0.001109507934     0.002069515326
       9        0.000015845612    -0.000009636287     0.000035264920
      10       -0.000010132195     0.000001205202    -0.000035129843
      11       -0.000284316505    -0.001262900618     0.001340138055
      12        0.000811832081    -0.000701851001    -0.002001217486
      13        0.000063263692    -0.000049106083    -0.000012972554
      14        0.000233938764     0.000809943570    -0.001419288680
      15       -0.000044297098     0.000045687464    -0.000026722182
      16       -0.000055234009    -0.000045385370    -0.000008484781
      17       -0.000013841962    -0.000004761525     0.000047805102
      18        0.000010144187     0.000019542704     0.000011237375
      19       -0.000010381348    -0.000011739055    -0.000013380752
      20       -0.000003262725     0.000013329918     0.000000129884
      21       -0.000007189747     0.000010070377    -0.000009331890
      22        0.000024959582    -0.000019905588     0.000005249624
      23        0.000008739165    -0.000003542522     0.000001490657
      24        0.000007310696     0.000001421773    -0.000009314136
      25       -0.000005325432     0.000006479103     0.000007683682

  **** Optimization is complete! (in 11 steps) ****
    Final optimized geometry and variables:
    Molecular point group: c1

    Geometry (in Angstrom), charge = 0, multiplicity = 1:

    H           -2.439122487526    -2.165933709475     0.053510459937
    C           -2.882860505949    -1.248881145560    -0.353783937514
    C           -2.772488238618    -0.037782743782     0.537166579741
    O           -3.407477315222    -1.261605280198    -1.419815888148
    C           -1.331810499845     0.227560524933     0.994823423251
    H           -3.185513774960     0.814006820257     0.009098814510
    H           -3.397120801631    -0.224777347609     1.409699433421
    C           -0.396927334834     0.649197868201    -0.141924733989
    H           -1.347637756508     1.003798914012     1.754143998460
    H           -0.936698123672    -0.663032901645     1.481525684725
    C            1.058594678170     0.881468467728     0.317156756193
    H           -0.789430668314     1.544226514138    -0.616454337634
    H           -0.408933100097    -0.111618308156    -0.919770429601
    C            2.016032870181    -0.224679738089    -0.138564808389
    H            1.406966884673     1.836105806139    -0.063327541836
    H            1.093481655049     0.961397243472     1.401951894944
    C            3.444446989076    -0.099731521922     0.402333194712
    H            2.043342310393    -0.244713158122    -1.226532232581
    H            1.612789368095    -1.187467449208     0.171370503709
    C            4.206620710089     1.130522348909    -0.093949884943
    H            3.998453494958    -0.990935154824     0.118058824347
    H            3.417923706833    -0.093880777009     1.490240005837
    H            4.237156065952     1.158734095956    -1.179855415204
    H            3.754105233976     2.055160522729     0.248596638555
    H            5.231413789688     1.118474059477     0.264096931069

  Mulliken Charges: (a.u.)
   Center  Symbol    Alpha    Beta     Spin     Total
       1     H     0.43264  0.43264  0.00000  0.13472
       2     C     2.83068  2.83068  0.00000  0.33863
       3     C     3.20876  3.20876  0.00000 -0.41753
       4     O     4.23782  4.23782  0.00000 -0.47565
       5     C     3.16788  3.16788  0.00000 -0.33575
       6     H     0.39965  0.39965  0.00000  0.20070
       7     H     0.40664  0.40664  0.00000  0.18672
       8     C     3.15862  3.15862  0.00000 -0.31725
       9     H     0.41222  0.41222  0.00000  0.17556
      10     H     0.41948  0.41948  0.00000  0.16104
      11     C     3.15785  3.15785  0.00000 -0.31570
      12     H     0.41542  0.41542  0.00000  0.16917
      13     H     0.41600  0.41600  0.00000  0.16799
      14     C     3.15451  3.15451  0.00000 -0.30902
      15     H     0.41628  0.41628  0.00000  0.16743
      16     H     0.42181  0.42181  0.00000  0.15638
      17     C     3.15311  3.15311  0.00000 -0.30622
      18     H     0.42128  0.42128  0.00000  0.15744
      19     H     0.42385  0.42385  0.00000  0.15230
      20     C     3.24156  3.24156  0.00000 -0.48312
      21     H     0.42015  0.42015  0.00000  0.15969
      22     H     0.42352  0.42352  0.00000  0.15296
      23     H     0.42143  0.42143  0.00000  0.15714
      24     H     0.42020  0.42020  0.00000  0.15960
      25     H     0.41863  0.41863  0.00000  0.16274

   Total alpha = 36.00000, Total beta = 36.00000, Total charge = -0.00000
