  ==> Input File <==

--------------------------------------------------------------------------
set {
	reference rhf
	basis cc-pvtz
}

set_num_threads( 4 )
memory 2 gb

molecule MOL {
0 1

H	 1.212838	 -1.423190	 -0.572789
O	 1.675515	 -0.612943	 -0.465627
C	 1.135873	 0.113391	 0.608264
C	 0.027642	 1.012027	 0.090274
H	 1.902972	 0.727968	 1.072615
H	 0.756163	 -0.561896	 1.370018
C	 -1.138737	 0.285728	 -0.581921
H	 0.464661	 1.708096	 -0.618252
H	 -0.340737	 1.603071	 0.925246
C	 -1.933983	 -0.631436	 0.343653
H	 -0.763151	 -0.285569	 -1.422081
H	 -1.808359	 1.035291	 -0.992333
H	 -2.789188	 -1.049673	 -0.174718
H	 -1.335629	 -1.461368	 0.700418
H	 -2.305435	 -0.092167	 1.209725

	symmetry c1
}
set optking {
	frozen_dihedral = ("
		1 2 3 4
	")
}

ee = optimize('scf')
oeprop('DIPOLE', 'QUADRUPOLE', 'MULLIKEN_CHARGES')
f=open( 'psi4out.xyz', 'w' )
f.write( "15  " )
f.write( str(ee) + "\n" )
f.write( MOL.save_string_xyz() )
f.close()
--------------------------------------------------------------------------

    Molecular point group: c1
  Charge       = 0
  Multiplicity = 1
  Basis Set: CC-PVTZ
  Basis Set:
  @DF-RHF Final Energy:  -232.23502787786123
    Total Energy =                       -232.2350278778610004
    Molecular point group: c1
  Basis Set: CC-PVTZ
  Basis Set:
  Basis Set: CC-PVTZ
  Basis Set:
  @DF-RHF Final Energy:  -232.23613420502704
    Total Energy =                       -232.2361342050269286
  Basis Set: CC-PVTZ
  Basis Set:
  Basis Set: CC-PVTZ
  Basis Set:
  @DF-RHF Final Energy:  -232.23640755016936
    Total Energy =                       -232.2364075501693037
  Basis Set: CC-PVTZ
  Basis Set:
  Basis Set: CC-PVTZ
  Basis Set:
  @DF-RHF Final Energy:  -232.23641001164376
    Total Energy =                       -232.2364100116436703
  Basis Set: CC-PVTZ
  Basis Set:
  Charge       = 0
  Multiplicity = 1
  Basis Set: CC-PVTZ
  Basis Set:

    Orbital Energies (a.u.)
    -----------------------

    Doubly Occupied:

       1A    -20.545999     2A    -11.265298     3A    -11.216833
       4A    -11.212506     5A    -11.212279     6A     -1.363410
       7A     -1.070096     8A     -0.976022     9A     -0.877990
      10A     -0.784185    11A     -0.702316    12A     -0.645204
      13A     -0.614407    14A     -0.586040    15A     -0.569251
      16A     -0.544497    17A     -0.504222    18A     -0.493284
      19A     -0.475161    20A     -0.458413    21A     -0.428919

  @DF-RHF Final Energy:  -232.23641020737449

   => Energetics <=

    Nuclear Repulsion Energy =            191.4871522980528198
    One-Electron Energy =                -694.3544671711042611
    Two-Electron Energy =                 270.6309046656768942
    DFT Exchange-Correlation Energy =       0.0000000000000000
    Empirical Dispersion Energy =           0.0000000000000000
    PCM Polarization Energy =               0.0000000000000000
    EFP Energy =                            0.0000000000000000
    Total Energy =                       -232.2364102073745471
    Molecular point group: c1
  Basis Set: CC-PVTZ
  Basis Set:

  -Total Gradient:
     Atom            X                  Y                   Z
    ------   -----------------  -----------------  -----------------
       1        0.000512541073    -0.000358900428     0.000565406900
       2       -0.000488185905     0.000609693193    -0.000728984335
       3       -0.000364892205    -0.000641740640     0.000210542986
       4        0.000335967988     0.000371589323    -0.000053465492
       5        0.000007874976     0.000002259279     0.000001698559
       6        0.000003090679     0.000011892314    -0.000003095249
       7        0.000017945837    -0.000004162088    -0.000004587370
       8       -0.000006128054    -0.000003457946     0.000004848124
       9       -0.000010956503     0.000004224413     0.000002701894
      10       -0.000016767996     0.000009914508     0.000003887346
      11        0.000014449438    -0.000002449137     0.000001968797
      12        0.000004277775    -0.000003108023     0.000001295841
      13       -0.000005692974     0.000004000437     0.000002900987
      14       -0.000006044253     0.000005745602    -0.000011649013
      15        0.000002520125    -0.000005500811     0.000006530025

  **** Optimization is complete! (in 5 steps) ****
    Final optimized geometry and variables:
    Molecular point group: c1

    Geometry (in Angstrom), charge = 0, multiplicity = 1:

    H            1.341491755605    -1.426995159447    -0.587290068222
    O            1.769959163107    -0.604396261489    -0.444876936922
    C            1.142407714788     0.103817430561     0.593989342140
    C            0.023216730176     1.007330549295     0.095264942972
    H            1.908498763230     0.713710792261     1.055141443306
    H            0.781683308995    -0.579378039678     1.356628360399
    C           -1.149775159102     0.290428898599    -0.575230341133
    H            0.453924138818     1.710920988583    -0.609447003178
    H           -0.341580554631     1.589726187930     0.938611322911
    C           -1.957973319001    -0.614682445035     0.352079862122
    H           -0.783463217362    -0.284379218303    -1.419971156442
    H           -1.812654622821     1.041163175307    -0.992848763387
    H           -2.806970469537    -1.040396842735    -0.170054518919
    H           -1.368472854862    -1.440187866513     0.735453774134
    H           -2.338454448592    -0.061393958903     1.204478269530

  Mulliken Charges: (a.u.)
   Center  Symbol    Alpha    Beta     Spin     Total
       1     H     0.39167  0.39167  0.00000  0.21665
       2     O     4.20726  4.20726  0.00000 -0.41452
       3     C     2.98585  2.98585  0.00000  0.02829
       4     C     3.08724  3.08724  0.00000 -0.17448
       5     H     0.44788  0.44788  0.00000  0.10424
       6     H     0.46655  0.46655  0.00000  0.06689
       7     C     3.10358  3.10358  0.00000 -0.20717
       8     H     0.44831  0.44831  0.00000  0.10339
       9     H     0.45624  0.45624  0.00000  0.08752
      10     C     3.15184  3.15184  0.00000 -0.30368
      11     H     0.45022  0.45022  0.00000  0.09956
      12     H     0.44616  0.44616  0.00000  0.10768
      13     H     0.44521  0.44521  0.00000  0.10959
      14     H     0.45857  0.45857  0.00000  0.08287
      15     H     0.45342  0.45342  0.00000  0.09315

   Total alpha = 21.00000, Total beta = 21.00000, Total charge = -0.00000
