  ==> Input File <==

--------------------------------------------------------------------------
set {
	reference rhf
	basis 6-31G*
}

set_num_threads( 4 )
memory 2 gb

molecule MOL {
0 1

H	 1.954550	 2.277202	 -0.692227
N	 1.136601	 1.705054	 -0.776602
C	 1.267428	 0.496480	 0.024474
H	 1.043713	 1.474301	 -1.747704
C	 -0.016086	 -0.325158	 -0.029487
H	 1.456243	 0.799427	 1.049952
H	 2.111033	 -0.129268	 -0.277436
C	 -1.282277	 0.529072	 0.046735
H	 -0.012495	 -0.908639	 -0.945788
H	 -0.015903	 -1.041248	 0.791956
C	 -2.563920	 -0.301775	 -0.006060
H	 -1.284084	 1.244622	 -0.773004
H	 -1.271387	 1.115393	 0.963286
H	 -2.621848	 -0.873522	 -0.927727
H	 -3.445135	 0.329952	 0.047812
H	 -2.609542	 -1.004582	 0.821105

	symmetry c1
}
set optking {
	frozen_dihedral = ("
		6 3 5 9
	")
}

ee = optimize('scf')
oeprop('DIPOLE', 'QUADRUPOLE', 'MULLIKEN_CHARGES')
f=open( 'psi4out.xyz', 'w' )
f.write( "16  " )
f.write( str(ee) + "\n" )
f.write( MOL.save_string_xyz() )
f.close()
--------------------------------------------------------------------------

    Molecular point group: c1
  Charge       = 0
  Multiplicity = 1
  Basis Set: 6-31G*
  Basis Set:
  @DF-RHF Final Energy:  -212.31365366470550
    Total Energy =                       -212.3136536647053845
    Molecular point group: c1
  Basis Set: 6-31G*
  Basis Set:
  Basis Set: 6-31G*
  Basis Set:
  @DF-RHF Final Energy:  -212.31443620155733
    Total Energy =                       -212.3144362015574416
  Basis Set: 6-31G*
  Basis Set:
  Basis Set: 6-31G*
  Basis Set:
  @DF-RHF Final Energy:  -212.31490837551041
    Total Energy =                       -212.3149083755104130
  Basis Set: 6-31G*
  Basis Set:
  Basis Set: 6-31G*
  Basis Set:
  @DF-RHF Final Energy:  -212.31493062569928
    Total Energy =                       -212.3149306256993327
  Basis Set: 6-31G*
  Basis Set:
  Charge       = 0
  Multiplicity = 1
  Basis Set: 6-31G*
  Basis Set:

    Orbital Energies (a.u.)
    -----------------------

    Doubly Occupied:

       1A    -15.533875     2A    -11.240963     3A    -11.210768
       4A    -11.204786     5A    -11.202583     6A     -1.177926
       7A     -1.052006     8A     -0.958226     9A     -0.847554
      10A     -0.779703    11A     -0.667011    12A     -0.619089
      13A     -0.617238    14A     -0.573848    15A     -0.561748
      16A     -0.520541    17A     -0.498237    18A     -0.467569
      19A     -0.461216    20A     -0.455629    21A     -0.379378

  @DF-RHF Final Energy:  -212.31493124387762

   => Energetics <=

    Nuclear Repulsion Energy =            189.0385762694146194
    One-Electron Energy =                -660.6472284671166335
    Two-Electron Energy =                 259.2937209538243337
    DFT Exchange-Correlation Energy =       0.0000000000000000
    Empirical Dispersion Energy =           0.0000000000000000
    PCM Polarization Energy =               0.0000000000000000
    EFP Energy =                            0.0000000000000000
    Total Energy =                       -212.3149312438776519
    Molecular point group: c1
  Basis Set: 6-31G*
  Basis Set:

  -Total Gradient:
     Atom            X                  Y                   Z
    ------   -----------------  -----------------  -----------------
       1        0.000006252151     0.000074475639    -0.000042156025
       2        0.000025469698    -0.000120687124     0.000124876211
       3       -0.002624236799     0.003942822882    -0.000399665861
       4       -0.000005863908    -0.000000265199    -0.000014061552
       5       -0.001944461629     0.003592684481    -0.002543858055
       6        0.002414894748    -0.003896075603     0.000748046841
       7        0.000092824074     0.000068364523    -0.000081005428
       8        0.000114892728    -0.000126002313    -0.000194792087
       9        0.002041289351    -0.003466209678     0.002252920802
      10       -0.000122795697    -0.000107540793     0.000049348712
      11       -0.000060009601     0.000025752358     0.000154164975
      12        0.000081939042     0.000000669759    -0.000099673428
      13       -0.000036107372    -0.000008253271     0.000026964131
      14        0.000039745289     0.000074891741     0.000005148064
      15       -0.000026646660    -0.000022853894     0.000031551498
      16        0.000002814583    -0.000031773506    -0.000017808799

  **** Optimization is complete! (in 5 steps) ****
    Final optimized geometry and variables:
    Molecular point group: c1

    Geometry (in Angstrom), charge = 0, multiplicity = 1:

    H            2.346721028099     1.804305494501    -0.496135906433
    N            1.504641671275     1.276742600339    -0.622872869329
    C            1.524185306028     0.077438231771     0.200167844110
    H            1.459386449414     1.033429862359    -1.594631433656
    C            0.228218805554    -0.729975456312     0.093919663849
    H            1.682706831401     0.367469596573     1.234454646134
    H            2.356333361128    -0.587673442434    -0.044839617678
    C           -1.055997985138     0.090794971180     0.203206373748
    H            0.236298450338    -1.313599322211    -0.826335333628
    H            0.244425086435    -1.472985395256     0.890424750446
    C           -2.309406260543    -0.784203870948     0.205784707058
    H           -1.106445090616     0.803271011449    -0.611839061228
    H           -1.022620042629     0.681473237687     1.115776681577
    H           -2.384672811785    -1.365447129615    -0.709489955847
    H           -3.208747657307    -0.181301869950     0.287156374375
    H           -2.303687750006    -1.482501015072     1.038436367442

  Mulliken Charges: (a.u.)
   Center  Symbol    Alpha    Beta     Spin     Total
       1     H     0.33147  0.33147  0.00000  0.33705
       2     N     3.92000  3.92000  0.00000 -0.84000
       3     C     3.06218  3.06218  0.00000 -0.12436
       4     H     0.33542  0.33542  0.00000  0.32916
       5     C     3.16030  3.16030  0.00000 -0.32059
       6     H     0.42065  0.42065  0.00000  0.15870
       7     H     0.43297  0.43297  0.00000  0.13407
       8     C     3.14383  3.14383  0.00000 -0.28766
       9     H     0.42649  0.42649  0.00000  0.14701
      10     H     0.42315  0.42315  0.00000  0.15370
      11     C     3.24054  3.24054  0.00000 -0.48109
      12     H     0.41251  0.41251  0.00000  0.17498
      13     H     0.42277  0.42277  0.00000  0.15445
      14     H     0.42401  0.42401  0.00000  0.15198
      15     H     0.41974  0.41974  0.00000  0.16051
      16     H     0.42396  0.42396  0.00000  0.15208

   Total alpha = 21.00000, Total beta = 21.00000, Total charge =  0.00000
