                              Psi4 1.0.54 Driver

  ==> Input File <==

--------------------------------------------------------------------------
set {
	reference rhf
	basis cc-pvtz
}

set_num_threads( 4 )
memory 2 gb

molecule MOL {
0 1

H	 -0.914396	 -1.170637	 -0.531299
N	 -1.173824	 -0.310545	 -0.096857
C	 -0.022588	 0.563366	 0.065815
H	 -1.865584	 0.116298	 -0.677274
C	 1.270420	 -0.230572	 -0.014245
H	 -0.045354	 1.293678	 -0.735129
H	 -0.043155	 1.123061	 1.001180
H	 1.336273	 -0.754933	 -0.959364
H	 2.130728	 0.422015	 0.082222
H	 1.323344	 -0.967006	 0.781773

	symmetry c1
}
set optking {
	frozen_dihedral = ("
		1 2 3 6
	")
}

ee,wfn = optimize('scf', return_wfn=True)
oeprop( wfn, 'DIPOLE', 'QUADRUPOLE', 'MULLIKEN_CHARGES')
f=open( 'psi4out.xyz', 'w' )
f.write( "10  " )
f.write( str(ee) + "\n" )
f.write( MOL.save_string_xyz() )
f.close()
--------------------------------------------------------------------------

    Molecular point group: c1
  Charge       = 0
  Multiplicity = 1
  Basis Set: CC-PVTZ
  Basis Set:
  @DF-RHF Final Energy:  -134.30042110859387
    Total Energy =                       -134.3004211085938095
    Molecular point group: c1
  Basis Set: CC-PVTZ
  Basis Set:
  Basis Set: CC-PVTZ
  Basis Set:
  @DF-RHF Final Energy:  -134.25338012737041
    Total Energy =                       -134.2533801273704057
  Basis Set: CC-PVTZ
  Basis Set:
  Basis Set: CC-PVTZ
  Basis Set:
  @DF-RHF Final Energy:  -134.29867664328989
    Total Energy =                       -134.2986766432898662
  Basis Set: CC-PVTZ
  Basis Set:
  Basis Set: CC-PVTZ
  Basis Set:
  @DF-RHF Final Energy:  -134.30193616749125
    Total Energy =                       -134.3019361674912489
  Basis Set: CC-PVTZ
  Basis Set:
  Basis Set: CC-PVTZ
  Basis Set:
  @DF-RHF Final Energy:  -134.30203274234051
    Total Energy =                       -134.3020327423404296
  Basis Set: CC-PVTZ
  Basis Set:
  Basis Set: CC-PVTZ
  Basis Set:
  @DF-RHF Final Energy:  -134.30204477445113
    Total Energy =                       -134.3020447744511046
  Basis Set: CC-PVTZ
  Basis Set:
  Charge       = 0
  Multiplicity = 1
  Basis Set: CC-PVTZ
  Basis Set:

    Orbital Energies (a.u.)
    -----------------------

    Doubly Occupied:

       1A    -15.523529     2A    -11.240500     3A    -11.210389
       4A     -1.175162     5A     -0.990211     6A     -0.829200
       7A     -0.662238     8A     -0.624010     9A     -0.593928
      10A     -0.523875    11A     -0.502891    12A     -0.495800
      13A     -0.378347

  @DF-RHF Final Energy:  -134.30204569486460

   => Energetics <=

    Nuclear Repulsion Energy =             83.5116846013786898
    One-Electron Energy =                -346.1272988532224417
    Two-Electron Energy =                 128.3135685569791633
    DFT Exchange-Correlation Energy =       0.0000000000000000
    Empirical Dispersion Energy =           0.0000000000000000
    PCM Polarization Energy =               0.0000000000000000
    EFP Energy =                            0.0000000000000000
    Total Energy =                       -134.3020456948645744
    Molecular point group: c1
  Basis Set: CC-PVTZ
  Basis Set:

  -Total Gradient:
     Atom            X                  Y                   Z
    ------   -----------------  -----------------  -----------------
       1        0.000160635553    -0.002238308831     0.001918551708
       2       -0.000572893208     0.003173992081    -0.001798352416
       3        0.001475599035    -0.002140843283    -0.002295577466
       4        0.000002916560    -0.000008762459    -0.000015530593
       5       -0.000017703080     0.000015702474     0.000020665051
       6       -0.001068951733     0.001163826043     0.002207358677
       7       -0.000003689551     0.000005648586    -0.000024510520
       8        0.000003904973     0.000000089234     0.000017820558
       9        0.000017785911    -0.000016178111    -0.000015644065
      10        0.000002395543     0.000044834267    -0.000014780934

  **** Optimization is complete! (in 7 steps) ****
    Final optimized geometry and variables:
    Molecular point group: c1

    Geometry (in Angstrom), charge = 0, multiplicity = 1:

    H           -1.197748095193    -0.589301398463    -0.865512408149
    N           -1.223074646504     0.055717192232    -0.106660671623
    C            0.112758908691     0.480950867765     0.290421605121
    H           -1.810494352842     0.819380239606    -0.356871209434
    C            1.164590644141    -0.537015969643    -0.114048110019
    H            0.365776223276     1.456807571024    -0.118465595911
    H            0.133442399449     0.595773679831     1.369795755028
    H            1.222690727991    -0.630722024225    -1.193847851878
    H            2.142964528918    -0.246588073073     0.249412165934
    H            0.928013816492    -1.511946616345     0.297420885270

  Mulliken Charges: (a.u.)
   Center  Symbol    Alpha    Beta     Spin     Total
       1     H     0.42911  0.42911  0.00000  0.14178
       2     N     3.69400  3.69400  0.00000 -0.38801
       3     C     3.01042  3.01042  0.00000 -0.02083
       4     H     0.42779  0.42779  0.00000  0.14442
       5     C     3.14652  3.14652  0.00000 -0.29304
       6     H     0.46810  0.46810  0.00000  0.06380
       7     H     0.46369  0.46369  0.00000  0.07262
       8     H     0.45900  0.45900  0.00000  0.08199
       9     H     0.45150  0.45150  0.00000  0.09699
      10     H     0.44986  0.44986  0.00000  0.10028

   Total alpha = 13.00000, Total beta = 13.00000, Total charge = -0.00000

*** Psi4 exiting successfully. Buy a developer a beer!
