                              Psi4 1.0.54 Driver

  ==> Input File <==

--------------------------------------------------------------------------
set {
	reference rhf
	basis cc-pvtz
}

set_num_threads( 4 )
memory 2 gb

molecule MOL {
0 1

O	 -1.278239	 1.034789	 -0.784693
C	 -1.204115	 0.062668	 -0.112312
C	 -2.386398	 -0.667698	 0.460323
O	 -0.068058	 -0.518372	 0.226882
H	 -2.382952	 -1.693172	 0.114333
H	 -3.296656	 -0.175702	 0.158400
H	 -2.312537	 -0.685191	 1.540100
C	 1.169086	 0.037484	 -0.230612
C	 2.210884	 -0.337276	 0.804437
C	 1.024636	 1.537830	 -0.411455
H	 1.407341	 -0.419795	 -1.178884
H	 2.278808	 -1.412746	 0.906901
H	 3.181806	 0.040456	 0.507214
H	 1.960591	 0.083304	 1.771082
H	 1.964032	 1.962118	 -0.746141
H	 0.269272	 1.764537	 -1.150831
H	 0.751875	 2.008946	 0.526061

	symmetry c1
}
set optking {
	frozen_dihedral = ("
		11 8 4 2
	")
}

ee,wfn = optimize('scf', return_wfn=True)
oeprop( wfn, 'DIPOLE', 'QUADRUPOLE', 'MULLIKEN_CHARGES')
f=open( 'psi4out.xyz', 'w' )
f.write( "17  " )
f.write( str(ee) + "\n" )
f.write( MOL.save_string_xyz() )
f.close()
--------------------------------------------------------------------------

    Molecular point group: c1
  Charge       = 0
  Multiplicity = 1
  Basis Set: CC-PVTZ
  Basis Set:
  @DF-RHF Final Energy:  -345.01237278903812
    Total Energy =                       -345.0123727890384089
    Molecular point group: c1
  Basis Set: CC-PVTZ
  Basis Set:
  Basis Set: CC-PVTZ
  Basis Set:
  @DF-RHF Final Energy:  -345.03033082878022
    Total Energy =                       -345.0303308287803929
  Basis Set: CC-PVTZ
  Basis Set:
  Basis Set: CC-PVTZ
  Basis Set:
  @DF-RHF Final Energy:  -345.03348909006598
    Total Energy =                       -345.0334890900659275
  Basis Set: CC-PVTZ
  Basis Set:
  Basis Set: CC-PVTZ
  Basis Set:
  @DF-RHF Final Energy:  -344.92390835398720
    Total Energy =                       -344.9239083539877697
  Basis Set: CC-PVTZ
  Basis Set:
  @DF-RHF Final Energy:  -345.01305412155358
    Total Energy =                       -345.0130541215534663
  @DF-RHF Final Energy:  -345.03269216614933
    Total Energy =                       -345.0326921661491042
  @DF-RHF Final Energy:  -345.02858813059919
    Total Energy =                       -345.0285881305993598
  @DF-RHF Final Energy:  -345.03489081445485
    Total Energy =                       -345.0348908144545703
  @DF-RHF Final Energy:  -345.03505041778811
    Total Energy =                       -345.0350504177883977
  @DF-RHF Final Energy:  -345.03505916546209
    Total Energy =                       -345.0350591654620303
  @DF-RHF Final Energy:  -345.03506187460653
    Total Energy =                       -345.0350618746066971
  @DF-RHF Final Energy:  -345.03506321442984
    Total Energy =                       -345.0350632144297833
  @DF-RHF Final Energy:  -345.03506324911257
    Total Energy =                       -345.0350632491124543
  @DF-RHF Final Energy:  -345.03475995107965
    Total Energy =                       -345.0347599510798773
  @DF-RHF Final Energy:  -345.02769365748173
    Total Energy =                       -345.0276936574816773
  @DF-RHF Final Energy:  -345.03023980982618
    Total Energy =                       -345.0302398098261847
  @DF-RHF Final Energy:  -345.03195651013777
    Total Energy =                       -345.0319565101378316
  @DF-RHF Final Energy:  -345.03411026901239
    Total Energy =                       -345.0341102690121602
  @DF-RHF Final Energy:  -345.02980868305656
    Total Energy =                       -345.0298086830564444
  @DF-RHF Final Energy:  -345.03465546865493
    Total Energy =                       -345.0346554686549325
  @DF-RHF Final Energy:  -345.03200883511659
    Total Energy =                       -345.0320088351166987
  @DF-RHF Final Energy:  -345.03499536404047
    Total Energy =                       -345.0349953640403555
  @DF-RHF Final Energy:  -345.03503379357983
    Total Energy =                       -345.0350337935801122
  @DF-RHF Final Energy:  -345.03504565871049
    Total Energy =                       -345.0350456587105441
  Basis Set: CC-PVTZ
  Basis Set:
  @DF-RHF Final Energy:  -345.03505116910452
    Total Energy =                       -345.0350511691042925
  Basis Set: CC-PVTZ
  Basis Set:
  Basis Set: CC-PVTZ
  Basis Set:
  @DF-RHF Final Energy:  -345.03505628119979
    Total Energy =                       -345.0350562811996724
  Basis Set: CC-PVTZ
  Basis Set:
  Basis Set: CC-PVTZ
  Basis Set:
  @DF-RHF Final Energy:  -345.03505835132160
    Total Energy =                       -345.0350583513218794
  Basis Set: CC-PVTZ
  Basis Set:
  Charge       = 0
  Multiplicity = 1
  Basis Set: CC-PVTZ
  Basis Set:

    Orbital Energies (a.u.)
    -----------------------

    Doubly Occupied:

       1A    -20.589328     2A    -20.529450     3A    -11.366683
       4A    -11.294353     5A    -11.228919     6A    -11.217529
       7A    -11.211730     8A     -1.463916     9A     -1.364381
      10A     -1.080803    11A     -1.004096    12A     -0.947019
      13A     -0.859111    14A     -0.751003    15A     -0.692585
      16A     -0.681272    17A     -0.659903    18A     -0.615932
      19A     -0.586760    20A     -0.579661    21A     -0.553223
      22A     -0.548189    23A     -0.544219    24A     -0.518378
      25A     -0.503153    26A     -0.486814    27A     -0.447855
      28A     -0.432323

  @DF-RHF Final Energy:  -345.03505892049884

   => Energetics <=

    Nuclear Repulsion Energy =            324.2704767567391855
    One-Electron Energy =               -1113.0938949795113331
    Two-Electron Energy =                 443.7883593022732498
    DFT Exchange-Correlation Energy =       0.0000000000000000
    Empirical Dispersion Energy =           0.0000000000000000
    PCM Polarization Energy =               0.0000000000000000
    EFP Energy =                            0.0000000000000000
    Total Energy =                       -345.0350589204988978
    Molecular point group: c1
  Basis Set: CC-PVTZ
  Basis Set:

  -Total Gradient:
     Atom            X                  Y                   Z
    ------   -----------------  -----------------  -----------------
       1        0.000065754391    -0.000030037617    -0.000029070649
       2        0.000145194839     0.005813262972     0.001482407109
       3       -0.000036179788     0.000083220782     0.000028679804
       4        0.000792027830    -0.008930898327    -0.001186949487
       5        0.000017791444    -0.000027117567     0.000040694057
       6        0.000002841663    -0.000001079364    -0.000026158028
       7       -0.000008445794    -0.000055091646    -0.000007834203
       8       -0.005229314707     0.004441205959    -0.004814244102
       9       -0.000007033299     0.000014892298     0.000026879731
      10       -0.000086183821     0.000033058492     0.000139436818
      11        0.004276890204    -0.001359701050     0.004390842546
      12        0.000052706539    -0.000048138628     0.000017725242
      13       -0.000000543003     0.000031320236    -0.000013687584
      14       -0.000001562164    -0.000022100912     0.000035040901
      15        0.000039336635     0.000057347142     0.000022956730
      16        0.000059844605     0.000014547178    -0.000084209814
      17       -0.000083125578    -0.000014689947    -0.000022509069

  **** Optimization is complete! (in 28 steps) ****
    Final optimized geometry and variables:
    Molecular point group: c1

    Geometry (in Angstrom), charge = 0, multiplicity = 1:

    O           -1.621024673967    -0.160914380735    -0.803078762643
    C           -1.133679517702    -0.256973812852     0.270820284449
    C           -1.922123459776    -0.309123651474     1.551413186383
    O            0.159639274215    -0.361354066932     0.512051581357
    H           -1.659644620076    -1.199559703149     2.107305476955
    H           -2.976347769967    -0.305238984735     1.326725329596
    H           -1.670503766472     0.546649385840     2.165006994934
    C            1.195368020947    -0.127179185628    -0.454519678288
    C            2.417608853960     0.210967233409     0.385361394828
    C            0.903192177108     0.962116734973    -1.472425926060
    H            1.389591121421    -1.077141679491    -0.937565560053
    H            2.593937182689    -0.558041142810     1.126003734938
    H            3.294077898049     0.287402859543    -0.246518265253
    H            2.279778089664     1.155297436063     0.898945881055
    H            1.822680289238     1.179100617350    -2.003588187035
    H            0.148183791787     0.675824616456    -2.183002612782
    H            0.583165914010     1.871502318595    -0.976142906773

  Mulliken Charges: (a.u.)
   Center  Symbol    Alpha    Beta     Spin     Total
       1     O     4.19863  4.19863  0.00000 -0.39727
       2     C     2.80780  2.80780  0.00000  0.38440
       3     C     3.13787  3.13787  0.00000 -0.27574
       4     O     4.16068  4.16068  0.00000 -0.32136
       5     H     0.44482  0.44482  0.00000  0.11036
       6     H     0.43862  0.43862  0.00000  0.12276
       7     H     0.44776  0.44776  0.00000  0.10447
       8     C     2.93122  2.93122  0.00000  0.13756
       9     C     3.13786  3.13786  0.00000 -0.27573
      10     C     3.16193  3.16193  0.00000 -0.32387
      11     H     0.44890  0.44890  0.00000  0.10221
      12     H     0.44594  0.44594  0.00000  0.10812
      13     H     0.45534  0.45534  0.00000  0.08932
      14     H     0.45384  0.45384  0.00000  0.09232
      15     H     0.45060  0.45060  0.00000  0.09880
      16     H     0.42658  0.42658  0.00000  0.14683
      17     H     0.45159  0.45159  0.00000  0.09682

   Total alpha = 28.00000, Total beta = 28.00000, Total charge = -0.00000

*** Psi4 exiting successfully. Buy a developer a beer!
