                              Psi4 1.0.54 Driver

  ==> Input File <==

--------------------------------------------------------------------------
set {
	reference rhf
	basis cc-pvtz
}

set_num_threads( 4 )
memory 2 gb

molecule MOL {
0 1

H	 3.721907	 -0.933076	 -0.066039
O	 2.824271	 -1.154299	 0.131461
C	 2.076458	 -0.067370	 -0.038225
C	 0.626018	 -0.337582	 0.258241
O	 2.538288	 0.965419	 -0.381593
C	 -0.267326	 0.883135	 0.076490
H	 0.325620	 -1.161483	 -0.378003
H	 0.574537	 -0.713685	 1.275261
C	 -1.726822	 0.642622	 0.463839
H	 -0.210803	 1.217591	 -0.953497
H	 0.129920	 1.693110	 0.675679
C	 -2.240564	 -0.773082	 0.207146
H	 -2.342599	 1.340002	 -0.096280
H	 -1.869163	 0.891690	 1.513197
C	 -3.727062	 -0.924693	 0.513436
H	 -2.058499	 -1.035341	 -0.831655
H	 -1.684171	 -1.487867	 0.805031
H	 -4.066301	 -1.935967	 0.321279
H	 -4.322450	 -0.254007	 -0.096803
H	 -3.937135	 -0.697545	 1.553353

	symmetry c1
}
set optking {
	frozen_dihedral = ("
		12 9 6 10
	")
}

ee,wfn = optimize('scf', return_wfn=True)
oeprop( wfn, 'DIPOLE', 'QUADRUPOLE', 'MULLIKEN_CHARGES')
f=open( 'psi4out.xyz', 'w' )
f.write( "20  " )
f.write( str(ee) + "\n" )
f.write( MOL.save_string_xyz() )
f.close()
--------------------------------------------------------------------------

    Molecular point group: c1
  Charge       = 0
  Multiplicity = 1
  Basis Set: CC-PVTZ
  Basis Set:
  @DF-RHF Final Energy:  -384.09036626467031
    Total Energy =                       -384.0903662646702514
    Molecular point group: c1
  Basis Set: CC-PVTZ
  Basis Set:
  Basis Set: CC-PVTZ
  Basis Set:
  @DF-RHF Final Energy:  -384.08959380249161
    Total Energy =                       -384.0895938024917200
  Basis Set: CC-PVTZ
  Basis Set:
  Basis Set: CC-PVTZ
  Basis Set:
  @DF-RHF Final Energy:  -384.09118114072623
    Total Energy =                       -384.0911811407266896
  Basis Set: CC-PVTZ
  Basis Set:
  Basis Set: CC-PVTZ
  Basis Set:
  @DF-RHF Final Energy:  -384.09012716041195
    Total Energy =                       -384.0901271604119529
  Basis Set: CC-PVTZ
  Basis Set:
  Basis Set: CC-PVTZ
  Basis Set:
  @DF-RHF Final Energy:  -384.09126083968437
    Total Energy =                       -384.0912608396839687
  Basis Set: CC-PVTZ
  Basis Set:
  Basis Set: CC-PVTZ
  Basis Set:
  @DF-RHF Final Energy:  -384.09126007591834
    Total Energy =                       -384.0912600759179441
  Basis Set: CC-PVTZ
  Basis Set:
  Basis Set: CC-PVTZ
  Basis Set:
  @DF-RHF Final Energy:  -384.09127242557923
    Total Energy =                       -384.0912724255792909
  Basis Set: CC-PVTZ
  Basis Set:
  Charge       = 0
  Multiplicity = 1
  Basis Set: CC-PVTZ
  Basis Set:

    Orbital Energies (a.u.)
    -----------------------

    Doubly Occupied:

       1A    -20.603821     2A    -20.540532     3A    -11.373464
       4A    -11.239164     5A    -11.220707     6A    -11.219188
       7A    -11.218360     8A    -11.210700     9A     -1.477473
      10A     -1.368989    11A     -1.096387    12A     -1.041932
      13A     -0.962386    14A     -0.871314    15A     -0.822516
      16A     -0.771154    17A     -0.703736    18A     -0.692401
      19A     -0.669273    20A     -0.638943    21A     -0.599064
      22A     -0.596279    23A     -0.581237    24A     -0.554758
      25A     -0.539846    26A     -0.519050    27A     -0.497021
      28A     -0.484396    29A     -0.471875    30A     -0.463963
      31A     -0.455163    32A     -0.446905

  @DF-RHF Final Energy:  -384.09127307801151

   => Energetics <=

    Nuclear Repulsion Energy =            377.4615489066158602
    One-Electron Energy =               -1271.2016488441095134
    Two-Electron Energy =                 509.6488268594820283
    DFT Exchange-Correlation Energy =       0.0000000000000000
    Empirical Dispersion Energy =           0.0000000000000000
    PCM Polarization Energy =               0.0000000000000000
    EFP Energy =                            0.0000000000000000
    Total Energy =                       -384.0912730780115680
    Molecular point group: c1
  Basis Set: CC-PVTZ
  Basis Set:

  -Total Gradient:
     Atom            X                  Y                   Z
    ------   -----------------  -----------------  -----------------
       1        0.000039379914    -0.000021804603    -0.000002472272
       2        0.000018121829     0.000059813359     0.000010118778
       3       -0.000027719486     0.000002004155    -0.000081332125
       4       -0.000009722677     0.000020262592     0.000033769600
       5        0.000020841815    -0.000060392011     0.000035539315
       6        0.000511954746    -0.007589915267    -0.001398375298
       7       -0.000009024549    -0.000005261363    -0.000000231284
       8       -0.000002512220    -0.000005495605     0.000003000764
       9       -0.001784901309     0.003978463349    -0.005056024061
      10       -0.000003012768     0.005466048119     0.002548554522
      11       -0.000005617686    -0.000008275063    -0.000005239324
      12        0.001255275771    -0.001815963046     0.003937615041
      13       -0.000008127415     0.000001366948     0.000003825266
      14        0.000015287229     0.000000812590    -0.000006697562
      15       -0.000005359521    -0.000019507402    -0.000019612317
      16       -0.000007627457    -0.000004310143     0.000013258839
      17       -0.000027624286    -0.000005447977    -0.000008841360
      18        0.000002755497     0.000003820851    -0.000001166939
      19        0.000012743045     0.000002196817     0.000002160845
      20        0.000014889532     0.000001583701    -0.000007850430

  **** Optimization is complete! (in 8 steps) ****
    Final optimized geometry and variables:
    Molecular point group: c1

    Geometry (in Angstrom), charge = 0, multiplicity = 1:

    H            3.663225842644    -0.954108490934    -0.318117421171
    O            2.759965301732    -1.164829437488    -0.135198058406
    C            2.045264562224    -0.044665542639    -0.200058817934
    C            0.588359234827    -0.299378897176     0.080591262222
    O            2.537347661801     1.000536669894    -0.451252484700
    C           -0.262803381864     0.959842576008     0.012428408382
    H            0.261753457259    -1.054446780017    -0.624054458671
    H            0.532791875645    -0.763699432403     1.060058942187
    C           -1.741282434954     0.783942638652     0.397316523325
    H           -0.183747658723     1.416936864421    -0.967104838980
    H            0.171690420996     1.695475293271     0.679272165047
    C           -2.402012213115    -0.532793222646    -0.009700302638
    H           -2.302672635790     1.613195167489    -0.019838859283
    H           -1.832845693546     0.875986283263     1.476953754718
    C           -3.887291146353    -0.567841082050     0.335838435095
    H           -2.281448463164    -0.693582202731    -1.078410013969
    H           -1.906315616248    -1.362248931095     0.482671648847
    H           -4.333641333872    -1.514382558704     0.053835418888
    H           -4.427615416533     0.219629564686    -0.178431319768
    H           -4.043518914771    -0.432718829437     1.401006820816

  Mulliken Charges: (a.u.)
   Center  Symbol    Alpha    Beta     Spin     Total
       1     H     0.38233  0.38233  0.00000  0.23534
       2     O     4.15972  4.15972  0.00000 -0.31945
       3     C     2.80785  2.80785  0.00000  0.38430
       4     C     3.11429  3.11429  0.00000 -0.22859
       5     O     4.19059  4.19059  0.00000 -0.38118
       6     C     3.09115  3.09115  0.00000 -0.18230
       7     H     0.43399  0.43399  0.00000  0.13202
       8     H     0.43646  0.43646  0.00000  0.12708
       9     C     3.09492  3.09492  0.00000 -0.18984
      10     H     0.44408  0.44408  0.00000  0.11184
      11     H     0.44236  0.44236  0.00000  0.11528
      12     C     3.09163  3.09163  0.00000 -0.18326
      13     H     0.44722  0.44722  0.00000  0.10555
      14     H     0.45290  0.45290  0.00000  0.09421
      15     C     3.15078  3.15078  0.00000 -0.30157
      16     H     0.45253  0.45253  0.00000  0.09495
      17     H     0.45135  0.45135  0.00000  0.09731
      18     H     0.44763  0.44763  0.00000  0.10473
      19     H     0.45344  0.45344  0.00000  0.09312
      20     H     0.45477  0.45477  0.00000  0.09046

   Total alpha = 32.00000, Total beta = 32.00000, Total charge =  0.00000

*** Psi4 exiting successfully. Buy a developer a beer!
