                              Psi4 1.0.54 Driver

  ==> Input File <==

--------------------------------------------------------------------------
set {
	reference rhf
	basis cc-pvtz
}

set_num_threads( 4 )
memory 2 gb

molecule MOL {
0 1

O	 -2.374409	 1.338660	 -0.336961
C	 -2.104891	 0.204655	 -0.107126
C	 -0.881910	 -0.448129	 -0.720509
C	 -2.949910	 -0.638219	 0.818225
C	 0.009347	 0.591915	 -1.411025
H	 -1.226923	 -1.171474	 -1.448416
H	 -0.314321	 -0.973449	 0.040245
C	 1.244114	 -0.037300	 -2.052854
H	 -0.584330	 1.107167	 -2.155532
H	 0.325363	 1.341024	 -0.689036
C	 2.199994	 0.961938	 -2.706861
H	 0.927985	 -0.768339	 -2.792869
H	 1.789152	 -0.590229	 -1.292718
C	 1.631816	 1.682649	 -3.926955
H	 3.098236	 0.429668	 -3.003773
H	 2.513651	 1.694643	 -1.967878
H	 1.304627	 0.973465	 -4.680344
H	 2.382472	 2.320609	 -4.378941
H	 0.784851	 2.307994	 -3.672251
H	 -3.440322	 -1.417144	 0.243099
H	 -3.694377	 -0.025850	 1.303346
H	 -2.331085	 -1.129829	 1.560495

	symmetry c1
}
set optking {
	frozen_dihedral = ("
		6 3 2 1
	")
}

ee,wfn = optimize('scf', return_wfn=True)
oeprop( wfn, 'DIPOLE', 'QUADRUPOLE', 'MULLIKEN_CHARGES')
f=open( 'psi4out.xyz', 'w' )
f.write( "22  " )
f.write( str(ee) + "\n" )
f.write( MOL.save_string_xyz() )
f.close()
--------------------------------------------------------------------------

    Molecular point group: c1
  Charge       = 0
  Multiplicity = 1
  Basis Set: CC-PVTZ
  Basis Set:
  @DF-RHF Final Energy:  -348.22384655464049
    Total Energy =                       -348.2238465546402040
    Molecular point group: c1
  Basis Set: CC-PVTZ
  Basis Set:
  Basis Set: CC-PVTZ
  Basis Set:
  @DF-RHF Final Energy:  -348.21966491342312
    Total Energy =                       -348.2196649134234576
  Basis Set: CC-PVTZ
  Basis Set:
  Basis Set: CC-PVTZ
  Basis Set:
  @DF-RHF Final Energy:  -348.22433994547117
    Total Energy =                       -348.2243399454711152
  Basis Set: CC-PVTZ
  Basis Set:
  Basis Set: CC-PVTZ
  Basis Set:
  @DF-RHF Final Energy:  -348.22334670378774
    Total Energy =                       -348.2233467037870582
  Basis Set: CC-PVTZ
  Basis Set:
  @DF-RHF Final Energy:  -348.22498761579078
    Total Energy =                       -348.2249876157909512
  @DF-RHF Final Energy:  -348.22505975989225
    Total Energy =                       -348.2250597598921331
  @DF-RHF Final Energy:  -348.22509511759540
    Total Energy =                       -348.2250951175954015
  @DF-RHF Final Energy:  -348.22510733804148
    Total Energy =                       -348.2251073380416528
  Basis Set: CC-PVTZ
  Basis Set:
  @DF-RHF Final Energy:  -348.22516161686065
    Total Energy =                       -348.2251616168612145
  Basis Set: CC-PVTZ
  Basis Set:
  Basis Set: CC-PVTZ
  Basis Set:
  @DF-RHF Final Energy:  -348.22515926351980
    Total Energy =                       -348.2251592635197994
  Basis Set: CC-PVTZ
  Basis Set:
  Basis Set: CC-PVTZ
  Basis Set:
  @DF-RHF Final Energy:  -348.22516414926719
    Total Energy =                       -348.2251641492674707
  Basis Set: CC-PVTZ
  Basis Set:
  Charge       = 0
  Multiplicity = 1
  Basis Set: CC-PVTZ
  Basis Set:

    Orbital Energies (a.u.)
    -----------------------

    Doubly Occupied:

       1A    -20.538624     2A    -11.320694     3A    -11.230323
       4A    -11.226812     5A    -11.215767     6A    -11.214826
       7A    -11.214442     8A    -11.205611     9A     -1.398856
      10A     -1.092065    11A     -1.044091    12A     -1.001853
      13A     -0.935721    14A     -0.854966    15A     -0.781997
      16A     -0.731979    17A     -0.659099    18A     -0.649829
      19A     -0.632050    20A     -0.615681    21A     -0.601186
      22A     -0.580648    23A     -0.561585    24A     -0.547390
      25A     -0.524954    26A     -0.511716    27A     -0.499416
      28A     -0.486953    29A     -0.465884    30A     -0.462591
      31A     -0.458084    32A     -0.401592

  @DF-RHF Final Energy:  -348.22516432599002

   => Energetics <=

    Nuclear Repulsion Energy =            373.0190588760168566
    One-Electron Energy =               -1211.1538796415675279
    Two-Electron Energy =                 489.9096564395606492
    DFT Exchange-Correlation Energy =       0.0000000000000000
    Empirical Dispersion Energy =           0.0000000000000000
    PCM Polarization Energy =               0.0000000000000000
    EFP Energy =                            0.0000000000000000
    Total Energy =                       -348.2251643259900220
    Molecular point group: c1
  Basis Set: CC-PVTZ
  Basis Set:

  -Total Gradient:
     Atom            X                  Y                   Z
    ------   -----------------  -----------------  -----------------
       1       -0.000306506905    -0.000111176224    -0.000402494018
       2        0.000431259064     0.000245305246     0.000511900647
       3       -0.000099601060    -0.000529418689     0.000195521904
       4       -0.000002680764    -0.000006375190    -0.000009666123
       5        0.000006236763     0.000003387459    -0.000003430715
       6       -0.000027348134     0.000392345597    -0.000301545334
       7       -0.000003051041     0.000000426981     0.000002754495
       8       -0.000001144916     0.000002866850    -0.000000112247
       9        0.000002142752     0.000002204177    -0.000003186942
      10        0.000003707093     0.000001653674    -0.000003592309
      11       -0.000001829213     0.000001132427     0.000003597264
      12       -0.000000278165     0.000001481935    -0.000000308737
      13       -0.000001846126    -0.000000795331     0.000001983849
      14        0.000000016326     0.000000317132    -0.000000971860
      15       -0.000003253964     0.000000212645    -0.000000336550
      16        0.000002035131     0.000000641877    -0.000001510806
      17        0.000001226454    -0.000000760104     0.000000130217
      18       -0.000000093948     0.000001107990     0.000001200243
      19        0.000000326202    -0.000001847635     0.000000428166
      20       -0.000000594554    -0.000001502818     0.000002321373
      21       -0.000001777435    -0.000000403674     0.000002913551
      22        0.000003056444    -0.000000804325     0.000004403931

  **** Optimization is complete! (in 12 steps) ****
    Final optimized geometry and variables:
    Molecular point group: c1

    Geometry (in Angstrom), charge = 0, multiplicity = 1:

    O           -1.974804455742     0.751738935834     1.230882641709
    C           -1.642099873134    -0.387223273081     1.277068811835
    C           -0.459857718679    -0.918495764917     0.492062367916
    C           -2.390489534659    -1.393569923614     2.120972196519
    C            0.427070701167     0.159760757767    -0.116014871639
    H           -0.868413228237    -1.556764689144    -0.289495303810
    H            0.113463417627    -1.578130896335     1.137772324020
    C            1.583345680636    -0.428223131618    -0.922374132939
    H           -0.182952119210     0.803007631645    -0.735327757251
    H            0.818399332887     0.788057847369     0.677864448584
    C            2.552262641470     0.609346150212    -1.491929020183
    H            1.186576604029    -1.030224893736    -1.737273301336
    H            2.144289917347    -1.110197369823    -0.288431057436
    C            1.950706630442     1.527291515699    -2.553192417695
    H            3.399621286300     0.085732035496    -1.923774584491
    H            2.950295766944     1.210608838748    -0.678948222954
    H            1.538698570711     0.952596767485    -3.376681821517
    H            2.706299440325     2.189596697080    -2.959876681437
    H            1.157649396856     2.146196218892    -2.152048825662
    H           -2.612768962192    -2.287306444440     1.549263266130
    H           -3.303839800169    -0.955437516468     2.493096365915
    H           -1.768708654475    -1.692448581923     2.958553884784

  Mulliken Charges: (a.u.)
   Center  Symbol    Alpha    Beta     Spin     Total
       1     O     4.17160  4.17160  0.00000 -0.34320
       2     C     2.86141  2.86141  0.00000  0.27718
       3     C     3.11365  3.11365  0.00000 -0.22729
       4     C     3.15183  3.15183  0.00000 -0.30365
       5     C     3.08677  3.08677  0.00000 -0.17354
       6     H     0.44436  0.44436  0.00000  0.11128
       7     H     0.44490  0.44490  0.00000  0.11020
       8     C     3.09608  3.09608  0.00000 -0.19216
       9     H     0.44117  0.44117  0.00000  0.11766
      10     H     0.44880  0.44880  0.00000  0.10241
      11     C     3.09008  3.09008  0.00000 -0.18016
      12     H     0.45482  0.45482  0.00000  0.09036
      13     H     0.45092  0.45092  0.00000  0.09816
      14     C     3.15270  3.15270  0.00000 -0.30540
      15     H     0.44862  0.44862  0.00000  0.10276
      16     H     0.45400  0.45400  0.00000  0.09199
      17     H     0.45567  0.45567  0.00000  0.08866
      18     H     0.44659  0.44659  0.00000  0.10682
      19     H     0.45066  0.45066  0.00000  0.09868
      20     H     0.45097  0.45097  0.00000  0.09806
      21     H     0.43561  0.43561  0.00000  0.12879
      22     H     0.44880  0.44880  0.00000  0.10239

   Total alpha = 32.00000, Total beta = 32.00000, Total charge = -0.00000

*** Psi4 exiting successfully. Buy a developer a beer!
