                              Psi4 1.0.54 Driver

  ==> Input File <==

--------------------------------------------------------------------------
set {
	reference rhf
	basis cc-pvtz
}

set_num_threads( 4 )
memory 2 gb

molecule MOL {
0 1

H	 -4.024094	 -0.454727	 0.000004
C	 -2.962215	 -0.297920	 0.000004
C	 -2.454736	 0.988978	 0.000025
C	 -2.105837	 -1.382632	 -0.000016
H	 -3.120052	 1.830438	 0.000041
C	 -1.090106	 1.189676	 0.000026
H	 -2.500390	 -2.380229	 -0.000033
C	 -0.739175	 -1.183302	 -0.000016
H	 -0.680214	 2.179144	 0.000042
C	 -0.227341	 0.104540	 0.000006
H	 -0.073209	 -2.021168	 -0.000032
C	 1.238974	 0.374429	 0.000004
O	 1.858414	 -0.128679	 -1.051263
O	 1.798342	 0.978209	 0.853079
C	 3.254678	 0.077658	 -1.137476
H	 3.481129	 1.132642	 -1.170735
H	 3.568338	 -0.400674	 -2.050934
H	 3.756927	 -0.366107	 -0.291180

	symmetry c1
}
set optking {
	frozen_dihedral = ("
		13 12 10 6
	")
}

ee,wfn = optimize('scf', return_wfn=True)
oeprop( wfn, 'DIPOLE', 'QUADRUPOLE', 'MULLIKEN_CHARGES')
f=open( 'psi4out.xyz', 'w' )
f.write( "18  " )
f.write( str(ee) + "\n" )
f.write( MOL.save_string_xyz() )
f.close()
--------------------------------------------------------------------------

    Molecular point group: c1
  Charge       = 0
  Multiplicity = 1
  Basis Set: CC-PVTZ
  Basis Set:
  @DF-RHF Final Energy:  -457.50196871665861
    Total Energy =                       -457.5019687166593485
    Molecular point group: c1
  Basis Set: CC-PVTZ
  Basis Set:
  Basis Set: CC-PVTZ
  Basis Set:
  @DF-RHF Final Energy:  -457.49960977764363
    Total Energy =                       -457.4996097776438546
  Basis Set: CC-PVTZ
  Basis Set:
  Basis Set: CC-PVTZ
  Basis Set:
  @DF-RHF Final Energy:  -457.50225292548254
    Total Energy =                       -457.5022529254829351
  Basis Set: CC-PVTZ
  Basis Set:
  Basis Set: CC-PVTZ
  Basis Set:
  @DF-RHF Final Energy:  -457.50245384489364
    Total Energy =                       -457.5024538448933527
  Basis Set: CC-PVTZ
  Basis Set:
  Basis Set: CC-PVTZ
  Basis Set:
  @DF-RHF Final Energy:  -457.50247748089078
    Total Energy =                       -457.5024774808907750
  Basis Set: CC-PVTZ
  Basis Set:
  Charge       = 0
  Multiplicity = 1
  Basis Set: CC-PVTZ
  Basis Set:

    Orbital Energies (a.u.)
    -----------------------

    Doubly Occupied:

       1A    -20.603352     2A    -20.539067     3A    -11.373681
       4A    -11.282138     5A    -11.249069     6A    -11.242431
       7A    -11.241468     8A    -11.239673     9A    -11.237610
      10A    -11.237026    11A     -1.479122    12A     -1.371474
      13A     -1.171783    14A     -1.052632    15A     -1.029745
      16A     -0.981845    17A     -0.862911    18A     -0.841582
      19A     -0.783198    20A     -0.742949    21A     -0.688485
      22A     -0.683929    23A     -0.681027    24A     -0.634891
      25A     -0.632697    26A     -0.600452    27A     -0.593422
      28A     -0.554819    29A     -0.537871    30A     -0.520816
      31A     -0.512843    32A     -0.505016    33A     -0.464433
      34A     -0.449445    35A     -0.348174    36A     -0.347449

  @DF-RHF Final Energy:  -457.50247926286011

   => Energetics <=

    Nuclear Repulsion Energy =            493.2348692545191398
    One-Electron Energy =               -1600.8376522807691344
    Two-Electron Energy =                 650.1003037633904569
    DFT Exchange-Correlation Energy =       0.0000000000000000
    Empirical Dispersion Energy =           0.0000000000000000
    PCM Polarization Energy =               0.0000000000000000
    EFP Energy =                            0.0000000000000000
    Total Energy =                       -457.5024792628596515
    Molecular point group: c1
  Basis Set: CC-PVTZ
  Basis Set:

  -Total Gradient:
     Atom            X                  Y                   Z
    ------   -----------------  -----------------  -----------------
       1       -0.000001078547     0.000007694275    -0.000005792547
       2        0.000021116415    -0.000134148676     0.000028218048
       3        0.000108536791     0.000090691662    -0.000003467851
       4       -0.000126806109     0.000040286964    -0.000024852047
       5       -0.000011797719    -0.000006082805    -0.000004631635
       6       -0.000189475607    -0.000016457920    -0.004921499211
       7        0.000003643576    -0.000001278266     0.000003395503
       8        0.000057036255     0.000114415668     0.000019325366
       9        0.000012594113    -0.000005808575     0.000004738343
      10       -0.000230965172     0.001238331529     0.006287894599
      11       -0.000007251244    -0.000004239918     0.000000384651
      12        0.001050134684    -0.005454786171     0.001029427833
      13       -0.000815887263     0.004232388902    -0.002299483128
      14        0.000056660977    -0.000084048534    -0.000098176432
      15        0.000068493537    -0.000041002290    -0.000019348214
      16       -0.000016245260     0.000004977090     0.000000412385
      17        0.000021704043     0.000015335873     0.000001834956
      18       -0.000000413471     0.000003731191     0.000001619379

  **** Optimization is complete! (in 6 steps) ****
    Final optimized geometry and variables:
    Molecular point group: c1

    Geometry (in Angstrom), charge = 0, multiplicity = 1:

    H           -3.999264198339    -0.570426353502     0.110321598628
    C           -2.939654667312    -0.401330542156     0.127849581504
    C           -2.446120748132     0.889542192344     0.141866594983
    C           -2.068664660106    -1.474754878014     0.130963081485
    H           -3.120354707040     1.724040956715     0.129739501830
    C           -1.082698859054     1.108309620994     0.174466998478
    H           -2.449852890585    -2.477577747185     0.116143176846
    C           -0.704784940519    -1.258030200543     0.139436436724
    H           -0.693992302830     2.107534521044     0.203149018557
    C           -0.211739499697     0.033792244882     0.184933658703
    H           -0.027741671598    -2.089764973729     0.114877302222
    C            1.260196473163     0.297875689649     0.171886711031
    O            1.851836197988    -0.230758175457    -0.881772715854
    O            1.825823123025     0.949331310284     0.981910916676
    C            3.249576505123    -0.042801200571    -0.999390477155
    H            3.485221227087     1.008469130385    -1.069049505225
    H            3.541370895512    -0.551887928201    -1.903226422362
    H            3.763547394191    -0.464852930718    -0.148662107676

  Mulliken Charges: (a.u.)
   Center  Symbol    Alpha    Beta     Spin     Total
       1     H     0.42121  0.42121  0.00000  0.15758
       2     C     3.08049  3.08049  0.00000 -0.16098
       3     C     3.06690  3.06690  0.00000 -0.13380
       4     C     3.06698  3.06698  0.00000 -0.13397
       5     H     0.42140  0.42140  0.00000  0.15720
       6     C     3.09313  3.09313  0.00000 -0.18626
       7     H     0.42169  0.42169  0.00000  0.15661
       8     C     3.09013  3.09013  0.00000 -0.18026
       9     H     0.41675  0.41675  0.00000  0.16649
      10     C     2.93161  2.93161  0.00000  0.13677
      11     H     0.42229  0.42229  0.00000  0.15541
      12     C     2.83713  2.83713  0.00000  0.32573
      13     O     4.14307  4.14307  0.00000 -0.28615
      14     O     4.20047  4.20047  0.00000 -0.40095
      15     C     3.03711  3.03711  0.00000 -0.07422
      16     H     0.45229  0.45229  0.00000  0.09542
      17     H     0.44330  0.44330  0.00000  0.11341
      18     H     0.45402  0.45402  0.00000  0.09195

   Total alpha = 36.00000, Total beta = 36.00000, Total charge = -0.00000

*** Psi4 exiting successfully. Buy a developer a beer!
