  ==> Input File <==

--------------------------------------------------------------------------
set {
	reference rhf
	basis 6-31G*
}

set_num_threads( 4 )
memory 2 gb

molecule MOL {
0 1

H	 -0.013643	 -3.612818	 -0.881656
O	 0.295734	 -2.784407	 -0.528376
C	 -0.720249	 -1.922353	 -0.544869
C	 -0.318135	 -0.576402	 0.000164
O	 -1.796484	 -2.221067	 -0.949201
C	 -1.454360	 0.441875	 -0.000474
H	 0.068477	 -0.735216	 1.003315
H	 0.525028	 -0.226671	 -0.589555
C	 -2.826123	 -0.230780	 0.000056
H	 -1.357605	 1.085198	 -0.868380
H	 -1.357504	 1.086451	 0.866496
H	 -2.959731	 -0.858053	 -0.876869
H	 -3.619374	 0.509403	 -0.000080
H	 -2.959371	 -0.857318	 0.877556

	symmetry c1
}
set optking {
	frozen_dihedral = ("
		7 4 6 10
	")
}

ee = optimize('scf')
oeprop('DIPOLE', 'QUADRUPOLE', 'MULLIKEN_CHARGES')
f=open( 'psi4out.xyz', 'w' )
f.write( "14  " )
f.write( str(ee) + "\n" )
f.write( MOL.save_string_xyz() )
f.close()
--------------------------------------------------------------------------

    Molecular point group: c1
  Charge       = 0
  Multiplicity = 1
  Basis Set: 6-31G*
  Basis Set:
  @DF-RHF Final Energy:  -305.85041574496790
    Total Energy =                       -305.8504157449679042
    Molecular point group: c1
  Basis Set: 6-31G*
  Basis Set:
  Basis Set: 6-31G*
  Basis Set:
  @DF-RHF Final Energy:  -305.86689877587685
    Total Energy =                       -305.8668987758766207
  Basis Set: 6-31G*
  Basis Set:
  Basis Set: 6-31G*
  Basis Set:
  @DF-RHF Final Energy:  -305.87054661355842
    Total Energy =                       -305.8705466135585311
  Basis Set: 6-31G*
  Basis Set:
  Basis Set: 6-31G*
  Basis Set:
  @DF-RHF Final Energy:  -305.86712045208100
    Total Energy =                       -305.8671204520807123
  Basis Set: 6-31G*
  Basis Set:
  @DF-RHF Final Energy:  -305.87238151726524
    Total Energy =                       -305.8723815172651257
  @DF-RHF Final Energy:  -305.87293140632733
    Total Energy =                       -305.8729314063273819
  @DF-RHF Final Energy:  -305.87348498257813
    Total Energy =                       -305.8734849825782476
  @DF-RHF Final Energy:  -305.87371641143892
    Total Energy =                       -305.8737164114392044
  Basis Set: 6-31G*
  Basis Set:
  @DF-RHF Final Energy:  -305.87377976084099
    Total Energy =                       -305.8737797608408755
  Basis Set: 6-31G*
  Basis Set:
  Basis Set: 6-31G*
  Basis Set:
  @DF-RHF Final Energy:  -305.87378920375590
    Total Energy =                       -305.8737892037557913
  Basis Set: 6-31G*
  Basis Set:
  Basis Set: 6-31G*
  Basis Set:
  @DF-RHF Final Energy:  -305.87379074615330
    Total Energy =                       -305.8737907461532473
  Basis Set: 6-31G*
  Basis Set:
  Charge       = 0
  Multiplicity = 1
  Basis Set: 6-31G*
  Basis Set:

    Orbital Energies (a.u.)
    -----------------------

    Doubly Occupied:

       1A    -20.614706     2A    -20.549904     3A    -11.382693
       4A    -11.241264     5A    -11.230763     6A    -11.209986
       7A     -1.475860     8A     -1.365645     9A     -1.078649
      10A     -0.977036    11A     -0.863925    12A     -0.789277
      13A     -0.702656    14A     -0.684822    15A     -0.657106
      16A     -0.618433    17A     -0.592165    18A     -0.568442
      19A     -0.552653    20A     -0.504615    21A     -0.489633
      22A     -0.480326    23A     -0.473992    24A     -0.439548

  @DF-RHF Final Energy:  -305.87379124235611

   => Energetics <=

    Nuclear Repulsion Energy =            245.1160400717750747
    One-Electron Energy =                -902.8914626056913448
    Two-Electron Energy =                 351.9016312915599656
    DFT Exchange-Correlation Energy =       0.0000000000000000
    Empirical Dispersion Energy =           0.0000000000000000
    PCM Polarization Energy =               0.0000000000000000
    EFP Energy =                            0.0000000000000000
    Total Energy =                       -305.8737912423563330
    Molecular point group: c1
  Basis Set: 6-31G*
  Basis Set:

  -Total Gradient:
     Atom            X                  Y                   Z
    ------   -----------------  -----------------  -----------------
       1        0.000005041235    -0.000037228716     0.000020586970
       2       -0.000040320719     0.000019536413    -0.000074974660
       3        0.000019516400     0.000078842122     0.000027951682
       4       -0.004706127334    -0.005698154695     0.002302574669
       5       -0.000019262168     0.000001940594     0.000023543292
       6       -0.003675033457    -0.004280212398    -0.004628343369
       7        0.004467802469     0.005331984218    -0.001154392320
       8        0.000002530417     0.000011401045     0.000022682042
       9        0.000046056098     0.000039201080    -0.000041795874
      10        0.003856714462     0.004551989593     0.003521720906
      11        0.000011653190     0.000049074502    -0.000014238864
      12        0.000006685129    -0.000031540072    -0.000022016182
      13        0.000004472023    -0.000031355347    -0.000000766213
      14        0.000020272251    -0.000005478336     0.000017467922

  **** Optimization is complete! (in 12 steps) ****
    Final optimized geometry and variables:
    Molecular point group: c1

    Geometry (in Angstrom), charge = 0, multiplicity = 1:

    H            0.979921313836    -2.448850526891    -0.178213946289
    O            1.142588772134    -1.648584312000     0.312152485607
    C            0.494409819225    -0.656247159380    -0.293092692843
    C            0.747702619662     0.676737037371     0.359746191173
    O           -0.161462689177    -0.834173748559    -1.268665955836
    C           -0.433122321506     1.669239127400     0.372444753286
    H            1.164527881443     0.543975207562     1.349594090110
    H            1.559178692095     1.113841845150    -0.219727707391
    C           -1.825254152677     1.064237629767     0.546236241895
    H           -0.386069414767     2.305893427285    -0.504016275797
    H           -0.247691124274     2.343103639268     1.205092698407
    H           -2.113324666710     0.467311885593    -0.308010306949
    H           -2.559464428850     1.853268241387     0.672663522927
    H           -1.867779409290     0.433619469412     1.430971811879

  Mulliken Charges: (a.u.)
   Center  Symbol    Alpha    Beta     Spin     Total
       1     H     0.26809  0.26809  0.00000  0.46381
       2     O     4.34877  4.34877  0.00000 -0.69753
       3     C     2.62248  2.62248  0.00000  0.75505
       4     C     3.21655  3.21655  0.00000 -0.43310
       5     O     4.28143  4.28143  0.00000 -0.56285
       6     C     3.14933  3.14933  0.00000 -0.29867
       7     H     0.39708  0.39708  0.00000  0.20584
       8     H     0.39599  0.39599  0.00000  0.20802
       9     C     3.25184  3.25184  0.00000 -0.50369
      10     H     0.41178  0.41178  0.00000  0.17644
      11     H     0.41722  0.41722  0.00000  0.16556
      12     H     0.39840  0.39840  0.00000  0.20320
      13     H     0.41814  0.41814  0.00000  0.16373
      14     H     0.42290  0.42290  0.00000  0.15420

   Total alpha = 24.00000, Total beta = 24.00000, Total charge = -0.00000
