                              Psi4 1.0.54 Driver

  ==> Input File <==

--------------------------------------------------------------------------
set {
	reference rhf
	basis cc-pvtz
}

set_num_threads( 4 )
memory 2 gb

molecule MOL {
0 1

H	 1.712323	 -1.698466	 -2.156636
O	 1.330297	 -1.630304	 -1.294577
C	 0.345067	 -0.738183	 -1.340005
C	 -0.318151	 -0.570512	 0.000144
O	 0.057697	 -0.168032	 -2.335151
C	 -1.454884	 0.441630	 -0.000560
H	 -0.663942	 -1.551142	 0.311085
H	 0.456290	 -0.292708	 0.707933
C	 -2.822577	 -0.232186	 0.000063
H	 -1.359760	 1.084704	 -0.867077
H	 -1.359641	 1.085996	 0.864983
H	 -2.954352	 -0.858985	 -0.875745
H	 -3.615886	 0.505352	 0.000019
H	 -2.953878	 -0.858359	 0.876394

	symmetry c1
}
set optking {
	frozen_dihedral = ("
		7 4 6 10
	")
}

ee,wfn = optimize('scf', return_wfn=True)
oeprop( wfn, 'DIPOLE', 'QUADRUPOLE', 'MULLIKEN_CHARGES')
f=open( 'psi4out.xyz', 'w' )
f.write( "14  " )
f.write( str(ee) + "\n" )
f.write( MOL.save_string_xyz() )
f.close()
--------------------------------------------------------------------------

    Molecular point group: c1
  Charge       = 0
  Multiplicity = 1
  Basis Set: CC-PVTZ
  Basis Set:
  @DF-RHF Final Energy:  -305.99702679931204
    Total Energy =                       -305.9970267993119819
    Molecular point group: c1
  Basis Set: CC-PVTZ
  Basis Set:
  Basis Set: CC-PVTZ
  Basis Set:
  @DF-RHF Final Energy:  -305.99741746476263
    Total Energy =                       -305.9974174647629184
  Basis Set: CC-PVTZ
  Basis Set:
  Basis Set: CC-PVTZ
  Basis Set:
  @DF-RHF Final Energy:  -305.99741890654877
    Total Energy =                       -305.9974189065487735
  Basis Set: CC-PVTZ
  Basis Set:
  Basis Set: CC-PVTZ
  Basis Set:
  @DF-RHF Final Energy:  -305.99739191596871
    Total Energy =                       -305.9973919159687057
  Basis Set: CC-PVTZ
  Basis Set:
  Basis Set: CC-PVTZ
  Basis Set:
  @DF-RHF Final Energy:  -305.99749598287633
    Total Energy =                       -305.9974959828762167
  Basis Set: CC-PVTZ
  Basis Set:
  Basis Set: CC-PVTZ
  Basis Set:
  @DF-RHF Final Energy:  -305.99749812266003
    Total Energy =                       -305.9974981226598629
  Basis Set: CC-PVTZ
  Basis Set:
  Basis Set: CC-PVTZ
  Basis Set:
  @DF-RHF Final Energy:  -305.99749981417790
    Total Energy =                       -305.9974998141780134
  Basis Set: CC-PVTZ
  Basis Set:
  Charge       = 0
  Multiplicity = 1
  Basis Set: CC-PVTZ
  Basis Set:

    Orbital Energies (a.u.)
    -----------------------

    Doubly Occupied:

       1A    -20.604905     2A    -20.541857     3A    -11.374755
       4A    -11.239948     5A    -11.222548     6A    -11.211985
       7A     -1.478811     8A     -1.370228     9A     -1.081589
      10A     -0.979092    11A     -0.860299    12A     -0.790836
      13A     -0.705895    14A     -0.696093    15A     -0.661544
      16A     -0.614380    17A     -0.599592    18A     -0.566434
      19A     -0.560524    20A     -0.493937    21A     -0.491029
      22A     -0.487346    23A     -0.480171    24A     -0.448947

  @DF-RHF Final Energy:  -305.99750007168223

   => Energetics <=

    Nuclear Repulsion Energy =            242.8150334780177388
    One-Electron Energy =                -898.4995817433543834
    Two-Electron Energy =                 349.6870481936544479
    DFT Exchange-Correlation Energy =       0.0000000000000000
    Empirical Dispersion Energy =           0.0000000000000000
    PCM Polarization Energy =               0.0000000000000000
    EFP Energy =                            0.0000000000000000
    Total Energy =                       -305.9975000716821683
    Molecular point group: c1
  Basis Set: CC-PVTZ
  Basis Set:

  -Total Gradient:
     Atom            X                  Y                   Z
    ------   -----------------  -----------------  -----------------
       1       -0.000008843488     0.000004508100     0.000005717970
       2        0.000000825392    -0.000016515109     0.000015369662
       3        0.000026375726     0.000039320841    -0.000048351923
       4        0.000485721085     0.000485322626     0.003670824093
       5       -0.000012495404    -0.000010161793     0.000032573524
       6        0.002180831403     0.002425430235     0.001308112654
       7       -0.000750896155    -0.000789162479    -0.003226562469
       8        0.000006312730     0.000000873822    -0.000005208632
       9       -0.000017584891     0.000002527209     0.000000956091
      10       -0.001908530850    -0.002149576586    -0.001742094705
      11       -0.000005047578     0.000007357765    -0.000009574470
      12        0.000002617004    -0.000000422489     0.000000901724
      13       -0.000005675698    -0.000002430204    -0.000000721547
      14        0.000006390726     0.000002928062    -0.000001941970

  **** Optimization is complete! (in 8 steps) ****
    Final optimized geometry and variables:
    Molecular point group: c1

    Geometry (in Angstrom), charge = 0, multiplicity = 1:

    H            2.148500893194    -1.189389115880    -1.327611459621
    O            1.808503777707    -1.083203852960    -0.451927832398
    C            0.780503309717    -0.240846261833    -0.499059011998
    C            0.174234788392    -0.034770290327     0.866462158701
    O            0.418743195718     0.251110788367    -1.511626109501
    C           -0.986237211882     0.965262996222     0.889662636180
    H           -0.146517187189    -1.021335967384     1.184955863121
    H            0.981242491536     0.253578765127     1.528417881956
    C           -2.353883796793     0.286551346185     0.874525637028
    H           -0.915655462660     1.604788811131     0.021221215727
    H           -0.902808263572     1.590738006805     1.769991592440
    H           -2.469227475185    -0.330864043788    -0.009524639063
    H           -3.150357624766     1.021146003420     0.869694009461
    H           -2.490857451803    -0.346161539148     1.745387649384

  Mulliken Charges: (a.u.)
   Center  Symbol    Alpha    Beta     Spin     Total
       1     H     0.38232  0.38232  0.00000  0.23536
       2     O     4.16001  4.16001  0.00000 -0.32002
       3     C     2.80243  2.80243  0.00000  0.39514
       4     C     3.11355  3.11355  0.00000 -0.22710
       5     O     4.19217  4.19217  0.00000 -0.38434
       6     C     3.08830  3.08830  0.00000 -0.17659
       7     H     0.43891  0.43891  0.00000  0.12218
       8     H     0.43003  0.43003  0.00000  0.13994
       9     C     3.14867  3.14867  0.00000 -0.29734
      10     H     0.44018  0.44018  0.00000  0.11964
      11     H     0.44772  0.44772  0.00000  0.10457
      12     H     0.45048  0.45048  0.00000  0.09903
      13     H     0.44808  0.44808  0.00000  0.10385
      14     H     0.45716  0.45716  0.00000  0.08568

   Total alpha = 24.00000, Total beta = 24.00000, Total charge =  0.00000

*** Psi4 exiting successfully. Buy a developer a beer!
