  ==> Input File <==

--------------------------------------------------------------------------
set {
	reference rhf
	basis 6-31G*
}

set_num_threads( 4 )
memory 2 gb

molecule MOL {
0 1

O	 2.996827	 0.228511	 -1.470465
C	 2.578714	 -0.338223	 -0.512835
C	 1.138596	 -0.358030	 -0.060666
O	 3.347903	 -1.046386	 0.304773
C	 0.210637	 0.434548	 -0.978724
H	 0.843266	 -1.399255	 0.015640
H	 1.112992	 0.032851	 0.953362
C	 -1.235344	 0.511781	 -0.477060
H	 0.232198	 -0.001089	 -1.973145
H	 0.604279	 1.439742	 -1.083859
C	 -1.983368	 -0.824305	 -0.455988
H	 -1.777591	 1.203377	 -1.117675
H	 -1.250303	 0.949734	 0.519928
C	 -3.452203	 -0.677524	 -0.053521
H	 -1.924904	 -1.282549	 -1.442098
H	 -1.498489	 -1.514382	 0.230785
C	 -4.208336	 -2.007005	 -0.023969
H	 -3.948397	 0.001826	 -0.744542
H	 -3.511628	 -0.209534	 0.927883
C	 -5.675356	 -1.851212	 0.375133
H	 -4.149106	 -2.476484	 -1.003624
H	 -3.716383	 -2.685892	 0.669482
H	 -6.184172	 -2.810155	 0.387039
H	 -6.204157	 -1.204936	 -0.319772
H	 -5.767993	 -1.415390	 1.365966
C	 4.728119	 -1.109107	 -0.004993
H	 4.882018	 -1.033965	 -1.071845
H	 5.068212	 -2.067527	 0.355250
H	 5.265056	 -0.311663	 0.488280

	symmetry c1
}
set optking {
	frozen_dihedral = ("
		2 4 26 27
	")
}

ee = optimize('scf')
oeprop('DIPOLE', 'QUADRUPOLE', 'MULLIKEN_CHARGES')
f=open( 'psi4out.xyz', 'w' )
f.write( "29  " )
f.write( str(ee) + "\n" )
f.write( MOL.save_string_xyz() )
f.close()
--------------------------------------------------------------------------

    Molecular point group: c1
  Charge       = 0
  Multiplicity = 1
  Basis Set: 6-31G*
  Basis Set:
  @DF-RHF Final Energy:  -501.04267052900786
    Total Energy =                       -501.0426705290085465
    Molecular point group: c1
  Basis Set: 6-31G*
  Basis Set:
  Basis Set: 6-31G*
  Basis Set:
  @DF-RHF Final Energy:  -501.04277547319975
    Total Energy =                       -501.0427754731999812
  Basis Set: 6-31G*
  Basis Set:
  Basis Set: 6-31G*
  Basis Set:
  @DF-RHF Final Energy:  -501.04273191300024
    Total Energy =                       -501.0427319130001251
  Basis Set: 6-31G*
  Basis Set:
  Basis Set: 6-31G*
  Basis Set:
  @DF-RHF Final Energy:  -501.04295047156381
    Total Energy =                       -501.0429504715640405
  Basis Set: 6-31G*
  Basis Set:
  Basis Set: 6-31G*
  Basis Set:
  @DF-RHF Final Energy:  -501.04295212449131
    Total Energy =                       -501.0429521244909665
  Basis Set: 6-31G*
  Basis Set:
  Charge       = 0
  Multiplicity = 1
  Basis Set: 6-31G*
  Basis Set:

    Orbital Energies (a.u.)
    -----------------------

    Doubly Occupied:

       1A    -20.602810     2A    -20.544784     3A    -11.372771
       4A    -11.279917     5A    -11.234360     6A    -11.218782
       7A    -11.217436     8A    -11.215875     9A    -11.215761
      10A    -11.214352    11A    -11.209009    12A     -1.467511
      13A     -1.362801    14A     -1.097855    15A     -1.066643
      16A     -1.019549    17A     -0.977595    18A     -0.928503
      19A     -0.861407    20A     -0.799093    21A     -0.790331
      22A     -0.763427    23A     -0.701281    24A     -0.680955
      25A     -0.672058    26A     -0.650728    27A     -0.628564
      28A     -0.604927    29A     -0.595501    30A     -0.580835
      31A     -0.567222    32A     -0.549623    33A     -0.533428
      34A     -0.527960    35A     -0.515911    36A     -0.511601
      37A     -0.496289    38A     -0.477692    39A     -0.469979
      40A     -0.462280    41A     -0.458734    42A     -0.453481
      43A     -0.441317    44A     -0.435090

  @DF-RHF Final Energy:  -501.04295215518505

   => Energetics <=

    Nuclear Repulsion Energy =            609.9055364561802435
    One-Electron Energy =               -1890.9449250763912005
    Two-Electron Energy =                 779.9964364650259085
    DFT Exchange-Correlation Energy =       0.0000000000000000
    Empirical Dispersion Energy =           0.0000000000000000
    PCM Polarization Energy =               0.0000000000000000
    EFP Energy =                            0.0000000000000000
    Total Energy =                       -501.0429521551850485
    Molecular point group: c1
  Basis Set: 6-31G*
  Basis Set:

  -Total Gradient:
     Atom            X                  Y                   Z
    ------   -----------------  -----------------  -----------------
       1       -0.000007686441    -0.000009563139     0.000019222053
       2       -0.000247610476    -0.001156574629    -0.000790251980
       3        0.000006724294    -0.000023926208    -0.000002874967
       4        0.000396934493     0.002116578134     0.001141043153
       5       -0.000003130957    -0.000001846817    -0.000003068952
       6        0.000015526166     0.000016952592     0.000001124121
       7        0.000006132930     0.000008821651     0.000004968190
       8        0.000001677996    -0.000005710824     0.000003256945
       9       -0.000002225087    -0.000007521850    -0.000002790334
      10       -0.000004493345    -0.000000480136    -0.000005187566
      11       -0.000004547965     0.000002275570     0.000003794847
      12       -0.000000746071     0.000005932995     0.000004747911
      13        0.000007092971    -0.000007744215     0.000003643650
      14       -0.000001014005     0.000002422786    -0.000006552550
      15        0.000004099404    -0.000003465549    -0.000000753270
      16       -0.000013977638     0.000006118369    -0.000000100329
      17       -0.000000580217     0.000000328498    -0.000002669286
      18       -0.000001494748     0.000001470368     0.000000788034
      19        0.000001200952    -0.000001511247    -0.000000750233
      20        0.000000030515     0.000000047916     0.000000094477
      21       -0.000000364028    -0.000000469251    -0.000000119565
      22        0.000000288403     0.000000350991    -0.000000019283
      23        0.000000126201    -0.000000001932     0.000000187121
      24        0.000000116094    -0.000000164598     0.000000012493
      25       -0.000000049958     0.000000126274     0.000000009849
      26       -0.000323413589    -0.002601953021    -0.000480613583
      27        0.000148829516     0.001654049591     0.000102003894
      28       -0.000010388202     0.000009285406     0.000006378548
      29        0.000032942789    -0.000003827729     0.000004476618

  **** Optimization is complete! (in 6 steps) ****
    Final optimized geometry and variables:
    Molecular point group: c1

    Geometry (in Angstrom), charge = 0, multiplicity = 1:

    O            3.086180854555     0.891565690424    -1.179036213487
    C            2.676503796727     0.323297570560    -0.218873331180
    C            1.237466679734     0.298682928467     0.237354904483
    O            3.445514506306    -0.380892630392     0.603241473646
    C            0.304249942539     1.089845865911    -0.676524523671
    H            0.945447449774    -0.743428619881     0.313473385606
    H            1.214093934535     0.688296024504     1.251913026783
    C           -1.140430306820     1.161583515620    -0.170277948210
    H            0.324085728863     0.656081714503    -1.671791243638
    H            0.694308681849     2.096489456677    -0.781071817809
    C           -1.885157353541    -0.176400180946    -0.152049155054
    H           -1.686319385924     1.854213980819    -0.806679638149
    H           -1.153542844112     1.595744218569     0.828394561130
    C           -3.353609449804    -0.034492183249     0.253563201310
    H           -1.827402093999    -0.631362475831    -1.139720627015
    H           -1.397335751408    -0.867463746348     0.531625784486
    C           -4.106447906495    -1.365895204093     0.280321692686
    H           -3.852736963549     0.645814265292    -0.434393548635
    H           -3.412362001610     0.430262052373     1.236539095397
    C           -5.572971096635    -1.215020772533     0.683138253836
    H           -4.048219756694    -1.831973850359    -0.701016082486
    H           -3.611333265781    -2.045883263384     0.970437471537
    H           -6.079382766749    -2.175263225186     0.693110218428
    H           -6.104897058913    -0.567851764347    -0.008539541005
    H           -5.664502984698    -0.782576150911     1.675552603655
    C            4.826277986394    -0.490045631385     0.304795529646
    H            4.994851934659    -0.445427965137    -0.758858326162
    H            5.153710717266    -1.435271125967     0.709819816481
    H            5.364689030325     0.318122251698     0.782549221446

  Mulliken Charges: (a.u.)
   Center  Symbol    Alpha    Beta     Spin     Total
       1     O     4.28574  4.28574  0.00000 -0.57148
       2     C     2.60457  2.60457  0.00000  0.79086
       3     C     3.20991  3.20991  0.00000 -0.41981
       4     O     4.30865  4.30865  0.00000 -0.61729
       5     C     3.15377  3.15377  0.00000 -0.30753
       6     H     0.39900  0.39900  0.00000  0.20199
       7     H     0.40119  0.40119  0.00000  0.19761
       8     C     3.15661  3.15661  0.00000 -0.31323
       9     H     0.41316  0.41316  0.00000  0.17368
      10     H     0.40878  0.40878  0.00000  0.18243
      11     C     3.15502  3.15502  0.00000 -0.31005
      12     H     0.41828  0.41828  0.00000  0.16344
      13     H     0.42388  0.42388  0.00000  0.15223
      14     C     3.15029  3.15029  0.00000 -0.30058
      15     H     0.42265  0.42265  0.00000  0.15470
      16     H     0.42363  0.42363  0.00000  0.15275
      17     C     3.15145  3.15145  0.00000 -0.30290
      18     H     0.42333  0.42333  0.00000  0.15334
      19     H     0.42398  0.42398  0.00000  0.15205
      20     C     3.23934  3.23934  0.00000 -0.47869
      21     H     0.42282  0.42282  0.00000  0.15437
      22     H     0.42345  0.42345  0.00000  0.15310
      23     H     0.41925  0.41925  0.00000  0.16150
      24     H     0.42155  0.42155  0.00000  0.15690
      25     H     0.42183  0.42183  0.00000  0.15634
      26     C     3.09546  3.09546  0.00000 -0.19092
      27     H     0.39943  0.39943  0.00000  0.20114
      28     H     0.40960  0.40960  0.00000  0.18079
      29     H     0.41338  0.41338  0.00000  0.17325

   Total alpha = 44.00000, Total beta = 44.00000, Total charge =  0.00000
