  ==> Input File <==

--------------------------------------------------------------------------
set {
	reference rhf
	basis 6-31G*
}

set_num_threads( 4 )
memory 2 gb

molecule MOL {
0 1

O	 -1.643844	 -1.797945	 -1.459029
C	 -0.718266	 -1.501476	 -0.774080
C	 0.570769	 -2.280386	 -0.664758
O	 -0.698257	 -0.426125	 0.001050
C	 0.591529	 -3.527195	 -1.539974
H	 0.711654	 -2.530273	 0.382598
H	 1.381574	 -1.604610	 -0.920075
H	 -0.208728	 -4.205775	 -1.270748
H	 1.535611	 -4.049044	 -1.425093
H	 0.467566	 -3.271735	 -2.585296
C	 -1.853104	 0.406779	 0.000512
C	 -3.066105	 -0.499277	 -0.000959
H	 -1.828410	 1.043074	 -0.873618
H	 -1.829857	 1.042383	 0.875188
H	 -3.071820	 -1.133106	 -0.880383
H	 -3.972708	 0.097145	 -0.001528
H	 -3.073405	 -1.133813	 0.877999

	symmetry c1
}
set optking {
	frozen_dihedral = ("
		2 4 11 13
	")
}

ee = optimize('scf')
oeprop('DIPOLE', 'QUADRUPOLE', 'MULLIKEN_CHARGES')
f=open( 'psi4out.xyz', 'w' )
f.write( "17  " )
f.write( str(ee) + "\n" )
f.write( MOL.save_string_xyz() )
f.close()
--------------------------------------------------------------------------

    Molecular point group: c1
  Charge       = 0
  Multiplicity = 1
  Basis Set: 6-31G*
  Basis Set:
  @DF-RHF Final Energy:  -344.87753986351800
    Total Energy =                       -344.8775398635182228
    Molecular point group: c1
  Basis Set: 6-31G*
  Basis Set:
  Basis Set: 6-31G*
  Basis Set:
  @DF-RHF Final Energy:  -344.89999478900091
    Total Energy =                       -344.8999947890010844
  Basis Set: 6-31G*
  Basis Set:
  Basis Set: 6-31G*
  Basis Set:
  @DF-RHF Final Energy:  -344.90460784940620
    Total Energy =                       -344.9046078494061476
  Basis Set: 6-31G*
  Basis Set:
  Basis Set: 6-31G*
  Basis Set:
  @DF-RHF Final Energy:  -344.90172714797677
    Total Energy =                       -344.9017271479769420
  Basis Set: 6-31G*
  Basis Set:
  @DF-RHF Final Energy:  -344.90590204305170
    Total Energy =                       -344.9059020430515830
  Basis Set: 6-31G*
  Basis Set:
  @DF-RHF Final Energy:  -344.90615120186152
    Total Energy =                       -344.9061512018615758
  Basis Set: 6-31G*
  Basis Set:
  Basis Set: 6-31G*
  Basis Set:
  @DF-RHF Final Energy:  -344.90617211168438
    Total Energy =                       -344.9061721116845547
  Basis Set: 6-31G*
  Basis Set:
  Basis Set: 6-31G*
  Basis Set:
  @DF-RHF Final Energy:  -344.90617492395427
    Total Energy =                       -344.9061749239540404
  Basis Set: 6-31G*
  Basis Set:
  Charge       = 0
  Multiplicity = 1
  Basis Set: 6-31G*
  Basis Set:

    Orbital Energies (a.u.)
    -----------------------

    Doubly Occupied:

       1A    -20.599485     2A    -20.543266     3A    -11.372073
       4A    -11.288577     5A    -11.236359     6A    -11.216545
       7A    -11.214982     8A     -1.463993     9A     -1.361927
      10A     -1.068103    11A     -1.027984    12A     -0.918542
      13A     -0.857304    14A     -0.747892    15A     -0.699253
      16A     -0.679758    17A     -0.662511    18A     -0.626004
      19A     -0.608612    20A     -0.566464    21A     -0.546333
      22A     -0.530216    23A     -0.520934    24A     -0.516880
      25A     -0.494752    26A     -0.490237    27A     -0.449970
      28A     -0.430531

  @DF-RHF Final Energy:  -344.90617554676760

   => Energetics <=

    Nuclear Repulsion Energy =            319.3361190708417325
    One-Electron Energy =               -1103.0056108330688858
    Two-Electron Energy =                 438.7633162154596675
    DFT Exchange-Correlation Energy =       0.0000000000000000
    Empirical Dispersion Energy =           0.0000000000000000
    PCM Polarization Energy =               0.0000000000000000
    EFP Energy =                            0.0000000000000000
    Total Energy =                       -344.9061755467674857
    Molecular point group: c1
  Basis Set: 6-31G*
  Basis Set:

  -Total Gradient:
     Atom            X                  Y                   Z
    ------   -----------------  -----------------  -----------------
       1        0.000017151985    -0.000002313149    -0.000026266667
       2       -0.001926910697    -0.003138359177     0.004380159380
       3       -0.000005398669    -0.000055433544     0.000060792319
       4        0.003677678839     0.005726917897    -0.005783328721
       5       -0.000003949104     0.000020460716    -0.000016808832
       6        0.000016493295     0.000015951676    -0.000006253048
       7        0.000004459794     0.000019249029    -0.000020181259
       8       -0.000006362339    -0.000015161783    -0.000000575972
       9       -0.000008490798     0.000010355865     0.000009260385
      10       -0.000001764932    -0.000004748003    -0.000003058995
      11       -0.004884122394    -0.006977815966    -0.001769904572
      12        0.000007492039    -0.000022559171    -0.000001894498
      13        0.003195892243     0.004374168561     0.003177737588
      14       -0.000029642873    -0.000001260018     0.000011895445
      15       -0.000025903407    -0.000004839796    -0.000010589340
      16       -0.000031068731     0.000026586337     0.000016786689
      17        0.000004445752     0.000028800528    -0.000017769900

  **** Optimization is complete! (in 9 steps) ****
    Final optimized geometry and variables:
    Molecular point group: c1

    Geometry (in Angstrom), charge = 0, multiplicity = 1:

    O           -0.530785017292    -0.454237665519    -1.010473026799
    C            0.295795352942    -0.153735476654    -0.210478001398
    C            1.560636262894    -0.935210442679     0.059423787735
    O            0.242510293580     0.930544985191     0.549129474600
    C            1.712126106653    -2.156809611433    -0.838104142729
    H            1.550612715705    -1.215371305897     1.108737637394
    H            2.396632795884    -0.252324742834    -0.056709776623
    H            0.883885755367    -2.842399759992    -0.706835684030
    H            2.631668318423    -2.682000467495    -0.602507243154
    H            1.739998467219    -1.871939563972    -1.882905170287
    C           -0.930664510431     1.741585428099     0.611735470782
    C           -2.238258562504     1.003177396579     0.840642576427
    H           -0.952284525701     2.385403164250    -0.258568108357
    H           -0.730756672445     2.381080097827     1.460608508569
    H           -2.555855701730     0.444694426544    -0.025210072245
    H           -3.002218337112     1.734610190317     1.087524475926
    H           -2.144935062782     0.324139473523     1.682244893520

  Mulliken Charges: (a.u.)
   Center  Symbol    Alpha    Beta     Spin     Total
       1     O     4.28700  4.28700  0.00000 -0.57400
       2     C     2.60300  2.60300  0.00000  0.79399
       3     C     3.20479  3.20479  0.00000 -0.40958
       4     O     4.31854  4.31854  0.00000 -0.63708
       5     C     3.23870  3.23870  0.00000 -0.47740
       6     H     0.40185  0.40185  0.00000  0.19630
       7     H     0.40032  0.40032  0.00000  0.19936
       8     H     0.41015  0.41015  0.00000  0.17970
       9     H     0.41848  0.41848  0.00000  0.16304
      10     H     0.41038  0.41038  0.00000  0.17924
      11     C     2.99617  2.99617  0.00000  0.00765
      12     C     3.26361  3.26361  0.00000 -0.52721
      13     H     0.41227  0.41227  0.00000  0.17546
      14     H     0.41043  0.41043  0.00000  0.17915
      15     H     0.39007  0.39007  0.00000  0.21986
      16     H     0.41807  0.41807  0.00000  0.16387
      17     H     0.41617  0.41617  0.00000  0.16765

   Total alpha = 28.00000, Total beta = 28.00000, Total charge = -0.00000
