  ==> Input File <==

--------------------------------------------------------------------------
set {
	reference rhf
	basis 6-31G*
}

set_num_threads( 4 )
memory 2 gb

molecule MOL {
0 1

H	 -3.420663	 1.227371	 -1.044276
O	 -3.452007	 0.283848	 -0.965577
C	 -3.181085	 -0.079926	 0.364119
C	 -1.765924	 0.277073	 0.805136
H	 -3.327791	 -1.152017	 0.410903
H	 -3.905698	 0.375695	 1.036898
C	 -0.677594	 -0.417312	 -0.014550
H	 -1.637766	 1.358238	 0.744969
H	 -1.659588	 0.017670	 1.857098
C	 0.738335	 -0.034840	 0.421385
H	 -0.814977	 -0.178223	 -1.064632
H	 -0.802730	 -1.495410	 0.071702
C	 1.367308	 -1.064374	 1.364007
H	 1.359521	 0.087751	 -0.462650
H	 0.715417	 0.935750	 0.915384
C	 2.752180	 -0.682436	 1.899178
H	 1.432067	 -2.025090	 0.855552
H	 0.700042	 -1.214502	 2.210195
C	 3.848894	 -0.615095	 0.834711
H	 3.042798	 -1.410509	 2.652665
H	 2.687855	 0.274967	 2.412445
H	 3.927723	 -1.555669	 0.295966
H	 4.814507	 -0.413429	 1.288317
H	 3.662027	 0.168083	 0.107472

	symmetry c1
}
set optking {
	frozen_dihedral = ("
		13 10 7 11
	")
}

ee = optimize('scf')
oeprop('DIPOLE', 'QUADRUPOLE', 'MULLIKEN_CHARGES')
f=open( 'psi4out.xyz', 'w' )
f.write( "24  " )
f.write( str(ee) + "\n" )
f.write( MOL.save_string_xyz() )
f.close()
--------------------------------------------------------------------------

    Molecular point group: c1
  Charge       = 0
  Multiplicity = 1
  Basis Set: 6-31G*
  Basis Set:
  @DF-RHF Final Energy:  -349.24333049678580
    Total Energy =                       -349.2433304967858021
    Molecular point group: c1
  Basis Set: 6-31G*
  Basis Set:
  Basis Set: 6-31G*
  Basis Set:
  @DF-RHF Final Energy:  -349.24357011949616
    Total Energy =                       -349.2435701194960984
  Basis Set: 6-31G*
  Basis Set:
  Basis Set: 6-31G*
  Basis Set:
  @DF-RHF Final Energy:  -349.24361928796560
    Total Energy =                       -349.2436192879658279
  Basis Set: 6-31G*
  Basis Set:
  Basis Set: 6-31G*
  Basis Set:
  @DF-RHF Final Energy:  -349.24362780485023
    Total Energy =                       -349.2436278048501208
  Basis Set: 6-31G*
  Basis Set:
  Basis Set: 6-31G*
  Basis Set:
  @DF-RHF Final Energy:  -349.24365333192770
    Total Energy =                       -349.2436533319277601
  Basis Set: 6-31G*
  Basis Set:
  Basis Set: 6-31G*
  Basis Set:
  @DF-RHF Final Energy:  -349.24365641949998
    Total Energy =                       -349.2436564195000983
  Basis Set: 6-31G*
  Basis Set:
  Charge       = 0
  Multiplicity = 1
  Basis Set: 6-31G*
  Basis Set:

    Orbital Energies (a.u.)
    -----------------------

    Doubly Occupied:

       1A    -20.553515     2A    -11.267599     3A    -11.217878
       4A    -11.214566     5A    -11.213000     6A    -11.212089
       7A    -11.211004     8A    -11.207473     9A     -1.360108
      10A     -1.088009    11A     -1.047507    12A     -0.984434
      13A     -0.915289    14A     -0.852690    15A     -0.802804
      16A     -0.775275    17A     -0.679670    18A     -0.646120
      19A     -0.626508    20A     -0.619595    21A     -0.594400
      22A     -0.584668    23A     -0.567834    24A     -0.534841
      25A     -0.521247    26A     -0.509814    27A     -0.491480
      28A     -0.484108    29A     -0.466065    30A     -0.458361
      31A     -0.457145    32A     -0.438364    33A     -0.422462

  @DF-RHF Final Energy:  -349.24365661615894

   => Energetics <=

    Nuclear Repulsion Energy =            385.8067601883314524
    One-Electron Energy =               -1238.0489913959597743
    Two-Electron Energy =                 502.9985745914693780
    DFT Exchange-Correlation Energy =       0.0000000000000000
    Empirical Dispersion Energy =           0.0000000000000000
    PCM Polarization Energy =               0.0000000000000000
    EFP Energy =                            0.0000000000000000
    Total Energy =                       -349.2436566161588871
    Molecular point group: c1
  Basis Set: 6-31G*
  Basis Set:

  -Total Gradient:
     Atom            X                  Y                   Z
    ------   -----------------  -----------------  -----------------
       1        0.000002004011    -0.000009611781     0.000008282892
       2        0.000037907941    -0.000030287426    -0.000005483434
       3       -0.000048078393     0.000089547600     0.000026115440
       4       -0.000033801468    -0.000112433981    -0.000010368454
       5        0.000007352417     0.000009200194    -0.000005659074
       6       -0.000022436383    -0.000001064131     0.000000704341
       7       -0.000906274333     0.003371939664     0.000233768867
       8        0.000001381845    -0.000029914954    -0.000017453852
       9        0.000002243026    -0.000003969177     0.000014630052
      10       -0.000934151985     0.000921335969     0.002397845535
      11        0.000936519568    -0.003071086732    -0.000846359946
      12       -0.000044904299     0.000040529974     0.000021049593
      13        0.000923156769    -0.001165858413    -0.001898443946
      14        0.000042683499     0.000017289534     0.000047785405
      15        0.000027283335    -0.000017495536     0.000012401593
      16        0.000017140738    -0.000027913909     0.000011347762
      17       -0.000013422312    -0.000002442134     0.000006578129
      18        0.000001267657     0.000029470864    -0.000006425901
      19       -0.000005164794     0.000006502754    -0.000000383648
      20        0.000017353485    -0.000003628747     0.000006000547
      21       -0.000005137644    -0.000006068877    -0.000004583774
      22       -0.000001617305    -0.000001147994     0.000003230071
      23       -0.000000671823    -0.000000468424     0.000002233049
      24       -0.000000633538    -0.000002424334     0.000003188756

  **** Optimization is complete! (in 7 steps) ****
    Final optimized geometry and variables:
    Molecular point group: c1

    Geometry (in Angstrom), charge = 0, multiplicity = 1:

    H           -3.361099980713     1.447646908433    -1.612359221013
    O           -3.384164128716     0.507545169793    -1.498159622495
    C           -3.077970603118     0.194873095951    -0.163123111276
    C           -1.658114221490     0.585090749766     0.231013974335
    H           -3.208866906678    -0.876597543430    -0.075455283313
    H           -3.792992063610     0.664711170120     0.510191083352
    C           -0.579409639288    -0.105916449043    -0.604469495786
    H           -1.549230372160     1.666381162534     0.144217154161
    H           -1.519557184284     0.350887053373     1.285293212232
    C            0.857733466628     0.240875074135    -0.168347804024
    H           -0.723687054113     0.127419269629    -1.653311375541
    H           -0.721639079109    -1.183011757712    -0.533020069465
    C            1.466586372007    -0.797751296369     0.779819942597
    H            1.486523834976     0.325126193645    -1.049406160989
    H            0.874370057179     1.220540614325     0.306138756238
    C            2.840699280267    -0.423666336279     1.346352444595
    H            1.539802953862    -1.750843114897     0.259035349969
    H            0.784482512376    -0.960379339028     1.612630997202
    C            3.953661352375    -0.325869800268     0.301184304516
    H            3.122557790434    -1.168399011662     2.086834450106
    H            2.763823791152     0.521005119560     1.881100874242
    H            4.043012433483    -1.251431917053    -0.261337577884
    H            4.911568118285    -0.134793869230     0.775218130206
    H            3.776187456939     0.476090169702    -0.407571888233

  Mulliken Charges: (a.u.)
   Center  Symbol    Alpha    Beta     Spin     Total
       1     H     0.28336  0.28336  0.00000  0.43328
       2     O     4.36826  4.36826  0.00000 -0.73652
       3     C     2.99636  2.99636  0.00000  0.00728
       4     C     3.17011  3.17011  0.00000 -0.34023
       5     H     0.41620  0.41620  0.00000  0.16761
       6     H     0.42821  0.42821  0.00000  0.14358
       7     C     3.15547  3.15547  0.00000 -0.31094
       8     H     0.42774  0.42774  0.00000  0.14452
       9     H     0.42195  0.42195  0.00000  0.15609
      10     C     3.15710  3.15710  0.00000 -0.31421
      11     H     0.41007  0.41007  0.00000  0.17986
      12     H     0.42197  0.42197  0.00000  0.15607
      13     C     3.15354  3.15354  0.00000 -0.30709
      14     H     0.41840  0.41840  0.00000  0.16320
      15     H     0.42415  0.42415  0.00000  0.15169
      16     C     3.15241  3.15241  0.00000 -0.30482
      17     H     0.42298  0.42298  0.00000  0.15403
      18     H     0.42368  0.42368  0.00000  0.15264
      19     C     3.24127  3.24127  0.00000 -0.48253
      20     H     0.42134  0.42134  0.00000  0.15732
      21     H     0.42387  0.42387  0.00000  0.15225
      22     H     0.42206  0.42206  0.00000  0.15587
      23     H     0.41951  0.41951  0.00000  0.16098
      24     H     0.41997  0.41997  0.00000  0.16006

   Total alpha = 33.00000, Total beta = 33.00000, Total charge = -0.00000
