  ==> Input File <==

--------------------------------------------------------------------------
set {
	reference rhf
	basis cc-pvtz
}

set_num_threads( 4 )
memory 2 gb

molecule MOL {
0 1

H	 -2.852248	 -0.077316	 0.025131
N	 -1.895638	 0.047910	 0.278679
C	 -1.189410	 0.827614	 -0.721044
H	 -1.483748	 -0.857535	 0.359373
C	 0.260386	 1.001585	 -0.330566
H	 -1.226561	 0.389818	 -1.717788
H	 -1.644599	 1.810135	 -0.780258
O	 0.881195	 -0.248324	 -0.336237
H	 0.755464	 1.668308	 -1.035229
H	 0.321214	 1.446491	 0.660033
C	 2.208068	 -0.234417	 0.074171
H	 2.725499	 -1.027054	 -0.446768
H	 2.688377	 0.712084	 -0.164856
H	 2.295137	 -0.403407	 1.144883

	symmetry c1
}
set optking {
	frozen_dihedral = ("
		5 8 11 13
	")
}

ee = optimize('scf')
oeprop('DIPOLE', 'QUADRUPOLE', 'MULLIKEN_CHARGES')
f=open( 'psi4out.xyz', 'w' )
f.write( "14  " )
f.write( str(ee) + "\n" )
f.write( MOL.save_string_xyz() )
f.close()
--------------------------------------------------------------------------

    Molecular point group: c1
  Charge       = 0
  Multiplicity = 1
  Basis Set: CC-PVTZ
  Basis Set:
  @DF-RHF Final Energy:  -248.22425335578322
    Total Energy =                       -248.2242533557832189
    Molecular point group: c1
  Basis Set: CC-PVTZ
  Basis Set:
  Basis Set: CC-PVTZ
  Basis Set:
  @DF-RHF Final Energy:  -248.22434366220773
    Total Energy =                       -248.2243436622077297
  Basis Set: CC-PVTZ
  Basis Set:
  Basis Set: CC-PVTZ
  Basis Set:
  @DF-RHF Final Energy:  -248.22437100134260
    Total Energy =                       -248.2243710013426607
  Basis Set: CC-PVTZ
  Basis Set:
  Charge       = 0
  Multiplicity = 1
  Basis Set: CC-PVTZ
  Basis Set:

    Orbital Energies (a.u.)
    -----------------------

    Doubly Occupied:

       1A    -20.548923     2A    -15.523389     3A    -11.264226
       4A    -11.263440     5A    -11.239657     6A     -1.382118
       7A     -1.175836     8A     -1.000448     9A     -0.907770
      10A     -0.815675    11A     -0.684961    12A     -0.674435
      13A     -0.646324    14A     -0.611726    15A     -0.607308
      16A     -0.541863    17A     -0.532950    18A     -0.497799
      19A     -0.474384    20A     -0.416892    21A     -0.383760

  @DF-RHF Final Energy:  -248.22437122383718

   => Energetics <=

    Nuclear Repulsion Energy =            194.5495178849555487
    One-Electron Energy =                -723.1600112675944274
    Two-Electron Energy =                 280.3861221588015837
    DFT Exchange-Correlation Energy =       0.0000000000000000
    Empirical Dispersion Energy =           0.0000000000000000
    PCM Polarization Energy =               0.0000000000000000
    EFP Energy =                            0.0000000000000000
    Total Energy =                       -248.2243712238372950
    Molecular point group: c1
  Basis Set: CC-PVTZ
  Basis Set:

  -Total Gradient:
     Atom            X                  Y                   Z
    ------   -----------------  -----------------  -----------------
       1        0.000004014833     0.000006374526    -0.000007389708
       2        0.000013497346     0.000010723553    -0.000005517715
       3       -0.000024839901     0.000016871495    -0.000006927667
       4        0.000005504079     0.000003323301    -0.000002070148
       5        0.000618818577     0.000340809839    -0.002113480109
       6       -0.000003007060    -0.000000474375     0.000008245949
       7       -0.000024794730     0.000006775414    -0.000005300699
       8       -0.001064822141    -0.000193280853     0.003786051266
       9       -0.000001448804    -0.000014906476     0.000006222198
      10        0.000007178688     0.000000414770    -0.000005681218
      11        0.001260598157    -0.001199397217    -0.004155490123
      12        0.000014739884    -0.000006123001    -0.000007166363
      13       -0.000797636476     0.001022597321     0.002508109507
      14       -0.000007802447     0.000006291704     0.000000394828

  **** Optimization is complete! (in 4 steps) ****
    Final optimized geometry and variables:
    Molecular point group: c1

    Geometry (in Angstrom), charge = 0, multiplicity = 1:

    H           -2.910743586893    -0.344995867440     0.231497370397
    N           -1.954006326651    -0.217201293764     0.483212304158
    C           -1.252475484024     0.566878857821    -0.516310020029
    H           -1.539090004252    -1.121546928304     0.560545257961
    C            0.196820018908     0.747831175599    -0.127253289734
    H           -1.287781140675     0.129317154009    -1.513254838978
    H           -1.712662193349     1.547199494527    -0.574820847838
    O            0.822539654959    -0.500326853964    -0.137745486574
    H            0.688144669374     1.416260507278    -0.831928907588
    H            0.253681379443     1.193375702675     0.863353893423
    C            2.152775595154    -0.502830964831     0.272491454968
    H            2.668539338012    -1.306778784744    -0.233707227960
    H            2.644641204762     0.438176105946     0.043143413547
    H            2.227396002291    -0.659491260554     1.345660714854

  Mulliken Charges: (a.u.)
   Center  Symbol    Alpha    Beta     Spin     Total
       1     H     0.43028  0.43028  0.00000  0.13943
       2     N     3.69418  3.69418  0.00000 -0.38836
       3     C     3.02344  3.02344  0.00000 -0.04689
       4     H     0.42234  0.42234  0.00000  0.15533
       5     C     2.96796  2.96796  0.00000  0.06408
       6     H     0.46470  0.46470  0.00000  0.07061
       7     H     0.45870  0.45870  0.00000  0.08260
       8     O     4.18233  4.18233  0.00000 -0.36466
       9     H     0.46894  0.46894  0.00000  0.06213
      10     H     0.46977  0.46977  0.00000  0.06046
      11     C     3.02976  3.02976  0.00000 -0.05952
      12     H     0.45143  0.45143  0.00000  0.09713
      13     H     0.47255  0.47255  0.00000  0.05490
      14     H     0.46361  0.46361  0.00000  0.07277

   Total alpha = 21.00000, Total beta = 21.00000, Total charge =  0.00000
