                              Psi4 1.0.54 Driver

  ==> Input File <==

--------------------------------------------------------------------------
set {
	reference rhf
	basis cc-pvtz
}

set_num_threads( 4 )
memory 2 gb

molecule MOL {
0 1

H	 -2.498963	 -0.741158	 -0.729149
O	 -2.346257	 -0.289210	 0.080372
C	 -1.183935	 0.486039	 -0.009831
C	 0.062853	 -0.375310	 0.027457
H	 -1.178881	 1.094526	 -0.908634
H	 -1.184406	 1.155156	 0.838676
O	 0.708035	 -0.263281	 -1.198365
H	 -0.208156	 -1.414050	 0.223591
H	 0.707157	 -0.047178	 0.840338
C	 1.893246	 -0.982135	 -1.297086
H	 1.724110	 -2.048012	 -1.160807
H	 2.298913	 -0.817716	 -2.284551
H	 2.620740	 -0.652002	 -0.559328

	symmetry c1
}
set optking {
	frozen_dihedral = ("
		8 4 3 5
	")
}

ee,wfn = optimize('scf', return_wfn=True)
oeprop( wfn, 'DIPOLE', 'QUADRUPOLE', 'MULLIKEN_CHARGES')
f=open( 'psi4out.xyz', 'w' )
f.write( "13  " )
f.write( str(ee) + "\n" )
f.write( MOL.save_string_xyz() )
f.close()
--------------------------------------------------------------------------

    Molecular point group: c1
  Charge       = 0
  Multiplicity = 1
  Basis Set: CC-PVTZ
  Basis Set:
  @DF-RHF Final Energy:  -268.05697827501785
    Total Energy =                       -268.0569782750175136
    Molecular point group: c1
  Basis Set: CC-PVTZ
  Basis Set:
  Basis Set: CC-PVTZ
  Basis Set:
  @DF-RHF Final Energy:  -268.05764179830857
    Total Energy =                       -268.0576417983089641
  Basis Set: CC-PVTZ
  Basis Set:
  Basis Set: CC-PVTZ
  Basis Set:
  @DF-RHF Final Energy:  -268.05786339186909
    Total Energy =                       -268.0578633918688638
  Basis Set: CC-PVTZ
  Basis Set:
  Basis Set: CC-PVTZ
  Basis Set:
  @DF-RHF Final Energy:  -268.05787007092033
    Total Energy =                       -268.0578700709204440
  Basis Set: CC-PVTZ
  Basis Set:
  Charge       = 0
  Multiplicity = 1
  Basis Set: CC-PVTZ
  Basis Set:

    Orbital Energies (a.u.)
    -----------------------

    Doubly Occupied:

       1A    -20.555524     2A    -20.548159     3A    -11.269446
       4A    -11.267795     5A    -11.267582     6A     -1.390460
       7A     -1.364190     8A     -1.017079     9A     -0.915713
      10A     -0.841593    11A     -0.706760    12A     -0.681650
      13A     -0.658262    14A     -0.632077    15A     -0.606869
      16A     -0.566803    17A     -0.537930    18A     -0.494015
      19A     -0.486860    20A     -0.440640    21A     -0.422526

  @DF-RHF Final Energy:  -268.05787084548547

   => Energetics <=

    Nuclear Repulsion Energy =            191.0907419902211188
    One-Electron Energy =                -744.9533542647670856
    Two-Electron Energy =                 285.8047414290606412
    DFT Exchange-Correlation Energy =       0.0000000000000000
    Empirical Dispersion Energy =           0.0000000000000000
    PCM Polarization Energy =               0.0000000000000000
    EFP Energy =                            0.0000000000000000
    Total Energy =                       -268.0578708454853540
    Molecular point group: c1
  Basis Set: CC-PVTZ
  Basis Set:

  -Total Gradient:
     Atom            X                  Y                   Z
    ------   -----------------  -----------------  -----------------
       1       -0.000016821938    -0.000004307876     0.000027257759
       2        0.000046002383     0.000004426176    -0.000059725169
       3        0.001832452358     0.002927921467     0.001303215579
       4        0.000025945950     0.000169932452     0.003685403804
       5       -0.001629321229    -0.002478323558    -0.001665611319
       6        0.000024221524    -0.000009927899    -0.000003055469
       7       -0.000048384995    -0.000005096870     0.000077049987
       8       -0.000262209692    -0.000586303437    -0.003339427221
       9       -0.000010782960     0.000000833307    -0.000005466946
      10        0.000037691083    -0.000022390574    -0.000020144853
      11        0.000000913922     0.000001638433    -0.000001895456
      12       -0.000000442493     0.000000286029     0.000004597482
      13        0.000000736080     0.000001312351    -0.000002198180

  **** Optimization is complete! (in 5 steps) ****
    Final optimized geometry and variables:
    Molecular point group: c1

    Geometry (in Angstrom), charge = 0, multiplicity = 1:

    H           -2.287227800741    -0.414181856144    -0.281012675711
    O           -2.176136501061     0.054026449673     0.526596584184
    C           -0.992778077465     0.806608549732     0.479945318746
    C            0.268595301273    -0.055774981858     0.528865307254
    H           -0.960576994265     1.396661251447    -0.428217353566
    H           -1.033097474051     1.473747864090     1.328249482338
    O            0.917777281094     0.014602993699    -0.706871495653
    H           -0.017664831718    -1.084919316474     0.729811699401
    H            0.940497443033     0.274830556032     1.317617044478
    C            2.079772074751    -0.742696310775    -0.786212727325
    H            1.879138568343    -1.799474572717    -0.623554547072
    H            2.491896871724    -0.614985795296    -1.776603879302
    H            2.817338663939    -0.417766126634    -0.055631148145

  Mulliken Charges: (a.u.)
   Center  Symbol    Alpha    Beta     Spin     Total
       1     H     0.39171  0.39171  0.00000  0.21657
       2     O     4.20433  4.20433  0.00000 -0.40867
       3     C     2.96880  2.96880  0.00000  0.06239
       4     C     2.98005  2.98005  0.00000  0.03990
       5     H     0.46245  0.46245  0.00000  0.07511
       6     H     0.45633  0.45633  0.00000  0.08735
       7     O     4.17561  4.17561  0.00000 -0.35122
       8     H     0.46953  0.46953  0.00000  0.06093
       9     H     0.47330  0.47330  0.00000  0.05340
      10     C     3.02860  3.02860  0.00000 -0.05720
      11     H     0.47162  0.47162  0.00000  0.05675
      12     H     0.44661  0.44661  0.00000  0.10677
      13     H     0.47105  0.47105  0.00000  0.05791

   Total alpha = 21.00000, Total beta = 21.00000, Total charge = -0.00000

*** Psi4 exiting successfully. Buy a developer a beer!
