                              Psi4 1.0.54 Driver

  ==> Input File <==

--------------------------------------------------------------------------
set {
	reference rhf
	basis cc-pvtz
}

set_num_threads( 4 )
memory 2 gb

molecule MOL {
0 1

H	 2.322434	 -1.228838	 -0.043611
O	 1.655252	 -0.659762	 -0.379879
C	 1.108329	 0.110584	 0.659090
C	 0.027642	 1.012027	 0.090274
H	 1.877568	 0.725787	 1.119053
H	 0.701031	 -0.532720	 1.434157
C	 -1.138737	 0.285728	 -0.581921
H	 0.491570	 1.676777	 -0.631104
H	 -0.345921	 1.636342	 0.898293
C	 -1.933983	 -0.631436	 0.343653
H	 -0.763151	 -0.285569	 -1.422081
H	 -1.808359	 1.035291	 -0.992333
H	 -2.789188	 -1.049673	 -0.174718
H	 -1.335629	 -1.461368	 0.700418
H	 -2.305435	 -0.092167	 1.209725

	symmetry c1
}
set optking {
	frozen_dihedral = ("
		8 4 7 11
	")
}

ee,wfn = optimize('scf', return_wfn=True)
oeprop( wfn, 'DIPOLE', 'QUADRUPOLE', 'MULLIKEN_CHARGES')
f=open( 'psi4out.xyz', 'w' )
f.write( "15  " )
f.write( str(ee) + "\n" )
f.write( MOL.save_string_xyz() )
f.close()
--------------------------------------------------------------------------

    Molecular point group: c1
  Charge       = 0
  Multiplicity = 1
  Basis Set: CC-PVTZ
  Basis Set:
  @DF-RHF Final Energy:  -232.23761777399992
    Total Energy =                       -232.2376177739997729
    Molecular point group: c1
  Basis Set: CC-PVTZ
  Basis Set:
  Basis Set: CC-PVTZ
  Basis Set:
  @DF-RHF Final Energy:  -232.23761667589218
    Total Energy =                       -232.2376166758922977
  Basis Set: CC-PVTZ
  Basis Set:
  Basis Set: CC-PVTZ
  Basis Set:
  @DF-RHF Final Energy:  -232.23762337071753
    Total Energy =                       -232.2376233707174151
  Basis Set: CC-PVTZ
  Basis Set:
  Charge       = 0
  Multiplicity = 1
  Basis Set: CC-PVTZ
  Basis Set:

    Orbital Energies (a.u.)
    -----------------------

    Doubly Occupied:

       1A    -20.546589     2A    -11.265297     3A    -11.210984
       4A    -11.207388     5A    -11.202975     6A     -1.364361
       7A     -1.065357     8A     -0.971519     9A     -0.869797
      10A     -0.774852    11A     -0.707175    12A     -0.650253
      13A     -0.609437    14A     -0.574615    15A     -0.566068
      16A     -0.533093    17A     -0.511497    18A     -0.475760
      19A     -0.467254    20A     -0.452976    21A     -0.433642

  @DF-RHF Final Energy:  -232.23762339683020

   => Energetics <=

    Nuclear Repulsion Energy =            192.0886738214324509
    One-Electron Energy =                -695.7308142854474227
    Two-Electron Energy =                 271.4045170671849405
    DFT Exchange-Correlation Energy =       0.0000000000000000
    Empirical Dispersion Energy =           0.0000000000000000
    PCM Polarization Energy =               0.0000000000000000
    EFP Energy =                            0.0000000000000000
    Total Energy =                       -232.2376233968300312
    Molecular point group: c1
  Basis Set: CC-PVTZ
  Basis Set:

  -Total Gradient:
     Atom            X                  Y                   Z
    ------   -----------------  -----------------  -----------------
       1       -0.000001272891    -0.000001211345    -0.000000603151
       2        0.000010614318    -0.000002275728    -0.000003632507
       3       -0.000005921368     0.000001408017     0.000010250067
       4       -0.000316340812     0.000424391325     0.000081661955
       5        0.000002022098    -0.000001506665     0.000000365034
       6        0.000004551814    -0.000000138347    -0.000000636641
       7        0.000128152509    -0.000447604179     0.000261557375
       8        0.000240971710    -0.000285221376    -0.000111264073
       9        0.000002049498     0.000000703600    -0.000001099667
      10       -0.000001705678    -0.000001486146     0.000000831777
      11       -0.000059770390     0.000309066553    -0.000228560332
      12       -0.000006872986    -0.000001703548    -0.000001545650
      13       -0.000000104444     0.000002843950    -0.000001805654
      14       -0.000001250900     0.000000135879    -0.000003708919
      15        0.000004877523     0.000002598009    -0.000001809613

  **** Optimization is complete! (in 4 steps) ****
    Final optimized geometry and variables:
    Molecular point group: c1

    Geometry (in Angstrom), charge = 0, multiplicity = 1:

    H            2.332823073289    -1.215564076528    -0.076948831322
    O            1.662177608787    -0.648973648711    -0.410296669888
    C            1.121438146015     0.124126463890     0.629801004653
    C            0.036900721574     1.023630347247     0.065155017828
    H            1.893133031732     0.740875358472     1.083564033807
    H            0.718950408155    -0.517062482314     1.409045724463
    C           -1.126846098779     0.295820197705    -0.610014555746
    H            0.498728790387     1.691154603085    -0.655021053883
    H           -0.338066386027     1.643362805205     0.875910655325
    C           -1.924339513944    -0.623524897192     0.311004523869
    H           -0.749155991792    -0.272298846341    -1.451332772676
    H           -1.795563396233     1.045964652042    -1.021166342966
    H           -2.781852148262    -1.034899100611    -0.208963081816
    H           -1.328470979478    -1.457851849676     0.661250622217
    H           -2.292689346971    -0.088218314844     1.180905864819

  Mulliken Charges: (a.u.)
   Center  Symbol    Alpha    Beta     Spin     Total
       1     H     0.39552  0.39552  0.00000  0.20895
       2     O     4.19944  4.19944  0.00000 -0.39888
       3     C     2.97661  2.97661  0.00000  0.04678
       4     C     3.09520  3.09520  0.00000 -0.19039
       5     H     0.46280  0.46280  0.00000  0.07439
       6     H     0.47199  0.47199  0.00000  0.05602
       7     C     3.08523  3.08523  0.00000 -0.17046
       8     H     0.44865  0.44865  0.00000  0.10271
       9     H     0.45429  0.45429  0.00000  0.09143
      10     C     3.15569  3.15569  0.00000 -0.31138
      11     H     0.44672  0.44672  0.00000  0.10655
      12     H     0.45113  0.45113  0.00000  0.09774
      13     H     0.44657  0.44657  0.00000  0.10685
      14     H     0.45319  0.45319  0.00000  0.09363
      15     H     0.45697  0.45697  0.00000  0.08606

   Total alpha = 21.00000, Total beta = 21.00000, Total charge = -0.00000

*** Psi4 exiting successfully. Buy a developer a beer!
