  ==> Input File <==

--------------------------------------------------------------------------
set {
	reference rhf
	basis cc-pvtz
}

set_num_threads( 4 )
memory 2 gb

molecule MOL {
0 1

H	 3.889604	 0.356866	 -0.089510
N	 3.091268	 -0.241216	 -0.065538
C	 1.860978	 0.530248	 0.016256
H	 3.192566	 -0.835836	 0.730398
C	 0.644130	 -0.381765	 -0.031064
H	 1.835721	 1.204666	 -0.833114
H	 1.808789	 1.151975	 0.911067
C	 -0.678115	 0.376691	 0.025731
H	 0.693998	 -0.977147	 -0.936845
H	 0.693309	 -1.082142	 0.800523
C	 -0.571393	 1.725415	 0.731958
H	 -1.421115	 -0.233651	 0.534049
H	 -1.052038	 0.531689	 -0.983739
C	 -1.896624	 2.477610	 0.792295
H	 -0.197515	 1.572812	 1.740531
H	 0.167717	 2.338705	 0.223664
H	 -2.647925	 1.904666	 1.325702
H	 -1.785778	 3.429273	 1.299300
H	 -2.279957	 2.676185	 -0.203175

	symmetry c1
}
set optking {
	frozen_dihedral = ("
		12 8 5 9
	")
}

ee = optimize('scf')
oeprop('DIPOLE', 'QUADRUPOLE', 'MULLIKEN_CHARGES')
f=open( 'psi4out.xyz', 'w' )
f.write( "19  " )
f.write( str(ee) + "\n" )
f.write( MOL.save_string_xyz() )
f.close()
--------------------------------------------------------------------------

    Molecular point group: c1
  Charge       = 0
  Multiplicity = 1
  Basis Set: CC-PVTZ
  Basis Set:
  @DF-RHF Final Energy:  -251.43816402658075
    Total Energy =                       -251.4381640265808073
    Molecular point group: c1
  Basis Set: CC-PVTZ
  Basis Set:
  Basis Set: CC-PVTZ
  Basis Set:
  @DF-RHF Final Energy:  -251.43904885293904
    Total Energy =                       -251.4390488529392087
  Basis Set: CC-PVTZ
  Basis Set:
  Basis Set: CC-PVTZ
  Basis Set:
  @DF-RHF Final Energy:  -251.44111363824121
    Total Energy =                       -251.4411136382414043
  Basis Set: CC-PVTZ
  Basis Set:
  Basis Set: CC-PVTZ
  Basis Set:
  @DF-RHF Final Energy:  -251.44135410295425
    Total Energy =                       -251.4413541029543353
  Basis Set: CC-PVTZ
  Basis Set:
  Basis Set: CC-PVTZ
  Basis Set:
  @DF-RHF Final Energy:  -251.44137165459844
    Total Energy =                       -251.4413716545984698
  Basis Set: CC-PVTZ
  Basis Set:
  Basis Set: CC-PVTZ
  Basis Set:
  @DF-RHF Final Energy:  -251.44137893118574
    Total Energy =                       -251.4413789311858523
  Basis Set: CC-PVTZ
  Basis Set:
  Basis Set: CC-PVTZ
  Basis Set:
  @DF-RHF Final Energy:  -251.44138173940641
    Total Energy =                       -251.4413817394063244
  Basis Set: CC-PVTZ
  Basis Set:
  Charge       = 0
  Multiplicity = 1
  Basis Set: CC-PVTZ
  Basis Set:

    Orbital Energies (a.u.)
    -----------------------

    Doubly Occupied:

       1A    -15.525876     2A    -11.236975     3A    -11.212497
       4A    -11.211288     5A    -11.208427     6A    -11.205909
       7A     -1.177741     8A     -1.072258     9A     -0.996156
      10A     -0.899762    11A     -0.834679    12A     -0.769693
      13A     -0.658724    14A     -0.644373    15A     -0.626217
      16A     -0.585839    17A     -0.572227    18A     -0.544393
      19A     -0.528569    20A     -0.504945    21A     -0.489373
      22A     -0.461342    23A     -0.453016    24A     -0.448414
      25A     -0.383075

  @DF-RHF Final Energy:  -251.44138204744658

   => Energetics <=

    Nuclear Repulsion Energy =            250.0203214720359313
    One-Electron Energy =                -834.4198744142893247
    Two-Electron Energy =                 332.9581708948070968
    DFT Exchange-Correlation Energy =       0.0000000000000000
    Empirical Dispersion Energy =           0.0000000000000000
    PCM Polarization Energy =               0.0000000000000000
    EFP Energy =                            0.0000000000000000
    Total Energy =                       -251.4413820474463250
    Molecular point group: c1
  Basis Set: CC-PVTZ
  Basis Set:

  -Total Gradient:
     Atom            X                  Y                   Z
    ------   -----------------  -----------------  -----------------
       1        0.000007896946    -0.000002923985     0.000001833095
       2        0.000011070069    -0.000006003492     0.000025962157
       3        0.000006991737    -0.000022984461    -0.000092248032
       4        0.000010922924    -0.000004423379     0.000000250227
       5       -0.003012666064    -0.005109770238     0.004881891299
       6        0.000007932900     0.000008847490     0.000003126475
       7       -0.000011149195    -0.000024692380    -0.000002749146
       8       -0.001235360584    -0.002009765050    -0.007169488471
       9        0.002753278778     0.004638507092    -0.002971823253
      10        0.000003901118    -0.000018095487     0.000004236317
      11       -0.000019329566     0.000010891251    -0.000012146726
      12        0.001506078442     0.002549587009     0.005325634407
      13       -0.000002914137     0.000010337849    -0.000003287355
      14       -0.000006033810    -0.000013069338     0.000004203383
      15        0.000003115904    -0.000002610651    -0.000001009355
      16       -0.000022467602    -0.000005603297     0.000001649815
      17       -0.000004305845     0.000001635196    -0.000002283803
      18        0.000001124578     0.000000674024     0.000003776999
      19        0.000001913407    -0.000000538152     0.000002471967

  **** Optimization is complete! (in 8 steps) ****
    Final optimized geometry and variables:
    Molecular point group: c1

    Geometry (in Angstrom), charge = 0, multiplicity = 1:

    H            3.512202982758    -0.572309552376    -0.433105590061
    N            2.671300191043    -1.108619596883    -0.398993316025
    C            1.509098114387    -0.247391247747    -0.234690788535
    H            2.757299152505    -1.739635247750     0.370579920238
    C            0.235978093649    -1.089186947982    -0.220527216025
    H            1.483123124947     0.434246416060    -1.078671763084
    H            1.567600848693     0.364246795679     0.662916940708
    C           -1.088783346043    -0.302826949476    -0.218285301352
    H            0.284020494184    -1.696063461577    -1.116934648466
    H            0.272226142397    -1.758922569123     0.633914951344
    C           -1.075533577339     1.046298452983     0.505853269524
    H           -1.839162596093    -0.906598976295     0.283053541369
    H           -1.424785325364    -0.147829604215    -1.238348588665
    C           -2.453324859920     1.700827405819     0.528817297012
    H           -0.729439756813     0.909019805228     1.526743484225
    H           -0.372456269475     1.722931584231     0.032490709524
    H           -3.177937734469     1.072806613043     1.036447233515
    H           -2.426397042242     2.655462035036     1.041800622889
    H           -2.819128359860     1.876754389322    -0.477490624373

  Mulliken Charges: (a.u.)
   Center  Symbol    Alpha    Beta     Spin     Total
       1     H     0.43009  0.43009  0.00000  0.13983
       2     N     3.69182  3.69182  0.00000 -0.38365
       3     C     3.02787  3.02787  0.00000 -0.05574
       4     H     0.43104  0.43104  0.00000  0.13791
       5     C     3.09120  3.09120  0.00000 -0.18239
       6     H     0.45572  0.45572  0.00000  0.08857
       7     H     0.46366  0.46366  0.00000  0.07267
       8     C     3.09631  3.09631  0.00000 -0.19262
       9     H     0.44527  0.44527  0.00000  0.10945
      10     H     0.45726  0.45726  0.00000  0.08547
      11     C     3.09239  3.09239  0.00000 -0.18478
      12     H     0.45206  0.45206  0.00000  0.09588
      13     H     0.45059  0.45059  0.00000  0.09883
      14     C     3.15044  3.15044  0.00000 -0.30088
      15     H     0.45370  0.45370  0.00000  0.09261
      16     H     0.45195  0.45195  0.00000  0.09609
      17     H     0.45499  0.45499  0.00000  0.09002
      18     H     0.44854  0.44854  0.00000  0.10293
      19     H     0.45510  0.45510  0.00000  0.08981

   Total alpha = 25.00000, Total beta = 25.00000, Total charge = -0.00000
