                              Psi4 1.0.54 Driver

  ==> Input File <==

--------------------------------------------------------------------------
set {
	reference rhf
	basis cc-pvtz
}

set_num_threads( 4 )
memory 2 gb

molecule MOL {
0 1

O	 2.818628	 1.430567	 -0.278730
C	 2.689426	 0.401492	 -0.857023
C	 1.396096	 -0.387376	 -0.828454
C	 3.818464	 -0.194047	 -1.667475
C	 0.288398	 0.247429	 0.000314
H	 1.075138	 -0.527183	 -1.858263
H	 1.628836	 -1.384475	 -0.461531
C	 -0.993089	 -0.581367	 -0.000217
H	 0.084438	 1.241522	 -0.380859
H	 0.638722	 0.383583	 1.017107
C	 -2.258482	 0.271340	 0.000669
H	 -1.002280	 -1.233920	 -0.870484
H	 -1.002061	 -1.235367	 0.868958
C	 -3.544441	 -0.550271	 -0.000253
H	 -2.250545	 0.925250	 -0.867923
H	 -2.250598	 0.923423	 0.870642
C	 -4.804551	 0.308747	 0.000556
H	 -3.553737	 -1.201524	 -0.870151
H	 -3.553831	 -1.203282	 0.868313
H	 -4.842050	 0.949078	 -0.874436
H	 -5.698404	 -0.304480	 -0.000254
H	 -4.842277	 0.947103	 0.876982
H	 3.513241	 -0.316104	 -2.700910
H	 4.683701	 0.448814	 -1.617612
H	 4.072302	 -1.177844	 -1.288329

	symmetry c1
}
set optking {
	frozen_dihedral = ("
		9 5 8 12
	")
}

ee,wfn = optimize('scf', return_wfn=True)
oeprop( wfn, 'DIPOLE', 'QUADRUPOLE', 'MULLIKEN_CHARGES')
f=open( 'psi4out.xyz', 'w' )
f.write( "25  " )
f.write( str(ee) + "\n" )
f.write( MOL.save_string_xyz() )
f.close()
--------------------------------------------------------------------------

    Molecular point group: c1
  Charge       = 0
  Multiplicity = 1
  Basis Set: CC-PVTZ
  Basis Set:
  @DF-RHF Final Energy:  -387.27085188720497
    Total Energy =                       -387.2708518872050263
    Molecular point group: c1
  Basis Set: CC-PVTZ
  Basis Set:
  Basis Set: CC-PVTZ
  Basis Set:
  @DF-RHF Final Energy:  -387.27113772158935
    Total Energy =                       -387.2711377215894117
  Basis Set: CC-PVTZ
  Basis Set:
  Basis Set: CC-PVTZ
  Basis Set:
  @DF-RHF Final Energy:  -387.27104724740781
    Total Energy =                       -387.2710472474084327
  Basis Set: CC-PVTZ
  Basis Set:
  Basis Set: CC-PVTZ
  Basis Set:
  @DF-RHF Final Energy:  -387.27121129345312
    Total Energy =                       -387.2712112934530069
  Basis Set: CC-PVTZ
  Basis Set:
  Basis Set: CC-PVTZ
  Basis Set:
  @DF-RHF Final Energy:  -387.27123368716866
    Total Energy =                       -387.2712336871686603
  Basis Set: CC-PVTZ
  Basis Set:
  Charge       = 0
  Multiplicity = 1
  Basis Set: CC-PVTZ
  Basis Set:

    Orbital Energies (a.u.)
    -----------------------

    Doubly Occupied:

       1A    -20.539011     2A    -11.320524     3A    -11.230775
       4A    -11.226662     5A    -11.214898     6A    -11.214300
       7A    -11.213683     8A    -11.212308     9A    -11.206741
      10A     -1.398992    11A     -1.094109    12A     -1.057820
      13A     -1.015120    14A     -0.970407    15A     -0.891725
      16A     -0.815675    17A     -0.792071    18A     -0.732157
      19A     -0.660513    20A     -0.651766    21A     -0.635902
      22A     -0.625868    23A     -0.597099    24A     -0.583222
      25A     -0.567913    26A     -0.562345    27A     -0.541413
      28A     -0.526480    29A     -0.514882    30A     -0.494471
      31A     -0.487960    32A     -0.474133    33A     -0.464972
      34A     -0.460011    35A     -0.450651    36A     -0.401475

  @DF-RHF Final Energy:  -387.27123405905337

   => Energetics <=

    Nuclear Repulsion Energy =            439.1957915963911887
    One-Electron Energy =               -1395.2379441525768016
    Two-Electron Energy =                 568.7709184971317882
    DFT Exchange-Correlation Energy =       0.0000000000000000
    Empirical Dispersion Energy =           0.0000000000000000
    PCM Polarization Energy =               0.0000000000000000
    EFP Energy =                            0.0000000000000000
    Total Energy =                       -387.2712340590537679
    Molecular point group: c1
  Basis Set: CC-PVTZ
  Basis Set:

  -Total Gradient:
     Atom            X                  Y                   Z
    ------   -----------------  -----------------  -----------------
       1       -0.000006423039     0.000019095732     0.000006916793
       2        0.000012748930    -0.000018202455     0.000010628908
       3        0.000007914395    -0.000001730109     0.000009099081
       4       -0.000003478968    -0.000001233203    -0.000007075309
       5        0.001560791623    -0.002366283286    -0.004452449487
       6       -0.000007507095     0.000007617416    -0.000008732630
       7        0.000002713134    -0.000007994665     0.000000973432
       8       -0.002682263048     0.004114360320    -0.001833695462
       9       -0.000867014372     0.001329404252     0.004005272415
      10        0.000010864503    -0.000005473386     0.000002860324
      11       -0.000006504036     0.000003646013     0.000012147129
      12        0.001987183208    -0.003072428154     0.002248769601
      13       -0.000018520114    -0.000000279188     0.000001564748
      14       -0.000005793892    -0.000006410326     0.000011360017
      15        0.000001094684    -0.000002540363    -0.000011740596
      16       -0.000003553607     0.000010751446     0.000013491851
      17        0.000014524169     0.000007209919    -0.000006203352
      18        0.000003541895    -0.000006136035    -0.000010764080
      19        0.000005645005    -0.000007462359     0.000016645051
      20       -0.000003808674     0.000013827268    -0.000015163884
      21       -0.000005409152    -0.000012339543    -0.000002989978
      22       -0.000001452122     0.000005693824     0.000014219904
      23       -0.000001268422    -0.000005423938    -0.000013714467
      24        0.000004839013     0.000009050244     0.000004162605
      25        0.000001135985    -0.000006719424     0.000004417386

  **** Optimization is complete! (in 6 steps) ****
    Final optimized geometry and variables:
    Molecular point group: c1

    Geometry (in Angstrom), charge = 0, multiplicity = 1:

    O            2.902759570324     1.312422056177     0.165129896325
    C            2.784845210662     0.292679932481    -0.431739475344
    C            1.481565684465    -0.479443539242    -0.468027949323
    C            3.938816966699    -0.307000603880    -1.203232316276
    C            0.347187275582     0.158894967575     0.318406103213
    H            1.203346929699    -0.604464685802    -1.511912288300
    H            1.684769930947    -1.483597999152    -0.101959916158
    C           -0.940319163466    -0.678471967255     0.313518014429
    H            0.149347887001     1.156768064904    -0.055259747215
    H            0.673915535362     0.312173225997     1.340237664072
    C           -2.213730721589     0.157896246371     0.373284387346
    H           -0.961111586448    -1.330699561558    -0.556282082647
    H           -0.922523030511    -1.355147971909     1.164369132268
    C           -3.488219713106    -0.677528770683     0.446074224135
    H           -2.257217866159     0.804969430727    -0.499499594729
    H           -2.166908265960     0.817681988639     1.236582963946
    C           -4.756866144857     0.167534724624     0.493817463287
    H           -3.530795898769    -1.342451701193    -0.412577652717
    H           -3.448535261595    -1.316870020467     1.323785460375
    H           -4.843806026987     0.793373464826    -0.388197261228
    H           -5.642423606792    -0.455507118590     0.545328632506
    H           -4.760225606381     0.819318612045     1.361141341052
    H            3.674968854962    -0.411415923273    -2.249910604554
    H            4.809342508517     0.323742370411    -1.109191055426
    H            4.164369202703    -1.298914238146    -0.827303404128

  Mulliken Charges: (a.u.)
   Center  Symbol    Alpha    Beta     Spin     Total
       1     O     4.17031  4.17031  0.00000 -0.34062
       2     C     2.86318  2.86318  0.00000  0.27364
       3     C     3.11341  3.11341  0.00000 -0.22681
       4     C     3.15120  3.15120  0.00000 -0.30240
       5     C     3.08787  3.08787  0.00000 -0.17574
       6     H     0.44485  0.44485  0.00000  0.11031
       7     H     0.44387  0.44387  0.00000  0.11227
       8     C     3.09281  3.09281  0.00000 -0.18561
       9     H     0.44597  0.44597  0.00000  0.10805
      10     H     0.44464  0.44464  0.00000  0.11071
      11     C     3.08630  3.08630  0.00000 -0.17260
      12     H     0.45670  0.45670  0.00000  0.08660
      13     H     0.45319  0.45319  0.00000  0.09361
      14     C     3.08467  3.08467  0.00000 -0.16935
      15     H     0.45457  0.45457  0.00000  0.09087
      16     H     0.45200  0.45200  0.00000  0.09599
      17     C     3.15007  3.15007  0.00000 -0.30014
      18     H     0.45515  0.45515  0.00000  0.08970
      19     H     0.45458  0.45458  0.00000  0.09085
      20     H     0.45517  0.45517  0.00000  0.08967
      21     H     0.44865  0.44865  0.00000  0.10270
      22     H     0.45462  0.45462  0.00000  0.09077
      23     H     0.45046  0.45046  0.00000  0.09908
      24     H     0.43535  0.43535  0.00000  0.12929
      25     H     0.45042  0.45042  0.00000  0.09917

   Total alpha = 36.00000, Total beta = 36.00000, Total charge =  0.00000

*** Psi4 exiting successfully. Buy a developer a beer!
