  ==> Input File <==

--------------------------------------------------------------------------
set {
	reference rhf
	basis 6-31G*
}

set_num_threads( 4 )
memory 2 gb

molecule MOL {
0 1

O	 -0.486920	 -1.867955	 1.385980
C	 -1.431230	 -1.554099	 0.734529
C	 -2.700990	 -2.361760	 0.652899
O	 -1.481751	 -0.454642	 0.000584
H	 -3.107809	 -2.472271	 1.650971
H	 -3.432461	 -1.898456	 0.007346
H	 -2.460284	 -3.352237	 0.285618
C	 -0.334255	 0.388708	 0.000906
C	 0.891947	 -0.504646	 0.000751
H	 -0.365390	 1.025305	 -0.873475
H	 -0.365484	 1.024911	 0.875569
C	 2.191998	 0.301789	 0.000897
H	 0.855148	 -1.151283	 -0.871571
H	 0.855132	 -1.151660	 0.872805
C	 3.441114	 -0.581407	 0.000108
H	 2.215074	 0.954890	 -0.869742
H	 2.215465	 0.953923	 0.872248
C	 4.739576	 0.224112	 -0.001102
H	 3.419457	 -1.233487	 -0.870178
H	 3.420834	 -1.233096	 0.870717
H	 4.804918	 0.861552	 -0.878265
H	 5.606527	 -0.429058	 -0.001824
H	 4.806469	 0.861674	 0.875853

	symmetry c1
}
set optking {
	frozen_dihedral = ("
		2 4 8 10
	")
}

ee = optimize('scf')
oeprop('DIPOLE', 'QUADRUPOLE', 'MULLIKEN_CHARGES')
f=open( 'psi4out.xyz', 'w' )
f.write( "23  " )
f.write( str(ee) + "\n" )
f.write( MOL.save_string_xyz() )
f.close()
--------------------------------------------------------------------------

    Molecular point group: c1
  Charge       = 0
  Multiplicity = 1
  Basis Set: 6-31G*
  Basis Set:
  @DF-RHF Final Energy:  -422.93748087055019
    Total Energy =                       -422.9374808705501891
    Molecular point group: c1
  Basis Set: 6-31G*
  Basis Set:
  Basis Set: 6-31G*
  Basis Set:
  @DF-RHF Final Energy:  -422.96480879632713
    Total Energy =                       -422.9648087963278158
  Basis Set: 6-31G*
  Basis Set:
  Basis Set: 6-31G*
  Basis Set:
  @DF-RHF Final Energy:  -422.97011628448075
    Total Energy =                       -422.9701162844813780
  Basis Set: 6-31G*
  Basis Set:
  Basis Set: 6-31G*
  Basis Set:
  @DF-RHF Final Energy:  -422.96901892633900
    Total Energy =                       -422.9690189263386628
  Basis Set: 6-31G*
  Basis Set:
  Basis Set: 6-31G*
  Basis Set:
  @DF-RHF Final Energy:  -422.97160187154481
    Total Energy =                       -422.9716018715445216
  Basis Set: 6-31G*
  Basis Set:
  Basis Set: 6-31G*
  Basis Set:
  @DF-RHF Final Energy:  -422.97202989759620
    Total Energy =                       -422.9720298975962578
  Basis Set: 6-31G*
  Basis Set:
  Basis Set: 6-31G*
  Basis Set:
  @DF-RHF Final Energy:  -422.97205379435167
    Total Energy =                       -422.9720537943519503
  Basis Set: 6-31G*
  Basis Set:
  Charge       = 0
  Multiplicity = 1
  Basis Set: 6-31G*
  Basis Set:

    Orbital Energies (a.u.)
    -----------------------

    Doubly Occupied:

       1A    -20.601182     2A    -20.539064     3A    -11.375222
       4A    -11.286444     5A    -11.230802     6A    -11.221530
       7A    -11.218588     8A    -11.217447     9A    -11.210912
      10A     -1.463280    11A     -1.360872    12A     -1.090927
      13A     -1.039889    14A     -1.000878    15A     -0.932534
      16A     -0.856176    17A     -0.798696    18A     -0.752129
      19A     -0.696614    20A     -0.676644    21A     -0.664405
      22A     -0.645303    23A     -0.608181    24A     -0.588806
      25A     -0.579881    26A     -0.568149    27A     -0.553615
      28A     -0.538164    29A     -0.521017    30A     -0.512165
      31A     -0.490737    32A     -0.475628    33A     -0.468950
      34A     -0.463796    35A     -0.440401    36A     -0.428180

  @DF-RHF Final Energy:  -422.97205410641067

   => Energetics <=

    Nuclear Repulsion Energy =            458.1794423806135796
    One-Electron Energy =               -1484.0685771351618314
    Two-Electron Energy =                 602.9170806481374711
    DFT Exchange-Correlation Energy =       0.0000000000000000
    Empirical Dispersion Energy =           0.0000000000000000
    PCM Polarization Energy =               0.0000000000000000
    EFP Energy =                            0.0000000000000000
    Total Energy =                       -422.9720541064107238
    Molecular point group: c1
  Basis Set: 6-31G*
  Basis Set:

  -Total Gradient:
     Atom            X                  Y                   Z
    ------   -----------------  -----------------  -----------------
       1        0.000182266211    -0.000220061360     0.000033519056
       2        0.002148226142    -0.003046471639    -0.004637654934
       3        0.000080476358    -0.000089980213    -0.000163423368
       4       -0.002880709112     0.004268113606     0.006609784517
       5       -0.000044376603     0.000031941626    -0.000019647737
       6       -0.000020152885    -0.000021356876     0.000015939160
       7       -0.000062603935    -0.000016256844     0.000064422360
       8       -0.002374537199     0.003908623763     0.001579283341
       9       -0.000105181878    -0.000020395996    -0.000130681319
      10        0.003152444489    -0.004960166402    -0.003265336311
      11       -0.000138455371     0.000095720472     0.000039951065
      12       -0.000148677077     0.000008711522    -0.000078242336
      13       -0.000002698340    -0.000002428950    -0.000150007355
      14       -0.000013111590    -0.000009474288     0.000134524073
      15        0.000011189016     0.000041583917    -0.000033683216
      16        0.000094993752    -0.000002271060    -0.000032973122
      17        0.000007647661     0.000064994176    -0.000053420249
      18        0.000072368589    -0.000028759376     0.000079516177
      19        0.000019249504     0.000046476953    -0.000009004815
      20        0.000003747559    -0.000057960244     0.000001606276
      21       -0.000017156503    -0.000025459654     0.000006809138
      22        0.000028768699     0.000023403693     0.000013296994
      23        0.000006282508     0.000011473174    -0.000004577397

  **** Optimization is complete! (in 8 steps) ****
    Final optimized geometry and variables:
    Molecular point group: c1

    Geometry (in Angstrom), charge = 0, multiplicity = 1:

    O           -1.449298528687    -1.316812336378     1.312147881897
    C           -2.157111976302    -0.876169783053     0.464133649009
    C           -3.446974339356    -1.534204671221     0.040314555542
    O           -1.935832453097     0.246114811364    -0.198479112912
    H           -4.083149049409    -1.644746144050     0.910151635141
    H           -3.960103045160    -0.967012739241    -0.721893122699
    H           -3.223288671612    -2.528138165919    -0.329182031026
    C           -0.704728837631     0.966554691721    -0.110905148966
    C            0.571819770485     0.130465947242    -0.154315673583
    H           -0.719479489122     1.576429307897    -1.002847342103
    H           -0.736757333470     1.598334586630     0.767367844130
    C            1.790217653778     1.029875920044    -0.385865564055
    H            0.490842713154    -0.589475090602    -0.965684073035
    H            0.692851972094    -0.430225830144     0.760116921019
    C            3.107711513747     0.251975989047    -0.388822065678
    H            1.685924783331     1.559840720355    -1.331353870064
    H            1.831126980625     1.793960302354     0.389303295656
    C            4.327686896680     1.146878007895    -0.603459784448
    H            3.074552986150    -0.506904404498    -1.167329937747
    H            3.211266224935    -0.281317222505     0.553035033753
    H            4.270212415609     1.667660206024    -1.555176041227
    H            5.245389771793     0.567131839904    -0.599038378224
    H            4.406686155185     1.896617181263     0.178724240701

  Mulliken Charges: (a.u.)
   Center  Symbol    Alpha    Beta     Spin     Total
       1     O     4.28397  4.28397  0.00000 -0.56794
       2     C     2.61280  2.61280  0.00000  0.77441
       3     C     3.28762  3.28762  0.00000 -0.57525
       4     O     4.31987  4.31987  0.00000 -0.63974
       5     H     0.39776  0.39776  0.00000  0.20449
       6     H     0.39995  0.39995  0.00000  0.20010
       7     H     0.39869  0.39869  0.00000  0.20262
       8     C     2.98628  2.98628  0.00000  0.02745
       9     C     3.18022  3.18022  0.00000 -0.36044
      10     H     0.41125  0.41125  0.00000  0.17750
      11     H     0.41232  0.41232  0.00000  0.17535
      12     C     3.16062  3.16062  0.00000 -0.32124
      13     H     0.41905  0.41905  0.00000  0.16189
      14     H     0.39103  0.39103  0.00000  0.21794
      15     C     3.15095  3.15095  0.00000 -0.30190
      16     H     0.42377  0.42377  0.00000  0.15246
      17     H     0.42210  0.42210  0.00000  0.15579
      18     C     3.23984  3.23984  0.00000 -0.47969
      19     H     0.42160  0.42160  0.00000  0.15679
      20     H     0.41914  0.41914  0.00000  0.16171
      21     H     0.42189  0.42189  0.00000  0.15622
      22     H     0.41801  0.41801  0.00000  0.16398
      23     H     0.42125  0.42125  0.00000  0.15749

   Total alpha = 36.00000, Total beta = 36.00000, Total charge = -0.00000
