  ==> Input File <==

--------------------------------------------------------------------------
set {
	reference rhf
	basis cc-pvtz
}

set_num_threads( 4 )
memory 2 gb

molecule MOL {
0 1

H	 -2.498963	 -0.741158	 -0.729149
O	 -2.346257	 -0.289210	 0.080372
C	 -1.183935	 0.486039	 -0.009831
C	 0.062853	 -0.375310	 0.027457
H	 -1.178881	 1.094526	 -0.908634
H	 -1.184406	 1.155156	 0.838676
O	 0.261113	 -0.800495	 1.335647
H	 0.922386	 0.198745	 -0.322628
H	 -0.059883	 -1.221751	 -0.644888
C	 1.361026	 -1.630798	 1.514563
H	 2.285815	 -1.131265	 1.234373
H	 1.410786	 -1.893496	 2.561081
H	 1.270597	 -2.541928	 0.927890

	symmetry c1
}
set optking {
	frozen_dihedral = ("
		8 4 3 5
	")
}

ee = optimize('scf')
oeprop('DIPOLE', 'QUADRUPOLE', 'MULLIKEN_CHARGES')
f=open( 'psi4out.xyz', 'w' )
f.write( "13  " )
f.write( str(ee) + "\n" )
f.write( MOL.save_string_xyz() )
f.close()
--------------------------------------------------------------------------

    Molecular point group: c1
  Charge       = 0
  Multiplicity = 1
  Basis Set: CC-PVTZ
  Basis Set:
  @DF-RHF Final Energy:  -268.05963076606065
    Total Energy =                       -268.0596307660607636
    Molecular point group: c1
  Basis Set: CC-PVTZ
  Basis Set:
  Basis Set: CC-PVTZ
  Basis Set:
  @DF-RHF Final Energy:  -268.06001066858414
    Total Energy =                       -268.0600106685842547
  Basis Set: CC-PVTZ
  Basis Set:
  Basis Set: CC-PVTZ
  Basis Set:
  @DF-RHF Final Energy:  -268.06011441614464
    Total Energy =                       -268.0601144161446996
  Basis Set: CC-PVTZ
  Basis Set:
  Basis Set: CC-PVTZ
  Basis Set:
  @DF-RHF Final Energy:  -268.06013561774955
    Total Energy =                       -268.0601356177496086
  Basis Set: CC-PVTZ
  Basis Set:
  Basis Set: CC-PVTZ
  Basis Set:
  @DF-RHF Final Energy:  -268.06013905331918
    Total Energy =                       -268.0601390533190056
  Basis Set: CC-PVTZ
  Basis Set:
  Charge       = 0
  Multiplicity = 1
  Basis Set: CC-PVTZ
  Basis Set:

    Orbital Energies (a.u.)
    -----------------------

    Doubly Occupied:

       1A    -20.552898     2A    -20.547650     3A    -11.272321
       4A    -11.268723     5A    -11.265841     6A     -1.391613
       7A     -1.363950     8A     -1.020853     9A     -0.917113
      10A     -0.841917    11A     -0.700448    12A     -0.680226
      13A     -0.664120    14A     -0.634315    15A     -0.605263
      16A     -0.567770    17A     -0.536647    18A     -0.502699
      19A     -0.475116    20A     -0.440039    21A     -0.422818

  @DF-RHF Final Energy:  -268.06013919379666

   => Energetics <=

    Nuclear Repulsion Energy =            192.8381613388762901
    One-Electron Energy =                -748.4519166974648670
    Two-Electron Energy =                 287.5536161647918334
    DFT Exchange-Correlation Energy =       0.0000000000000000
    Empirical Dispersion Energy =           0.0000000000000000
    PCM Polarization Energy =               0.0000000000000000
    EFP Energy =                            0.0000000000000000
    Total Energy =                       -268.0601391937967719
    Molecular point group: c1
  Basis Set: CC-PVTZ
  Basis Set:

  -Total Gradient:
     Atom            X                  Y                   Z
    ------   -----------------  -----------------  -----------------
       1        0.000009073919     0.000010544726     0.000003678744
       2        0.000038350482     0.000024207257     0.000006028618
       3       -0.001253513322    -0.001971211919    -0.001649146905
       4        0.000599424914     0.001080056986     0.002538909957
       5        0.000920426288     0.001463289454     0.000966294782
       6       -0.000006386261    -0.000002773367    -0.000000094706
       7        0.000023606097    -0.000002430574    -0.000015079602
       8       -0.000311691091    -0.000621105666    -0.001851197482
       9       -0.000004221713     0.000010774891    -0.000013152636
      10       -0.000014655956     0.000004746471     0.000018390889
      11       -0.000002467041     0.000003123445    -0.000003519889
      12        0.000005336520    -0.000003871283     0.000002934774
      13       -0.000003282842     0.000004649579    -0.000004046543

  **** Optimization is complete! (in 6 steps) ****
    Final optimized geometry and variables:
    Molecular point group: c1

    Geometry (in Angstrom), charge = 0, multiplicity = 1:

    H           -2.060156861713    -0.298576128533    -1.243290720156
    O           -1.980457716467     0.282941367508    -0.509285987180
    C           -0.795723184524     1.016943803494    -0.602259886644
    C            0.457516728967     0.171031704873    -0.529554874497
    H           -0.766322512985     1.608681757828    -1.514704138103
    H           -0.797554961744     1.706343966788     0.230454556187
    O            0.657260305402    -0.276436689986     0.768221331767
    H            1.307184339595     0.761917801589    -0.873211285207
    H            0.366823611005    -0.675184034714    -1.213984525296
    C            1.750641224631    -1.117942047576     0.926901022165
    H            2.678340433505    -0.625257115734     0.642582290713
    H            1.807927363071    -1.391935831269     1.970015117102
    H            1.646242901307    -2.023100788335     0.332519666338

  Mulliken Charges: (a.u.)
   Center  Symbol    Alpha    Beta     Spin     Total
       1     H     0.39661  0.39661  0.00000  0.20679
       2     O     4.19720  4.19720  0.00000 -0.39441
       3     C     2.96384  2.96384  0.00000  0.07233
       4     C     2.96531  2.96531  0.00000  0.06938
       5     H     0.47381  0.47381  0.00000  0.05238
       6     H     0.45525  0.45525  0.00000  0.08950
       7     O     4.16760  4.16760  0.00000 -0.33521
       8     H     0.47595  0.47595  0.00000  0.04810
       9     H     0.48404  0.48404  0.00000  0.03192
      10     C     3.03101  3.03101  0.00000 -0.06203
      11     H     0.47237  0.47237  0.00000  0.05525
      12     H     0.44538  0.44538  0.00000  0.10924
      13     H     0.47162  0.47162  0.00000  0.05675

   Total alpha = 21.00000, Total beta = 21.00000, Total charge = -0.00000
