                              Psi4 1.0.54 Driver

  ==> Input File <==

--------------------------------------------------------------------------
set {
	reference rhf
	basis cc-pvtz
}

set_num_threads( 4 )
memory 2 gb

molecule MOL {
0 1

H	 1.133016	 -2.442272	 -0.598313
C	 0.480173	 -2.576973	 0.274215
C	 -0.803759	 -1.795328	 0.237510
O	 0.810438	 -3.293223	 1.154865
C	 -0.554654	 -0.292621	 0.086567
H	 -1.364023	 -2.013615	 1.137117
H	 -1.378435	 -2.153226	 -0.614272
C	 -1.846385	 0.513195	 -0.016346
H	 0.024188	 0.060217	 0.935322
H	 0.052404	 -0.111952	 -0.796899
C	 -3.089953	 -0.365049	 -0.098564
H	 -1.798267	 1.154820	 -0.891143
H	 -1.925398	 1.173265	 0.842889
H	 -3.055079	 -1.012299	 -0.968245
H	 -3.988403	 0.236438	 -0.170014
H	 -3.183055	 -0.995885	 0.779079

	symmetry c1
}
set optking {
	frozen_dihedral = ("
		9 5 8 12
	")
}

ee,wfn = optimize('scf', return_wfn=True)
oeprop( wfn, 'DIPOLE', 'QUADRUPOLE', 'MULLIKEN_CHARGES')
f=open( 'psi4out.xyz', 'w' )
f.write( "16  " )
f.write( str(ee) + "\n" )
f.write( MOL.save_string_xyz() )
f.close()
--------------------------------------------------------------------------

    Molecular point group: c1
  Charge       = 0
  Multiplicity = 1
  Basis Set: CC-PVTZ
  Basis Set:
  @DF-RHF Final Energy:  -270.10515628900998
    Total Energy =                       -270.1051562890101536
    Molecular point group: c1
  Basis Set: CC-PVTZ
  Basis Set:
  Basis Set: CC-PVTZ
  Basis Set:
  @DF-RHF Final Energy:  -270.10402536646325
    Total Energy =                       -270.1040253664629631
  Basis Set: CC-PVTZ
  Basis Set:
  Basis Set: CC-PVTZ
  Basis Set:
  @DF-RHF Final Energy:  -270.10891445515239
    Total Energy =                       -270.1089144551525578
  Basis Set: CC-PVTZ
  Basis Set:
  Basis Set: CC-PVTZ
  Basis Set:
  @DF-RHF Final Energy:  -270.10922826622823
    Total Energy =                       -270.1092282662281718
  Basis Set: CC-PVTZ
  Basis Set:
  Basis Set: CC-PVTZ
  Basis Set:
  @DF-RHF Final Energy:  -270.10502846572797
    Total Energy =                       -270.1050284657279690
  Basis Set: CC-PVTZ
  Basis Set:
  Basis Set: CC-PVTZ
  Basis Set:
  @DF-RHF Final Energy:  -270.10927293106670
    Total Energy =                       -270.1092729310668119
  Basis Set: CC-PVTZ
  Basis Set:
  Basis Set: CC-PVTZ
  Basis Set:
  @DF-RHF Final Energy:  -270.10941510536628
    Total Energy =                       -270.1094151053663381
  Basis Set: CC-PVTZ
  Basis Set:
  Charge       = 0
  Multiplicity = 1
  Basis Set: CC-PVTZ
  Basis Set:

    Orbital Energies (a.u.)
    -----------------------

    Doubly Occupied:

       1A    -20.551671     2A    -11.320748     3A    -11.235126
       4A    -11.233272     5A    -11.228047     6A    -11.217363
       7A     -1.406471     8A     -1.093485     9A     -1.015792
      10A     -0.916348    11A     -0.811170    12A     -0.785565
      13A     -0.680233    14A     -0.649592    15A     -0.640485
      16A     -0.588019    17A     -0.578053    18A     -0.567157
      19A     -0.535286    20A     -0.520250    21A     -0.486682
      22A     -0.475316    23A     -0.466008    24A     -0.411848

  @DF-RHF Final Energy:  -270.10941513033390

   => Energetics <=

    Nuclear Repulsion Energy =            232.5578236688606069
    One-Electron Energy =                -826.5065060532273264
    Two-Electron Energy =                 323.8392672540327339
    DFT Exchange-Correlation Energy =       0.0000000000000000
    Empirical Dispersion Energy =           0.0000000000000000
    PCM Polarization Energy =               0.0000000000000000
    EFP Energy =                            0.0000000000000000
    Total Energy =                       -270.1094151303340141
    Molecular point group: c1
  Basis Set: CC-PVTZ
  Basis Set:

  -Total Gradient:
     Atom            X                  Y                   Z
    ------   -----------------  -----------------  -----------------
       1       -0.000007332314    -0.000003395728     0.000085295516
       2        0.000092522141    -0.000008712229    -0.000147532163
       3        0.000023324822     0.000033369935     0.000186058453
       4       -0.000082873510     0.000026841267    -0.000048099150
       5        0.001054562774     0.001316104822    -0.001877064333
       6        0.000121406546    -0.000031255088    -0.000012509616
       7       -0.000198695735    -0.000004386330    -0.000052946307
       8        0.000863546079     0.001481284283     0.001693259408
       9       -0.001055769826    -0.001277058875     0.001285477800
      10        0.000034575019     0.000013253290     0.000055643533
      11       -0.000012819501    -0.000039037590     0.000035446259
      12       -0.000864708182    -0.001497925495    -0.001142496645
      13        0.000035364595    -0.000001769136    -0.000004099779
      14        0.000038754604    -0.000060180696    -0.000017674582
      15        0.000014703651    -0.000010724248    -0.000013507214
      16       -0.000056561166     0.000063591814    -0.000025251180

  **** Optimization is complete! (in 8 steps) ****
    Final optimized geometry and variables:
    Molecular point group: c1

    Geometry (in Angstrom), charge = 0, multiplicity = 1:

    H            1.989774907731    -1.119851746160    -0.920047114632
    C            1.382328339227    -1.264215228748    -0.016918415374
    C            0.053746437902    -0.559499389793    -0.020709502654
    O            1.789979812075    -1.932297427370     0.869209543149
    C            0.242060271576     0.953992341060    -0.188848657880
    H           -0.459260988291    -0.803726426009     0.898734373490
    H           -0.520775534821    -0.963525200242    -0.849382056908
    C           -1.051746938300     1.804783173129    -0.289644505801
    H            0.822141646304     1.300905455654     0.658903969672
    H            0.852533187041     1.127532459261    -1.068592032921
    C           -2.376906417178     1.048578142315    -0.381587555011
    H           -0.977080348645     2.437834051177    -1.166384739213
    H           -1.098735333311     2.471394455711     0.563041530456
    H           -2.422404071577     0.414287290424    -1.259295459089
    H           -3.195628851507     1.755091444139    -0.451097781310
    H           -2.555721600499     0.428170426782     0.487996036148

  Mulliken Charges: (a.u.)
   Center  Symbol    Alpha    Beta     Spin     Total
       1     H     0.46577  0.46577  0.00000  0.06846
       2     C     2.91083  2.91083  0.00000  0.17834
       3     C     3.07710  3.07710  0.00000 -0.15419
       4     O     4.16410  4.16410  0.00000 -0.32820
       5     C     3.11259  3.11259  0.00000 -0.22518
       6     H     0.44149  0.44149  0.00000  0.11701
       7     H     0.44882  0.44882  0.00000  0.10236
       8     C     3.08674  3.08674  0.00000 -0.17347
       9     H     0.44244  0.44244  0.00000  0.11513
      10     H     0.44850  0.44850  0.00000  0.10300
      11     C     3.15783  3.15783  0.00000 -0.31565
      12     H     0.44955  0.44955  0.00000  0.10089
      13     H     0.44795  0.44795  0.00000  0.10409
      14     H     0.45344  0.45344  0.00000  0.09313
      15     H     0.44246  0.44246  0.00000  0.11509
      16     H     0.45040  0.45040  0.00000  0.09920

   Total alpha = 24.00000, Total beta = 24.00000, Total charge =  0.00000

*** Psi4 exiting successfully. Buy a developer a beer!
