  ==> Input File <==

--------------------------------------------------------------------------
set {
	reference rhf
	basis cc-pvtz
}

set_num_threads( 4 )
memory 2 gb

molecule MOL {
0 1

H	 -0.939693	 0.000281	 1.681345
O	 -0.046262	 -0.000157	 1.387678
C	 -0.000837	 0.000006	 -0.025491
C	 -1.335971	 0.493071	 -0.579974
C	 1.144936	 0.891648	 -0.500175
C	 0.244758	 -1.449423	 -0.421758
H	 -1.344053	 0.470083	 -1.663579
H	 -1.527788	 1.515620	 -0.269056
H	 -2.145417	 -0.127192	 -0.215921
H	 1.227704	 0.883198	 -1.580853
H	 0.987250	 1.919703	 -0.188227
H	 2.083340	 0.552232	 -0.079867
H	 0.295958	 -1.552150	 -1.499308
H	 -0.554522	 -2.079381	 -0.052277
H	 1.176178	 -1.801365	 0.003457

	symmetry c1
}
set optking {
	frozen_dihedral = ("
		4 3 2 1
	")
}

ee = optimize('scf')
oeprop('DIPOLE', 'QUADRUPOLE', 'MULLIKEN_CHARGES')
f=open( 'psi4out.xyz', 'w' )
f.write( "15  " )
f.write( str(ee) + "\n" )
f.write( MOL.save_string_xyz() )
f.close()
--------------------------------------------------------------------------

    Molecular point group: c1
  Charge       = 0
  Multiplicity = 1
  Basis Set: CC-PVTZ
  Basis Set:
  @DF-RHF Final Energy:  -232.24405286248324
    Total Energy =                       -232.2440528624832723
    Molecular point group: c1
  Basis Set: CC-PVTZ
  Basis Set:
  Basis Set: CC-PVTZ
  Basis Set:
  @DF-RHF Final Energy:  -232.24497336950483
    Total Energy =                       -232.2449733695048053
  Basis Set: CC-PVTZ
  Basis Set:
  Basis Set: CC-PVTZ
  Basis Set:
  @DF-RHF Final Energy:  -232.24522829027086
    Total Energy =                       -232.2452282902708021
  Basis Set: CC-PVTZ
  Basis Set:
  Charge       = 0
  Multiplicity = 1
  Basis Set: CC-PVTZ
  Basis Set:

    Orbital Energies (a.u.)
    -----------------------

    Doubly Occupied:

       1A    -20.540627     2A    -11.281058     3A    -11.215402
       4A    -11.204138     5A    -11.203463     6A     -1.363281
       7A     -1.065619     8A     -0.945849     9A     -0.937085
      10A     -0.778601    11A     -0.672013    12A     -0.624571
      13A     -0.622735    14A     -0.576673    15A     -0.557306
      16A     -0.534267    17A     -0.517046    18A     -0.511323
      19A     -0.503440    20A     -0.458628    21A     -0.426862

  @DF-RHF Final Energy:  -232.24522903172414

   => Energetics <=

    Nuclear Repulsion Energy =            200.6014789115487815
    One-Electron Energy =                -712.6134362830568989
    Two-Electron Energy =                 279.7667283397838673
    DFT Exchange-Correlation Energy =       0.0000000000000000
    Empirical Dispersion Energy =           0.0000000000000000
    PCM Polarization Energy =               0.0000000000000000
    EFP Energy =                            0.0000000000000000
    Total Energy =                       -232.2452290317241932
    Molecular point group: c1
  Basis Set: CC-PVTZ
  Basis Set:

  -Total Gradient:
     Atom            X                  Y                   Z
    ------   -----------------  -----------------  -----------------
       1        0.000074682147     0.001631530489    -0.000043599265
       2       -0.000294299918    -0.002118568218    -0.000063125057
       3        0.000626715911     0.001469792515    -0.000207132452
       4       -0.000314865335    -0.000864360869     0.000137107732
       5       -0.000121361305     0.000201730909     0.000175315010
       6       -0.000028861250    -0.000102144645    -0.000098987660
       7        0.000031879825    -0.000088340110     0.000025927056
       8        0.000075821803    -0.000004118133    -0.000010683733
       9       -0.000059697283    -0.000021391234    -0.000029355443
      10       -0.000038683867     0.000039886531    -0.000020496078
      11        0.000166259744     0.000026231169     0.000078757448
      12       -0.000097984854    -0.000097901904    -0.000028689056
      13       -0.000091991067     0.000018249125     0.000069854165
      14        0.000011830504    -0.000158450579     0.000020881949
      15        0.000060554945     0.000067854952    -0.000005774613

  **** Optimization is complete! (in 4 steps) ****
    Final optimized geometry and variables:
    Molecular point group: c1

    Geometry (in Angstrom), charge = 0, multiplicity = 1:

    H           -0.890778381685     0.089601648841     1.713863019183
    O           -0.010211209843     0.058584778054     1.390315344400
    C            0.002077101847    -0.001735995934    -0.025282482089
    C           -1.331401402803     0.492085588672    -0.578845467480
    C            1.146308945134     0.894294267859    -0.483014070546
    C            0.251317090244    -1.449691377892    -0.443370503702
    H           -1.336494484832     0.465377626805    -1.661455174190
    H           -1.521275499921     1.512150350175    -0.264369469682
    H           -2.148128113079    -0.132977777416    -0.230033718512
    H            1.249969495332     0.875202375992    -1.561950574295
    H            0.975103066984     1.916293625231    -0.168539374143
    H            2.077168437847     0.559068910630    -0.043124688600
    H            0.304575520573    -1.545038196904    -1.522167804008
    H           -0.544622743740    -2.092258238183    -0.083880257957
    H            1.183284962249    -1.802693622079    -0.020104981061

  Mulliken Charges: (a.u.)
   Center  Symbol    Alpha    Beta     Spin     Total
       1     H     0.39276  0.39276  0.00000  0.21449
       2     O     4.21449  4.21449  0.00000 -0.42897
       3     C     2.87980  2.87980  0.00000  0.24040
       4     C     3.16041  3.16041  0.00000 -0.32083
       5     C     3.14010  3.14010  0.00000 -0.28020
       6     C     3.14196  3.14196  0.00000 -0.28392
       7     H     0.45124  0.45124  0.00000  0.09753
       8     H     0.44604  0.44604  0.00000  0.10792
       9     H     0.45277  0.45277  0.00000  0.09446
      10     H     0.45944  0.45944  0.00000  0.08113
      11     H     0.45167  0.45167  0.00000  0.09665
      12     H     0.44749  0.44749  0.00000  0.10503
      13     H     0.45880  0.45880  0.00000  0.08239
      14     H     0.45464  0.45464  0.00000  0.09073
      15     H     0.44840  0.44840  0.00000  0.10321

   Total alpha = 21.00000, Total beta = 21.00000, Total charge = -0.00000
