  ==> Input File <==

--------------------------------------------------------------------------
set {
	reference rhf
	basis 6-31G*
}

set_num_threads( 1 )
memory 2 gb

molecule MOL {
0 1

H	 2.591676	 2.013956	 0.335017
O	 3.341076	 1.666752	 -0.126416
C	 3.569581	 0.339145	 0.272707
C	 2.539767	 -0.640285	 -0.279495
H	 4.553106	 0.084646	 -0.100901
H	 3.608576	 0.269204	 1.359154
C	 1.115811	 -0.397273	 0.226630
H	 2.556196	 -0.582511	 -1.364741
H	 2.852081	 -1.648031	 -0.010655
C	 0.119944	 -0.143742	 -0.908618
H	 1.117718	 0.452121	 0.904046
H	 0.785260	 -1.259659	 0.805740
C	 -1.337333	 0.021179	 -0.461981
H	 0.428136	 0.739925	 -1.464494
H	 0.173559	 -0.975291	 -1.608156
C	 -1.616755	 1.271305	 0.376820
H	 -1.965451	 0.051977	 -1.349863
H	 -1.644899	 -0.862845	 0.094564
C	 -3.100141	 1.447304	 0.708523
H	 -1.262966	 2.150333	 -0.160074
H	 -1.051619	 1.233276	 1.304978
C	 -3.381014	 2.690976	 1.551170
H	 -3.671620	 1.501345	 -0.215586
H	 -3.457820	 0.565710	 1.236484
H	 -3.064036	 3.593387	 1.035997
H	 -4.440331	 2.788870	 1.767736
H	 -2.852330	 2.650191	 2.499428

	symmetry c1
}
set optking {
	frozen_dihedral = ("
		14 10 7 4,
		14 10 13 16,
		8 4 3 2,
		10 13 16 20,
		20 16 19 22,
		4 3 2 1
	")
}

ee = energy('scf')
oeprop('DIPOLE', 'QUADRUPOLE', 'MULLIKEN_CHARGES')
f=open( 'psi4out.xyz', 'w' )
f.write( "27  " )
f.write( str(ee) + "\n" )
f.write( MOL.save_string_xyz() )
f.close()
--------------------------------------------------------------------------

    Molecular point group: c1

    Geometry (in Angstrom), charge = 0, multiplicity = 1:

       Center              X                  Y                   Z               Mass
    ------------   -----------------  -----------------  -----------------  -----------------
           H          2.410506331605     1.287104570075     0.174297190358     1.007825032070
           O          3.159906331605     0.939900570075    -0.287135809642    15.994914619560
           C          3.388411331605    -0.387706429925     0.111987190358    12.000000000000
           C          2.358597331605    -1.367136429925    -0.440214809642    12.000000000000
           H          4.371936331605    -0.642205429925    -0.261620809642     1.007825032070
           H          3.427406331605    -0.457647429925     1.198434190358     1.007825032070
           C          0.934641331605    -1.124124429925     0.065910190358    12.000000000000
           H          2.375026331605    -1.309362429925    -1.525460809642     1.007825032070
           H          2.670911331605    -2.374882429925    -0.171374809642     1.007825032070
           C         -0.061225668395    -0.870593429925    -1.069337809642    12.000000000000
           H          0.936548331605    -0.274730429925     0.743326190358     1.007825032070
           H          0.604090331605    -1.986510429925     0.645020190358     1.007825032070
           C         -1.518502668395    -0.705672429925    -0.622700809642    12.000000000000
           H          0.246966331605     0.013073570075    -1.625213809642     1.007825032070
           H         -0.007610668395    -1.702142429925    -1.768875809642     1.007825032070
           C         -1.797924668395     0.544453570075     0.216100190358    12.000000000000
           H         -2.146620668395    -0.674874429925    -1.510582809642     1.007825032070
           H         -1.826068668395    -1.589696429925    -0.066155809642     1.007825032070
           C         -3.281310668395     0.720452570075     0.547803190358    12.000000000000
           H         -1.444135668395     1.423481570075    -0.320793809642     1.007825032070
           H         -1.232788668395     0.506424570075     1.144258190358     1.007825032070
           C         -3.562183668395     1.964124570075     1.390450190358    12.000000000000
           H         -3.852789668395     0.774493570075    -0.376305809642     1.007825032070
           H         -3.638989668395    -0.161141429925     1.075764190358     1.007825032070
           H         -3.245205668395     2.866535570075     0.875277190358     1.007825032070
           H         -4.621500668395     2.062018570075     1.607016190358     1.007825032070
           H         -3.033499668395     1.923339570075     2.338708190358     1.007825032070

  Charge       = 0
  Multiplicity = 1
  Basis Set: 6-31G*
  Basis Set:

    Orbital Energies (a.u.)
    -----------------------

    Doubly Occupied:

       1A    -20.552622     2A    -11.266960     3A    -11.219314
       4A    -11.216522     5A    -11.216198     6A    -11.215346
       7A    -11.214678     8A    -11.213755     9A    -11.209930
      10A     -1.359356    11A     -1.095243    12A     -1.061794
      13A     -1.011341    14A     -0.948396    15A     -0.888252
      16A     -0.820545    17A     -0.802053    18A     -0.777897
      19A     -0.694617    20A     -0.652009    21A     -0.641888
      22A     -0.612159    23A     -0.593915    24A     -0.583782
      25A     -0.577301    26A     -0.556146    27A     -0.542421
      28A     -0.534178    29A     -0.510303    30A     -0.494064
      31A     -0.487431    32A     -0.470987    33A     -0.465981
      34A     -0.457143    35A     -0.453004    36A     -0.440867
      37A     -0.423662

  @DF-RHF Final Energy:  -388.27624933886278

   => Energetics <=

    Nuclear Repulsion Energy =            465.2036540628524222
    One-Electron Energy =               -1448.3959193341684113
    Two-Electron Energy =                 594.9160159324508186
    DFT Exchange-Correlation Energy =       0.0000000000000000
    Empirical Dispersion Energy =           0.0000000000000000
    PCM Polarization Energy =               0.0000000000000000
    EFP Energy =                            0.0000000000000000
    Total Energy =                       -388.2762493388652274

  Mulliken Charges: (a.u.)
   Center  Symbol    Alpha    Beta     Spin     Total
       1     H     0.27936  0.27936  0.00000  0.44127
       2     O     4.37138  4.37138  0.00000 -0.74275
       3     C     3.00027  3.00027  0.00000 -0.00053
       4     C     3.16307  3.16307  0.00000 -0.32614
       5     H     0.41519  0.41519  0.00000  0.16963
       6     H     0.43172  0.43172  0.00000  0.13655
       7     C     3.16088  3.16088  0.00000 -0.32176
       8     H     0.41222  0.41222  0.00000  0.17555
       9     H     0.42169  0.42169  0.00000  0.15662
      10     C     3.15623  3.15623  0.00000 -0.31247
      11     H     0.43022  0.43022  0.00000  0.13957
      12     H     0.41878  0.41878  0.00000  0.16245
      13     C     3.15385  3.15385  0.00000 -0.30770
      14     H     0.41916  0.41916  0.00000  0.16167
      15     H     0.41997  0.41997  0.00000  0.16007
      16     C     3.15338  3.15338  0.00000 -0.30676
      17     H     0.42109  0.42109  0.00000  0.15782
      18     H     0.42408  0.42408  0.00000  0.15184
      19     C     3.15093  3.15093  0.00000 -0.30187
      20     H     0.42471  0.42471  0.00000  0.15058
      21     H     0.42408  0.42408  0.00000  0.15184
      22     C     3.23936  3.23936  0.00000 -0.47872
      23     H     0.42248  0.42248  0.00000  0.15504
      24     H     0.42288  0.42288  0.00000  0.15424
      25     H     0.42165  0.42165  0.00000  0.15671
      26     H     0.41896  0.41896  0.00000  0.16208
      27     H     0.42243  0.42243  0.00000  0.15514

   Total alpha = 37.00000, Total beta = 37.00000, Total charge =  0.00000
