  ==> Input File <==

--------------------------------------------------------------------------
set {
	reference rhf
	basis 6-31G*
}

set_num_threads( 1 )
memory 2 gb

molecule MOL {
0 1

O	 -0.682937	 1.318834	 -0.186099
C	 -0.860635	 0.152188	 -0.042321
C	 -2.173363	 -0.477127	 0.338347
O	 0.083258	 -0.765189	 -0.202595
H	 -2.477673	 -1.180929	 -0.427595
H	 -2.923125	 0.290956	 0.455536
H	 -2.058825	 -1.029004	 1.264191
C	 0.561275	 -1.023266	 -1.520812
C	 1.637558	 -0.033345	 -1.926171
H	 -0.269477	 -1.003579	 -2.209727
H	 0.956780	 -2.027689	 -1.473821
H	 2.034082	 -0.300739	 -2.900850
H	 1.235805	 0.970323	 -1.986285
H	 2.453690	 -0.043463	 -1.211860

	symmetry c1
}
set optking {
	frozen_dihedral = ("
		10 8 4 2
	")
}

ee = energy('scf')
oeprop('DIPOLE', 'QUADRUPOLE', 'MULLIKEN_CHARGES')
f=open( 'psi4out.xyz', 'w' )
f.write( "14  " )
f.write( str(ee) + "\n" )
f.write( MOL.save_string_xyz() )
f.close()
--------------------------------------------------------------------------

    Molecular point group: c1

    Geometry (in Angstrom), charge = 0, multiplicity = 1:

       Center              X                  Y                   Z               Mass
    ------------   -----------------  -----------------  -----------------  -----------------
           O         -0.448182048091     1.456036982060     0.411107237042    15.994914619560
           C         -0.625880048091     0.289390982060     0.554885237042    12.000000000000
           C         -1.938608048091    -0.339924017940     0.935553237042    12.000000000000
           O          0.318012951909    -0.627986017940     0.394611237042    15.994914619560
           H         -2.242918048091    -1.043726017940     0.169611237042     1.007825032070
           H         -2.688370048091     0.428158982060     1.052742237042     1.007825032070
           H         -1.824070048091    -0.891801017940     1.861397237042     1.007825032070
           C          0.796029951909    -0.886063017940    -0.923605762958    12.000000000000
           C          1.872312951909     0.103857982060    -1.328964762958    12.000000000000
           H         -0.034722048091    -0.866376017940    -1.612520762958     1.007825032070
           H          1.191534951909    -1.890486017940    -0.876614762958     1.007825032070
           H          2.268836951909    -0.163536017940    -2.303643762958     1.007825032070
           H          1.470559951909     1.107525982060    -1.389078762958     1.007825032070
           H          2.688444951909     0.093739982060    -0.614653762958     1.007825032070

  Charge       = 0
  Multiplicity = 1
  Basis Set: 6-31G*
  Basis Set:

    Orbital Energies (a.u.)
    -----------------------

    Doubly Occupied:

       1A    -20.585710     2A    -20.553560     3A    -11.376856
       4A    -11.297266     5A    -11.233813     6A    -11.216280
       7A     -1.463171     8A     -1.365900     9A     -1.051886
      10A     -1.001894    11A     -0.884882    12A     -0.770896
      13A     -0.693657    14A     -0.682825    15A     -0.664701
      16A     -0.607232    17A     -0.588763    18A     -0.577185
      19A     -0.557490    20A     -0.537407    21A     -0.514091
      22A     -0.486862    23A     -0.450671    24A     -0.436129

  @DF-RHF Final Energy:  -305.85731589036686

   => Energetics <=

    Nuclear Repulsion Energy =            248.7015401238493268
    One-Electron Energy =                -909.9196178863192017
    Two-Electron Energy =                 355.3607618721030690
    DFT Exchange-Correlation Energy =       0.0000000000000000
    Empirical Dispersion Energy =           0.0000000000000000
    PCM Polarization Energy =               0.0000000000000000
    EFP Energy =                            0.0000000000000000
    Total Energy =                       -305.8573158903668059

  Mulliken Charges: (a.u.)
   Center  Symbol    Alpha    Beta     Spin     Total
       1     O     4.26211  4.26211  0.00000 -0.52422
       2     C     2.62826  2.62826  0.00000  0.74347
       3     C     3.28190  3.28190  0.00000 -0.56379
       4     O     4.31178  4.31178  0.00000 -0.62357
       5     H     0.40648  0.40648  0.00000  0.18704
       6     H     0.39940  0.39940  0.00000  0.20121
       7     H     0.39869  0.39869  0.00000  0.20261
       8     C     3.00606  3.00606  0.00000 -0.01211
       9     C     3.24927  3.24927  0.00000 -0.49854
      10     H     0.41930  0.41930  0.00000  0.16140
      11     H     0.40620  0.40620  0.00000  0.18760
      12     H     0.42247  0.42247  0.00000  0.15505
      13     H     0.39804  0.39804  0.00000  0.20392
      14     H     0.41003  0.41003  0.00000  0.17994

   Total alpha = 24.00000, Total beta = 24.00000, Total charge = -0.00000
