  ==> Input File <==

--------------------------------------------------------------------------
set {
	reference rhf
	basis 6-31G*
}

set_num_threads( 4 )
memory 2 gb

molecule MOL {
0 1

H	 2.176868	 -0.646004	 -0.217325
O	 1.337496	 -0.537251	 0.205931
C	 0.702312	 0.627605	 -0.264544
C	 -0.714990	 0.596302	 0.266387
H	 0.682322	 0.642550	 -1.350929
H	 1.215941	 1.520383	 0.085680
O	 -1.405996	 -0.526611	 -0.195820
H	 -1.257453	 1.468809	 -0.075599
H	 -0.688972	 0.618407	 1.353696
H	 -1.930872	 -0.858150	 0.521538

	symmetry c1
}
set optking {
	frozen_dihedral = ("
		10 7 4 3
	")
}

ee = optimize('scf')
oeprop('DIPOLE', 'QUADRUPOLE', 'MULLIKEN_CHARGES')
f=open( 'psi4out.xyz', 'w' )
f.write( "10  " )
f.write( str(ee) + "\n" )
f.write( MOL.save_string_xyz() )
f.close()
--------------------------------------------------------------------------

    Molecular point group: c1
  Charge       = 0
  Multiplicity = 1
  Basis Set: 6-31G*
  Basis Set:
  @DF-RHF Final Energy:  -228.91747015675278
    Total Energy =                       -228.9174701567527279
    Molecular point group: c1
  Basis Set: 6-31G*
  Basis Set:
  Basis Set: 6-31G*
  Basis Set:
  @DF-RHF Final Energy:  -228.91924768757573
    Total Energy =                       -228.9192476875758189
  Basis Set: 6-31G*
  Basis Set:
  Basis Set: 6-31G*
  Basis Set:
  @DF-RHF Final Energy:  -228.91942776502475
    Total Energy =                       -228.9194277650247500
  Basis Set: 6-31G*
  Basis Set:
  Basis Set: 6-31G*
  Basis Set:
  @DF-RHF Final Energy:  -228.91945209434292
    Total Energy =                       -228.9194520943428870
  Basis Set: 6-31G*
  Basis Set:
  Basis Set: 6-31G*
  Basis Set:
  @DF-RHF Final Energy:  -228.91945590187404
    Total Energy =                       -228.9194559018739596
  Basis Set: 6-31G*
  Basis Set:
  Charge       = 0
  Multiplicity = 1
  Basis Set: 6-31G*
  Basis Set:

    Orbital Energies (a.u.)
    -----------------------

    Doubly Occupied:

       1A    -20.553441     2A    -20.551172     3A    -11.269688
       4A    -11.268761     5A     -1.370525     6A     -1.349632
       7A     -1.001583     8A     -0.831592     9A     -0.717702
      10A     -0.703585    11A     -0.615233    12A     -0.592911
      13A     -0.590719    14A     -0.524189    15A     -0.475104
      16A     -0.443480    17A     -0.435579

  @DF-RHF Final Energy:  -228.91945654170630

   => Energetics <=

    Nuclear Repulsion Energy =            133.4380081611671756
    One-Electron Energy =                -578.1251362271962080
    Two-Electron Energy =                 215.7676715243227363
    DFT Exchange-Correlation Energy =       0.0000000000000000
    Empirical Dispersion Energy =           0.0000000000000000
    PCM Polarization Energy =               0.0000000000000000
    EFP Energy =                            0.0000000000000000
    Total Energy =                       -228.9194565417062677
    Molecular point group: c1
  Basis Set: 6-31G*
  Basis Set:

  -Total Gradient:
     Atom            X                  Y                   Z
    ------   -----------------  -----------------  -----------------
       1        0.000014402493    -0.000000052235     0.000008815347
       2       -0.000032760691     0.000009280354    -0.000013567846
       3        0.000029059403     0.000064966904    -0.000079983594
       4       -0.000002872841    -0.000028133582     0.000151080103
       5       -0.000001050292     0.000004216869    -0.000025166353
       6        0.000001936499    -0.000021809988    -0.000016218705
       7        0.000147914218    -0.000118278738    -0.000003227855
       8       -0.000012617966    -0.000021980199     0.000005467615
       9       -0.000007884688     0.000014670327     0.000015476833
      10       -0.000136126136     0.000097120287    -0.000042675545

  **** Optimization is complete! (in 6 steps) ****
    Final optimized geometry and variables:
    Molecular point group: c1

    Geometry (in Angstrom), charge = 0, multiplicity = 1:

    H            2.209811551586    -0.646239338831    -0.210438190749
    O            1.410875545732    -0.499269298974     0.274631928044
    C            0.699849105121     0.566999382122    -0.292852409954
    C           -0.701036250411     0.567019084419     0.273051578726
    H            0.640431579390     0.471629957092    -1.373726525114
    H            1.178484192112     1.517619675214    -0.061037252136
    O           -1.425062254268    -0.505507101347    -0.267991159566
    H           -1.187449532688     1.507539003252     0.023496897156
    H           -0.637668366678     0.497764421636     1.354716467893
    H           -1.964320928632    -0.904346702256     0.397359893337

  Mulliken Charges: (a.u.)
   Center  Symbol    Alpha    Beta     Spin     Total
       1     H     0.27949  0.27949  0.00000  0.44102
       2     O     4.36853  4.36853  0.00000 -0.73706
       3     C     2.99985  2.99985  0.00000  0.00029
       4     C     3.00126  3.00126  0.00000 -0.00252
       5     H     0.42208  0.42208  0.00000  0.15583
       6     H     0.43233  0.43233  0.00000  0.13534
       7     O     4.36882  4.36882  0.00000 -0.73764
       8     H     0.42777  0.42777  0.00000  0.14446
       9     H     0.42195  0.42195  0.00000  0.15610
      10     H     0.27791  0.27791  0.00000  0.44418

   Total alpha = 17.00000, Total beta = 17.00000, Total charge = -0.00000
