  ==> Input File <==

--------------------------------------------------------------------------
set {
	reference rhf
	basis 6-31G*
}

set_num_threads( 1 )
memory 2 gb

molecule MOL {
0 1

O	 -0.545567	 0.050263	 -0.577867
C	 0.486307	 0.169203	 0.000779
C	 1.608116	 -0.841643	 0.000302
O	 0.791675	 1.227012	 0.739291
C	 2.990107	 -0.200498	 -0.000684
H	 1.468623	 -1.481519	 -0.865924
H	 1.469683	 -1.481289	 0.866878
H	 3.129736	 0.423364	 -0.875135
H	 3.757882	 -0.966877	 -0.001197
H	 3.130964	 0.423383	 0.873533
C	 -0.177446	 2.265986	 0.832778
C	 0.400200	 3.346720	 1.721963
H	 -1.092347	 1.858939	 1.241255
H	 -0.392883	 2.637585	 -0.159740
H	 0.615527	 2.957316	 2.710475
H	 -0.309182	 4.161965	 1.820961
H	 1.318807	 3.740342	 1.301867

	symmetry c1
}
set optking {
	frozen_dihedral = ("
		2 4 11 13,
		11 4 2 3
	")
}

ee = energy('scf')
oeprop('DIPOLE', 'QUADRUPOLE', 'MULLIKEN_CHARGES')
f=open( 'psi4out.xyz', 'w' )
f.write( "17  " )
f.write( str(ee) + "\n" )
f.write( MOL.save_string_xyz() )
f.close()
--------------------------------------------------------------------------

    Molecular point group: c1

    Geometry (in Angstrom), charge = 0, multiplicity = 1:

       Center              X                  Y                   Z               Mass
    ------------   -----------------  -----------------  -----------------  -----------------
           O         -1.337422570850    -0.828330662303    -0.971826468096    15.994914619560
           C         -0.305548570850    -0.709390662303    -0.393180468096    12.000000000000
           C          0.816260429150    -1.720236662303    -0.393657468096    12.000000000000
           O         -0.000180570850     0.348418337697     0.345331531904    15.994914619560
           C          2.198251429150    -1.079091662303    -0.394643468096    12.000000000000
           H          0.676767429150    -2.360112662303    -1.259883468096     1.007825032070
           H          0.677827429150    -2.359882662303     0.472918531904     1.007825032070
           H          2.337880429150    -0.455229662303    -1.269094468096     1.007825032070
           H          2.966026429150    -1.845470662303    -0.395156468096     1.007825032070
           H          2.339108429150    -0.455210662303     0.479573531904     1.007825032070
           C         -0.969301570850     1.387392337697     0.438818531904    12.000000000000
           C         -0.391655570850     2.468126337697     1.328003531904    12.000000000000
           H         -1.884202570850     0.980345337697     0.847295531904     1.007825032070
           H         -1.184738570850     1.758991337697    -0.553699468096     1.007825032070
           H         -0.176328570850     2.078722337697     2.316515531904     1.007825032070
           H         -1.101037570850     3.283371337697     1.427001531904     1.007825032070
           H          0.526951429150     2.861748337697     0.907907531904     1.007825032070

  Charge       = 0
  Multiplicity = 1
  Basis Set: 6-31G*
  Basis Set:

    Orbital Energies (a.u.)
    -----------------------

    Doubly Occupied:

       1A    -20.602198     2A    -20.542582     3A    -11.371122
       4A    -11.285321     5A    -11.236948     6A    -11.223050
       7A    -11.220577     8A     -1.468027     9A     -1.361188
      10A     -1.074711    11A     -1.029750    12A     -0.904710
      13A     -0.859491    14A     -0.778175    15A     -0.691941
      16A     -0.677930    17A     -0.673762    18A     -0.625692
      19A     -0.581862    20A     -0.571559    21A     -0.552169
      22A     -0.546273    23A     -0.525368    24A     -0.513898
      25A     -0.504711    26A     -0.491269    27A     -0.452170
      28A     -0.431048

  @DF-RHF Final Energy:  -344.90942564142358

   => Energetics <=

    Nuclear Repulsion Energy =            318.5198801969099804
    One-Electron Energy =               -1101.2636663891928492
    Two-Electron Energy =                 437.8343605508583209
    DFT Exchange-Correlation Energy =       0.0000000000000000
    Empirical Dispersion Energy =           0.0000000000000000
    PCM Polarization Energy =               0.0000000000000000
    EFP Energy =                            0.0000000000000000
    Total Energy =                       -344.9094256414245478

  Mulliken Charges: (a.u.)
   Center  Symbol    Alpha    Beta     Spin     Total
       1     O     4.28783  4.28783  0.00000 -0.57566
       2     C     2.60664  2.60664  0.00000  0.78672
       3     C     3.20441  3.20441  0.00000 -0.40882
       4     O     4.30980  4.30980  0.00000 -0.61961
       5     C     3.24419  3.24419  0.00000 -0.48838
       6     H     0.39826  0.39826  0.00000  0.20347
       7     H     0.40092  0.40092  0.00000  0.19817
       8     H     0.41551  0.41551  0.00000  0.16898
       9     H     0.41578  0.41578  0.00000  0.16843
      10     H     0.40574  0.40574  0.00000  0.18852
      11     C     3.00216  3.00216  0.00000 -0.00432
      12     C     3.24889  3.24889  0.00000 -0.49779
      13     H     0.41001  0.41001  0.00000  0.17998
      14     H     0.40988  0.40988  0.00000  0.18024
      15     H     0.41200  0.41200  0.00000  0.17600
      16     H     0.41599  0.41599  0.00000  0.16803
      17     H     0.41198  0.41198  0.00000  0.17604

   Total alpha = 28.00000, Total beta = 28.00000, Total charge = -0.00000
