                              Psi4 1.0.54 Driver

  ==> Input File <==

--------------------------------------------------------------------------
set {
	reference rhf
	basis cc-pvtz
}

set_num_threads( 4 )
memory 2 gb

molecule MOL {
0 1

O	 3.219313	 0.959291	 -0.614106
C	 2.698710	 0.058177	 -0.050237
C	 1.246364	 -0.005813	 0.348416
O	 3.344101	 -1.038700	 0.312317
C	 0.453207	 1.232821	 -0.049003
H	 0.839270	 -0.907818	 -0.092281
H	 1.216683	 -0.160521	 1.422434
C	 -0.998367	 1.217982	 0.432195
H	 0.481498	 1.345443	 -1.127236
H	 0.951413	 2.105557	 0.354893
C	 -1.882951	 0.151251	 -0.211235
H	 -1.429490	 2.193659	 0.228843
H	 -1.019755	 1.099323	 1.513279
C	 -3.358558	 0.303582	 0.148162
H	 -1.770420	 0.199552	 -1.291918
H	 -1.550986	 -0.839198	 0.085996
C	 -4.251110	 -0.760429	 -0.484298
H	 -3.702988	 1.288074	 -0.159221
H	 -3.470450	 0.267308	 1.229379
C	 -5.723864	 -0.600497	 -0.122089
H	 -4.140536	 -0.725270	 -1.564695
H	 -3.909899	 -1.744946	 -0.175821
H	 -6.328827	 -1.370768	 -0.586511
H	 -6.105043	 0.361183	 -0.449173
H	 -5.872374	 -0.665546	 0.950721
C	 4.720529	 -1.114346	 0.001449
H	 4.874321	 -1.055557	 -1.065852
H	 5.057824	 -2.067950	 0.373977
H	 5.264321	 -0.313596	 0.480350

	symmetry c1
}
set optking {
	frozen_dihedral = ("
		15 11 8 5
	")
}

ee,wfn = optimize('scf', return_wfn=True)
oeprop( wfn, 'DIPOLE', 'QUADRUPOLE', 'MULLIKEN_CHARGES')
f=open( 'psi4out.xyz', 'w' )
f.write( "29  " )
f.write( str(ee) + "\n" )
f.write( MOL.save_string_xyz() )
f.close()
--------------------------------------------------------------------------

    Molecular point group: c1
  Charge       = 0
  Multiplicity = 1
  Basis Set: CC-PVTZ
  Basis Set:
  @DF-RHF Final Energy:  -501.22489860669702
    Total Energy =                       -501.2248986066964562
    Molecular point group: c1
  Basis Set: CC-PVTZ
  Basis Set:
  Basis Set: CC-PVTZ
  Basis Set:
  @DF-RHF Final Energy:  -501.22488096002348
    Total Energy =                       -501.2248809600228014
  Basis Set: CC-PVTZ
  Basis Set:
  Basis Set: CC-PVTZ
  Basis Set:
  @DF-RHF Final Energy:  -501.22490713242064
    Total Energy =                       -501.2249071324208671
  Basis Set: CC-PVTZ
  Basis Set:
  Basis Set: CC-PVTZ
  Basis Set:
  @DF-RHF Final Energy:  -501.22488491915828
    Total Energy =                       -501.2248849191583986
  Basis Set: CC-PVTZ
  Basis Set:
  Charge       = 0
  Multiplicity = 1
  Basis Set: CC-PVTZ
  Basis Set:

    Orbital Energies (a.u.)
    -----------------------

    Doubly Occupied:

       1A    -20.595959     2A    -20.533808     3A    -11.364201
       4A    -11.278195     5A    -11.232881     6A    -11.217010
       7A    -11.215470     8A    -11.213912     9A    -11.213707
      10A    -11.212309    11A    -11.207092    12A     -1.471903
      13A     -1.365456    14A     -1.099431    15A     -1.068077
      16A     -1.020600    17A     -0.978167    18A     -0.929244
      19A     -0.862308    20A     -0.799813    21A     -0.791105
      22A     -0.765542    23A     -0.702828    24A     -0.685482
      25A     -0.676046    26A     -0.652141    27A     -0.629476
      28A     -0.605944    29A     -0.595538    30A     -0.582227
      31A     -0.568164    32A     -0.549841    33A     -0.532948
      34A     -0.531661    35A     -0.517566    36A     -0.512938
      37A     -0.496418    38A     -0.478421    39A     -0.470519
      40A     -0.462926    41A     -0.460437    42A     -0.458231
      43A     -0.443901    44A     -0.437447

  @DF-RHF Final Energy:  -501.22490993566987

   => Energetics <=

    Nuclear Repulsion Energy =            611.2076928563461706
    One-Electron Energy =               -1893.8906230731508913
    Two-Electron Energy =                 781.4580202811345089
    DFT Exchange-Correlation Energy =       0.0000000000000000
    Empirical Dispersion Energy =           0.0000000000000000
    PCM Polarization Energy =               0.0000000000000000
    EFP Energy =                            0.0000000000000000
    Total Energy =                       -501.2249099356703255
    Molecular point group: c1
  Basis Set: CC-PVTZ
  Basis Set:

  -Total Gradient:
     Atom            X                  Y                   Z
    ------   -----------------  -----------------  -----------------
       1        0.000005962714    -0.000090274196     0.000058484244
       2        0.000007664747     0.000022295330    -0.000057178915
       3       -0.000020731283    -0.000018406659    -0.000013058822
       4       -0.000008231561     0.000057960693    -0.000009865106
       5       -0.000104443319     0.000353952513    -0.000354209170
       6        0.000023799018     0.000034686238     0.000025000653
       7       -0.000008711639     0.000017607384    -0.000027934098
       8        0.000252841041    -0.000520843227     0.000474126667
       9        0.000022150376    -0.000013072136     0.000057895902
      10       -0.000021295110    -0.000058399134    -0.000028108000
      11       -0.000582257943     0.000628259237    -0.000191885298
      12       -0.000004570249    -0.000060147568     0.000022794225
      13        0.000014935076    -0.000010800141    -0.000040000153
      14       -0.000036472479     0.000019238281     0.000006384479
      15        0.000509337611    -0.000418198268     0.000098536031
      16       -0.000052752026     0.000060051040    -0.000001052935
      17        0.000008041461     0.000013137797    -0.000004920856
      18        0.000024975326    -0.000063649870     0.000017819939
      19       -0.000012616107    -0.000012358164    -0.000070169913
      20       -0.000023009761    -0.000006836243     0.000012845519
      21        0.000009996425     0.000005976458     0.000059730975
      22       -0.000027309468     0.000062600617    -0.000014657276
      23        0.000015241864     0.000033880464     0.000025350472
      24        0.000032208599    -0.000057191612     0.000017136454
      25       -0.000001167428     0.000001940002    -0.000054160237
      26        0.000022833321     0.000009243247     0.000003338941
      27        0.000004551496    -0.000004356852     0.000033414445
      28       -0.000021357469     0.000060289519    -0.000020556373
      29       -0.000029613232    -0.000046584753    -0.000025101795

  **** Optimization is complete! (in 5 steps) ****
    Final optimized geometry and variables:
    Molecular point group: c1

    Geometry (in Angstrom), charge = 0, multiplicity = 1:

    O            3.227763542827     0.941386579230    -0.571382967495
    C            2.700550516145     0.036393118159    -0.020064184794
    C            1.246523053440    -0.024956501367     0.372756150497
    O            3.339248046482    -1.067921770953     0.331371523201
    C            0.460993108458     1.222566634984    -0.011477491548
    H            0.835802453634    -0.918757507952    -0.081179724217
    H            1.211963294410    -0.193576482848     1.444502514700
    C           -0.992694287115     1.207141182497     0.462618360273
    H            0.493869782229     1.348594665076    -1.087951198846
    H            0.961019831828     2.087932626218     0.405616323204
    C           -1.872624822564     0.138243658982    -0.184207444618
    H           -1.421979570090     2.182362092372     0.253250140343
    H           -1.021523835680     1.091967834073     1.543741278632
    C           -3.349367536085     0.282987287597     0.172677054968
    H           -1.755409936088     0.184240327832    -1.264468047685
    H           -1.536309744462    -0.850564776748     0.114095692350
    C           -4.234029491264    -0.791795428571    -0.452343242097
    H           -3.700025679721     1.262648708947    -0.142466889707
    H           -3.461987062280     0.254192111339     1.254006549732
    C           -5.708710962834    -0.636702651703    -0.096096788841
    H           -4.120234393088    -0.766072160966    -1.532612612480
    H           -3.888374195450    -1.771367776301    -0.133633697669
    H           -6.307953085233    -1.414710863783    -0.554861137412
    H           -6.094191613328     0.319571819865    -0.433525150764
    H           -5.860145834958    -0.692294406359     0.976763945971
    C            4.716274145255    -1.146612064491     0.024011800038
    H            4.873899941353    -1.075695408041    -1.041949260160
    H            5.047709107935    -2.106212067399     0.386016421131
    H            5.262384466446    -0.354471371223     0.514278272410

  Mulliken Charges: (a.u.)
   Center  Symbol    Alpha    Beta     Spin     Total
       1     O     4.19700  4.19700  0.00000 -0.39400
       2     C     2.80507  2.80507  0.00000  0.38986
       3     C     3.10153  3.10153  0.00000 -0.20306
       4     O     4.14718  4.14718  0.00000 -0.29437
       5     C     3.09279  3.09279  0.00000 -0.18557
       6     H     0.43884  0.43884  0.00000  0.12232
       7     H     0.43992  0.43992  0.00000  0.12017
       8     C     3.10360  3.10360  0.00000 -0.20720
       9     H     0.44612  0.44612  0.00000  0.10776
      10     H     0.43959  0.43959  0.00000  0.12082
      11     C     3.09404  3.09404  0.00000 -0.18807
      12     H     0.44573  0.44573  0.00000  0.10853
      13     H     0.45331  0.45331  0.00000  0.09337
      14     C     3.08570  3.08570  0.00000 -0.17141
      15     H     0.45290  0.45290  0.00000  0.09419
      16     H     0.45390  0.45390  0.00000  0.09219
      17     C     3.08341  3.08341  0.00000 -0.16682
      18     H     0.45377  0.45377  0.00000  0.09247
      19     H     0.45495  0.45495  0.00000  0.09011
      20     C     3.15063  3.15063  0.00000 -0.30125
      21     H     0.45447  0.45447  0.00000  0.09105
      22     H     0.45506  0.45506  0.00000  0.08989
      23     H     0.44834  0.44834  0.00000  0.10331
      24     H     0.45494  0.45494  0.00000  0.09012
      25     H     0.45523  0.45523  0.00000  0.08954
      26     C     3.03813  3.03813  0.00000 -0.07627
      27     H     0.45435  0.45435  0.00000  0.09129
      28     H     0.44527  0.44527  0.00000  0.10946
      29     H     0.45423  0.45423  0.00000  0.09154

   Total alpha = 44.00000, Total beta = 44.00000, Total charge = -0.00000

*** Psi4 exiting successfully. Buy a developer a beer!
