  ==> Input File <==

--------------------------------------------------------------------------
set {
	reference rhf
	basis 6-31G*
}

set_num_threads( 1 )
memory 2 gb

molecule MOL {
0 1

O	 -0.342034	 0.162125	 -2.918108
C	 -0.983562	 0.409449	 -1.942554
C	 -0.889235	 -0.467034	 -0.705952
C	 -1.891995	 1.616730	 -1.874744
C	 0.379448	 -0.143569	 0.099626
H	 -0.854567	 -1.499436	 -1.036478
H	 -1.768404	 -0.341407	 -0.080407
C	 1.631333	 -0.777471	 -0.511575
H	 0.482768	 0.934507	 0.149241
H	 0.263088	 -0.495696	 1.123449
C	 2.915987	 -0.544314	 0.291766
H	 1.766672	 -0.399098	 -1.523130
H	 1.471257	 -1.849544	 -0.605828
C	 3.373361	 0.914346	 0.347591
H	 3.708709	 -1.142521	 -0.150311
H	 2.780642	 -0.921148	 1.303579
H	 3.506512	 1.320010	 -0.651625
H	 4.322697	 0.999599	 0.867103
H	 2.660624	 1.545032	 0.868198
H	 -2.926581	 1.291752	 -1.802050
H	 -1.767848	 2.223745	 -2.760693
H	 -1.679456	 2.208519	 -0.989071

	symmetry c1
}
set optking {
	frozen_dihedral = ("
		6 3 2 1,
		3 5 8 12,
		12 8 11 15
	")
}

ee = energy('scf')
oeprop('DIPOLE', 'QUADRUPOLE', 'MULLIKEN_CHARGES')
f=open( 'psi4out.xyz', 'w' )
f.write( "22  " )
f.write( str(ee) + "\n" )
f.write( MOL.save_string_xyz() )
f.close()
--------------------------------------------------------------------------

    Molecular point group: c1

    Geometry (in Angstrom), charge = 0, multiplicity = 1:

       Center              X                  Y                   Z               Mass
    ------------   -----------------  -----------------  -----------------  -----------------
           O         -0.876745657027    -0.000843645906    -2.010567754331    15.994914619560
           C         -1.518273657027     0.246480354094    -1.035013754331    12.000000000000
           C         -1.423946657027    -0.630002645906     0.201588245669    12.000000000000
           C         -2.426706657027     1.453761354094    -0.967203754331    12.000000000000
           C         -0.155263657027    -0.306537645906     1.007166245669    12.000000000000
           H         -1.389278657027    -1.662404645906    -0.128937754331     1.007825032070
           H         -2.303115657027    -0.504375645906     0.827133245669     1.007825032070
           C          1.096621342973    -0.940439645906     0.395965245669    12.000000000000
           H         -0.051943657027     0.771538354094     1.056781245669     1.007825032070
           H         -0.271623657027    -0.658664645906     2.030989245669     1.007825032070
           C          2.381275342973    -0.707282645906     1.199306245669    12.000000000000
           H          1.231960342973    -0.562066645906    -0.615589754331     1.007825032070
           H          0.936545342973    -2.012512645906     0.301712245669     1.007825032070
           C          2.838649342973     0.751377354094     1.255131245669    12.000000000000
           H          3.173997342973    -1.305489645906     0.757229245669     1.007825032070
           H          2.245930342973    -1.084116645906     2.211119245669     1.007825032070
           H          2.971800342973     1.157041354094     0.255915245669     1.007825032070
           H          3.787985342973     0.836630354094     1.774643245669     1.007825032070
           H          2.125912342973     1.382063354094     1.775738245669     1.007825032070
           H         -3.461292657027     1.128783354094    -0.894509754331     1.007825032070
           H         -2.302559657027     2.060776354094    -1.853152754331     1.007825032070
           H         -2.214167657027     2.045550354094    -0.081530754331     1.007825032070

  Charge       = 0
  Multiplicity = 1
  Basis Set: 6-31G*
  Basis Set:

    Orbital Energies (a.u.)
    -----------------------

    Doubly Occupied:

       1A    -20.548743     2A    -11.325567     3A    -11.229351
       4A    -11.229268     5A    -11.228737     6A    -11.214797
       7A    -11.211725     8A    -11.208008     9A     -1.394903
      10A     -1.092526    11A     -1.041940    12A     -0.999155
      13A     -0.933307    14A     -0.856281    15A     -0.782536
      16A     -0.734209    17A     -0.660454    18A     -0.643717
      19A     -0.625320    20A     -0.608684    21A     -0.597804
      22A     -0.583269    23A     -0.560899    24A     -0.545617
      25A     -0.531104    26A     -0.516607    27A     -0.504695
      28A     -0.483669    29A     -0.465680    30A     -0.458907
      31A     -0.450727    32A     -0.396348

  @DF-RHF Final Energy:  -348.09622397999129

   => Energetics <=

    Nuclear Repulsion Energy =            381.6434976007380442
    One-Electron Energy =               -1228.1504095320051420
    Two-Electron Energy =                 498.4106879512748947
    DFT Exchange-Correlation Energy =       0.0000000000000000
    Empirical Dispersion Energy =           0.0000000000000000
    PCM Polarization Energy =               0.0000000000000000
    EFP Energy =                            0.0000000000000000
    Total Energy =                       -348.0962239799921463

  Mulliken Charges: (a.u.)
   Center  Symbol    Alpha    Beta     Spin     Total
       1     O     4.26095  4.26095  0.00000 -0.52190
       2     C     2.73883  2.73883  0.00000  0.52234
       3     C     3.20283  3.20283  0.00000 -0.40565
       4     C     3.28887  3.28887  0.00000 -0.57774
       5     C     3.16369  3.16369  0.00000 -0.32738
       6     H     0.40098  0.40098  0.00000  0.19804
       7     H     0.41421  0.41421  0.00000  0.17157
       8     C     3.15660  3.15660  0.00000 -0.31320
       9     H     0.41835  0.41835  0.00000  0.16330
      10     H     0.41568  0.41568  0.00000  0.16864
      11     C     3.15364  3.15364  0.00000 -0.30728
      12     H     0.40374  0.40374  0.00000  0.19252
      13     H     0.42153  0.42153  0.00000  0.15694
      14     C     3.24172  3.24172  0.00000 -0.48344
      15     H     0.41911  0.41911  0.00000  0.16178
      16     H     0.42532  0.42532  0.00000  0.14935
      17     H     0.41938  0.41938  0.00000  0.16123
      18     H     0.41903  0.41903  0.00000  0.16193
      19     H     0.42266  0.42266  0.00000  0.15469
      20     H     0.40653  0.40653  0.00000  0.18695
      21     H     0.39705  0.39705  0.00000  0.20590
      22     H     0.40930  0.40930  0.00000  0.18140

   Total alpha = 32.00000, Total beta = 32.00000, Total charge = -0.00000
