                              Psi4 1.0.54 Driver

  ==> Input File <==

--------------------------------------------------------------------------
set {
	reference rhf
	basis cc-pvtz
}

set_num_threads( 4 )
memory 2 gb

molecule MOL {
0 1

H	 3.083659	 -1.378387	 0.000000
O	 2.179005	 -1.633391	 0.000000
C	 1.366950	 -0.558201	 0.000000
C	 0.920623	 0.032752	 1.172283
C	 0.979686	 -0.045450	 -1.221120
H	 1.223283	 -0.367981	 2.122672
C	 0.089368	 1.133364	 1.121050
H	 1.322695	 -0.499606	 -2.128275
C	 0.146412	 1.057835	 -1.263338
H	 -0.249652	 1.582237	 2.034506
C	 -0.302661	 1.652423	 -0.096452
C	 -0.278069	 1.619862	 -2.572276
H	 -0.948981	 2.508174	 -0.139442
O	 0.045303	 1.191707	 -3.626570
H	 -0.936325	 2.491418	 -2.503804

	symmetry c1
}
set optking {
	frozen_dihedral = ("
		4 3 2 1
	")
}

ee,wfn = optimize('scf', return_wfn=True)
oeprop( wfn, 'DIPOLE', 'QUADRUPOLE', 'MULLIKEN_CHARGES')
f=open( 'psi4out.xyz', 'w' )
f.write( "15  " )
f.write( str(ee) + "\n" )
f.write( MOL.save_string_xyz() )
f.close()
--------------------------------------------------------------------------

    Molecular point group: c1
  Charge       = 0
  Multiplicity = 1
  Basis Set: CC-PVTZ
  Basis Set:
  @DF-RHF Final Energy:  -418.43439291008463
    Total Energy =                       -418.4343929100843980
    Molecular point group: c1
  Basis Set: CC-PVTZ
  Basis Set:
  Basis Set: CC-PVTZ
  Basis Set:
  @DF-RHF Final Energy:  -418.43521012889079
    Total Energy =                       -418.4352101288909580
  Basis Set: CC-PVTZ
  Basis Set:
  Basis Set: CC-PVTZ
  Basis Set:
  @DF-RHF Final Energy:  -418.43439498643983
    Total Energy =                       -418.4343949864396563
  Basis Set: CC-PVTZ
  Basis Set:
  Basis Set: CC-PVTZ
  Basis Set:
  @DF-RHF Final Energy:  -418.43530834218262
    Total Energy =                       -418.4353083421830206
  Basis Set: CC-PVTZ
  Basis Set:
  Basis Set: CC-PVTZ
  Basis Set:
  @DF-RHF Final Energy:  -418.43532386370606
    Total Energy =                       -418.4353238637061168
  Basis Set: CC-PVTZ
  Basis Set:
  Charge       = 0
  Multiplicity = 1
  Basis Set: CC-PVTZ
  Basis Set:

    Orbital Energies (a.u.)
    -----------------------

    Doubly Occupied:

       1A    -20.581586     2A    -20.555220     3A    -11.329004
       4A    -11.302947     5A    -11.251268     6A    -11.250077
       7A    -11.248934     8A    -11.247275     9A    -11.242571
      10A     -1.411317    11A     -1.409297    12A     -1.175320
      13A     -1.052733    14A     -1.030332    15A     -0.900524
      16A     -0.850507    17A     -0.804709    18A     -0.746852
      19A     -0.701873    20A     -0.685123    21A     -0.656910
      22A     -0.639333    23A     -0.623215    24A     -0.610627
      25A     -0.562355    26A     -0.549105    27A     -0.535518
      28A     -0.503442    29A     -0.492245    30A     -0.427476
      31A     -0.357167    32A     -0.347241

  @DF-RHF Final Energy:  -418.43532596620923

   => Energetics <=

    Nuclear Repulsion Energy =            403.5199783423441886
    One-Electron Energy =               -1369.7464108705346462
    Two-Electron Energy =                 547.7911065619813371
    DFT Exchange-Correlation Energy =       0.0000000000000000
    Empirical Dispersion Energy =           0.0000000000000000
    PCM Polarization Energy =               0.0000000000000000
    EFP Energy =                            0.0000000000000000
    Total Energy =                       -418.4353259662091205
    Molecular point group: c1
  Basis Set: CC-PVTZ
  Basis Set:

  -Total Gradient:
     Atom            X                  Y                   Z
    ------   -----------------  -----------------  -----------------
       1       -0.000020554293    -0.000003520078     0.000232824484
       2        0.000171186201    -0.000007919248    -0.000327557313
       3       -0.000357599748    -0.000037332683     0.000306217323
       4        0.000273709656    -0.000087186386    -0.000086381806
       5       -0.000049407661     0.000074357982    -0.000102193345
       6       -0.000006002027    -0.000008261366    -0.000004225863
       7       -0.000099026660     0.000241624513    -0.000136835344
       8       -0.000012913440     0.000004175099     0.000009639256
       9        0.000124345005    -0.000100058520    -0.000201939094
      10        0.000009491297    -0.000018337378     0.000000742374
      11       -0.000035451078    -0.000058104200     0.000291617036
      12       -0.000043007591     0.000068311363    -0.000091701207
      13       -0.000000750369    -0.000001629922    -0.000033287942
      14       -0.000050033323     0.000060282299     0.000164630778
      15        0.000096014029    -0.000126401473    -0.000021549337

  **** Optimization is complete! (in 6 steps) ****
    Final optimized geometry and variables:
    Molecular point group: c1

    Geometry (in Angstrom), charge = 0, multiplicity = 1:

    H            2.473963935878    -1.875430014408     0.830813584223
    O            1.564580336731    -2.116678167137     0.799916986102
    C            0.770438379261    -1.007196624744     0.747004188961
    C            0.324037847812    -0.425791561376     1.924070466015
    C            0.375536716884    -0.499029914661    -0.468351132007
    H            0.631777726412    -0.847916021021     2.861127629083
    C           -0.512007312032     0.669982065256     1.881706606742
    H            0.707857174218    -0.954465770654    -1.379449362031
    C           -0.465892965792     0.604156867228    -0.509387502341
    H           -0.855333021011     1.115244844531     2.795156063616
    C           -0.908806679737     1.188320845590     0.662226673803
    C           -0.898266609900     1.166163664129    -1.813323333565
    H           -1.561757205094     2.039971784361     0.624340148343
    O           -0.567143120292     0.749001476808    -2.869958618164
    H           -1.569550187776     2.027427607069    -1.740434545059

  Mulliken Charges: (a.u.)
   Center  Symbol    Alpha    Beta     Spin     Total
       1     H     0.38747  0.38747  0.00000  0.22507
       2     O     4.18855  4.18855  0.00000 -0.37711
       3     C     2.86181  2.86181  0.00000  0.27638
       4     C     3.10332  3.10332  0.00000 -0.20665
       5     C     3.12047  3.12047  0.00000 -0.24093
       6     H     0.41370  0.41370  0.00000  0.17261
       7     C     3.06744  3.06744  0.00000 -0.13488
       8     H     0.40245  0.40245  0.00000  0.19510
       9     C     2.98093  2.98093  0.00000  0.03814
      10     H     0.41860  0.41860  0.00000  0.16279
      11     C     3.09707  3.09707  0.00000 -0.19414
      12     C     2.90884  2.90884  0.00000  0.18231
      13     H     0.42230  0.42230  0.00000  0.15541
      14     O     4.17066  4.17066  0.00000 -0.34132
      15     H     0.45639  0.45639  0.00000  0.08722

   Total alpha = 32.00000, Total beta = 32.00000, Total charge = -0.00000

*** Psi4 exiting successfully. Buy a developer a beer!
