  ==> Input File <==

--------------------------------------------------------------------------
set {
	reference rhf
	basis cc-pvtz
}

set_num_threads( 4 )
memory 2 gb

molecule MOL {
0 1

H	 -3.941973	 0.934228	 -0.390224
C	 -3.240162	 0.342701	 0.161016
C	 -2.105997	 -0.000418	 -0.398703
H	 -3.485368	 0.047206	 1.162193
O	 -1.189946	 -0.765863	 0.237511
H	 -1.846458	 0.297311	 -1.398265
C	 0.026572	 -0.995256	 -0.379403
C	 1.057223	 0.049888	 -0.004615
H	 -0.054361	 -1.010670	 -1.459674
H	 0.397526	 -1.952058	 -0.044198
F	 0.783915	 1.178846	 -0.627379
F	 1.058506	 0.296906	 1.287858
F	 2.271253	 -0.311985	 -0.341718

	symmetry c1
}
set optking {
	frozen_dihedral = ("
		11 8 7 9
	")
}

ee = optimize('scf')
oeprop('DIPOLE', 'QUADRUPOLE', 'MULLIKEN_CHARGES')
f=open( 'psi4out.xyz', 'w' )
f.write( "13  " )
f.write( str(ee) + "\n" )
f.write( MOL.save_string_xyz() )
f.close()
--------------------------------------------------------------------------

    Molecular point group: c1
  Charge       = 0
  Multiplicity = 1
  Basis Set: CC-PVTZ
  Basis Set:
  @DF-RHF Final Energy:  -527.74077947543856
    Total Energy =                       -527.7407794754390125
    Molecular point group: c1
  Basis Set: CC-PVTZ
  Basis Set:
  Basis Set: CC-PVTZ
  Basis Set:
  @DF-RHF Final Energy:  -527.74135058427396
    Total Energy =                       -527.7413505842741870
  Basis Set: CC-PVTZ
  Basis Set:
  Basis Set: CC-PVTZ
  Basis Set:
  @DF-RHF Final Energy:  -527.74148949114044
    Total Energy =                       -527.7414894911401007
  Basis Set: CC-PVTZ
  Basis Set:
  Basis Set: CC-PVTZ
  Basis Set:
  @DF-RHF Final Energy:  -527.74150303654369
    Total Energy =                       -527.7415030365439179
  Basis Set: CC-PVTZ
  Basis Set:
  Basis Set: CC-PVTZ
  Basis Set:
  @DF-RHF Final Energy:  -527.74150506184890
    Total Energy =                       -527.7415050618487840
  Basis Set: CC-PVTZ
  Basis Set:
  Basis Set: CC-PVTZ
  Basis Set:
  @DF-RHF Final Energy:  -527.74150626835160
    Total Energy =                       -527.7415062683515998
  Basis Set: CC-PVTZ
  Basis Set:
  Charge       = 0
  Multiplicity = 1
  Basis Set: CC-PVTZ
  Basis Set:

    Orbital Energies (a.u.)
    -----------------------

    Doubly Occupied:

       1A    -26.340548     2A    -26.340387     3A    -26.339088
       4A    -20.603621     5A    -11.497930     6A    -11.320234
       7A    -11.298539     8A    -11.214147     9A     -1.750392
      10A     -1.646487    11A     -1.645556    12A     -1.444217
      13A     -1.087617    14A     -1.020628    15A     -0.932241
      16A     -0.843937    17A     -0.838888    18A     -0.827155
      19A     -0.798905    20A     -0.727610    21A     -0.719400
      22A     -0.702912    23A     -0.681987    24A     -0.667818
      25A     -0.661980    26A     -0.650814    27A     -0.641368
      28A     -0.587970    29A     -0.566561    30A     -0.528248
      31A     -0.518345    32A     -0.356932

  @DF-RHF Final Energy:  -527.74150723109119

   => Energetics <=

    Nuclear Repulsion Energy =            413.7365658254199161
    One-Electron Energy =               -1551.3512175182918327
    Two-Electron Energy =                 609.8731444617806119
    DFT Exchange-Correlation Energy =       0.0000000000000000
    Empirical Dispersion Energy =           0.0000000000000000
    PCM Polarization Energy =               0.0000000000000000
    EFP Energy =                            0.0000000000000000
    Total Energy =                       -527.7415072310914184
    Molecular point group: c1
  Basis Set: CC-PVTZ
  Basis Set:

  -Total Gradient:
     Atom            X                  Y                   Z
    ------   -----------------  -----------------  -----------------
       1        0.000009550969     0.000013173646     0.000005172498
       2       -0.000001172319    -0.000006435864     0.000002352229
       3       -0.000054086681    -0.000075218893    -0.000024870485
       4       -0.000005144998     0.000000234335     0.000001297571
       5        0.000083924179     0.000079589274    -0.000002587988
       6        0.000009073538     0.000019390252     0.000007799689
       7        0.002820756039    -0.002424222671    -0.000723706597
       8       -0.002484036336     0.001398758599     0.002447111113
       9       -0.002015870875     0.001824979751     0.000138984585
      10        0.000025461993    -0.000035594138    -0.000026068904
      11        0.001395275787    -0.000741117775    -0.001704528716
      12       -0.000015024240     0.000015253759    -0.000036407641
      13        0.000231292954    -0.000068790274    -0.000084547361

  **** Optimization is complete! (in 7 steps) ****
    Final optimized geometry and variables:
    Molecular point group: c1

    Geometry (in Angstrom), charge = 0, multiplicity = 1:

    H           -3.910498631386     0.943218462428    -0.396451437072
    C           -3.214033503030     0.346054779199     0.155543891930
    C           -2.092377498486    -0.025906043003    -0.411109425529
    H           -3.454910885023     0.067063074343     1.162498748439
    O           -1.186414068467    -0.804631904868     0.223067665570
    H           -1.837237568295     0.255809630366    -1.416684893129
    C            0.044384712194    -1.011375312840    -0.376036273401
    C            1.048275795912     0.060433764256     0.004176784444
    H           -0.034527276580    -1.019076713239    -1.456498558808
    H            0.427362026666    -1.960139145108    -0.034009624340
    F            0.786837659336     1.208084416637    -0.587052235738
    F            1.088922330484     0.271888023313     1.294848416529
    F            2.251973595132    -0.313239528099    -0.385713728255

  Mulliken Charges: (a.u.)
   Center  Symbol    Alpha    Beta     Spin     Total
       1     H     0.42510  0.42510  0.00000  0.14979
       2     C     3.19667  3.19667  0.00000 -0.39334
       3     C     2.96053  2.96053  0.00000  0.07893
       4     H     0.42455  0.42455  0.00000  0.15091
       5     O     4.14403  4.14403  0.00000 -0.28806
       6     H     0.43436  0.43436  0.00000  0.13128
       7     C     3.01900  3.01900  0.00000 -0.03800
       8     C     2.67637  2.67637  0.00000  0.64726
       9     H     0.45518  0.45518  0.00000  0.08964
      10     H     0.43446  0.43446  0.00000  0.13108
      11     F     4.61180  4.61180  0.00000 -0.22360
      12     F     4.60497  4.60497  0.00000 -0.20993
      13     F     4.61298  4.61298  0.00000 -0.22595

   Total alpha = 32.00000, Total beta = 32.00000, Total charge = -0.00000
