  ==> Input File <==

--------------------------------------------------------------------------
set {
	reference rhf
	basis cc-pvtz
}

set_num_threads( 4 )
memory 2 gb

molecule MOL {
0 1

H	 2.141179	 -1.149246	 -2.391218
O	 2.534182	 -0.522216	 -1.810611
C	 1.637132	 -0.028286	 -0.938880
C	 2.086081	 0.910762	 -0.021409
C	 0.315765	 -0.421121	 -0.933414
H	 3.117476	 1.202160	 -0.043055
C	 1.213157	 1.450970	 0.894850
H	 -0.057584	 -1.143310	 -1.629367
C	 -0.532034	 0.141680	 0.000000
H	 1.569058	 2.176041	 1.600083
C	 -0.118716	 1.072257	 0.920041
N	 -1.937041	 -0.281114	 0.000000
H	 -0.807642	 1.482963	 1.625324
O	 -2.159542	 -1.446261	 0.000000
O	 -2.764978	 0.565773	 0.000000

	symmetry c1
}
set optking {
	frozen_dihedral = ("
		11 9 12 14
	")
}

ee = optimize('scf')
oeprop('DIPOLE', 'QUADRUPOLE', 'MULLIKEN_CHARGES')
f=open( 'psi4out.xyz', 'w' )
f.write( "15  " )
f.write( str(ee) + "\n" )
f.write( MOL.save_string_xyz() )
f.close()
--------------------------------------------------------------------------

    Molecular point group: c1
  Charge       = 0
  Multiplicity = 1
  Basis Set: CC-PVTZ
  Basis Set:
  @DF-RHF Final Energy:  -509.21417253326774
    Total Energy =                       -509.2141725332676288
    Molecular point group: c1
  Basis Set: CC-PVTZ
  Basis Set:
  Basis Set: CC-PVTZ
  Basis Set:
  @DF-RHF Final Energy:  -509.20814108532875
    Total Energy =                       -509.2081410853288617
  Basis Set: CC-PVTZ
  Basis Set:
  Basis Set: CC-PVTZ
  Basis Set:
  @DF-RHF Final Energy:  -509.21433535318266
    Total Energy =                       -509.2143353531821504
  Basis Set: CC-PVTZ
  Basis Set:
  Basis Set: CC-PVTZ
  Basis Set:
  @DF-RHF Final Energy:  -509.21465139970394
    Total Energy =                       -509.2146513997040529
  Basis Set: CC-PVTZ
  Basis Set:
  Basis Set: CC-PVTZ
  Basis Set:
  @DF-RHF Final Energy:  -509.21465359484097
    Total Energy =                       -509.2146535948409110
  Basis Set: CC-PVTZ
  Basis Set:
  Basis Set: CC-PVTZ
  Basis Set:
  @DF-RHF Final Energy:  -509.21428631200047
    Total Energy =                       -509.2142863120000129
  Basis Set: CC-PVTZ
  Basis Set:
  Basis Set: CC-PVTZ
  Basis Set:
  @DF-RHF Final Energy:  -509.21465476554681
    Total Energy =                       -509.2146547655466975
  Basis Set: CC-PVTZ
  Basis Set:
  Charge       = 0
  Multiplicity = 1
  Basis Set: CC-PVTZ
  Basis Set:

    Orbital Energies (a.u.)
    -----------------------

    Doubly Occupied:

       1A    -20.609833     2A    -20.598028     3A    -20.597642
       4A    -15.850271     5A    -11.329623     6A    -11.311886
       7A    -11.264521     8A    -11.263837     9A    -11.258772
      10A    -11.253449    11A     -1.645845    12A     -1.442649
      13A     -1.428877    14A     -1.204127    15A     -1.096611
      16A     -1.049497    17A     -0.966960    18A     -0.885085
      19A     -0.832860    20A     -0.793987    21A     -0.764452
      22A     -0.740726    23A     -0.725309    24A     -0.712342
      25A     -0.674544    26A     -0.636244    27A     -0.623053
      28A     -0.597508    29A     -0.564248    30A     -0.549057
      31A     -0.531280    32A     -0.494901    33A     -0.490875
      34A     -0.459560    35A     -0.377859    36A     -0.346636

  @DF-RHF Final Energy:  -509.21465483079055

   => Energetics <=

    Nuclear Repulsion Energy =            504.4168217841651085
    One-Electron Energy =               -1695.3170391829971777
    Two-Electron Energy =                 681.6855625680416324
    DFT Exchange-Correlation Energy =       0.0000000000000000
    Empirical Dispersion Energy =           0.0000000000000000
    PCM Polarization Energy =               0.0000000000000000
    EFP Energy =                            0.0000000000000000
    Total Energy =                       -509.2146548307903231
    Molecular point group: c1
  Basis Set: CC-PVTZ
  Basis Set:

  -Total Gradient:
     Atom            X                  Y                   Z
    ------   -----------------  -----------------  -----------------
       1       -0.000001091041     0.000002970226    -0.000002724368
       2        0.000005109740    -0.000020752946     0.000016279117
       3       -0.000005316533     0.000052350756    -0.000036051029
       4        0.000000839535    -0.000009010140    -0.000006890605
       5        0.000017474263    -0.000054544350     0.000046775284
       6       -0.000001283986     0.000006195792    -0.000002885692
       7        0.000006639805    -0.000040978302     0.000042306783
       8        0.000003368209     0.000003919720     0.000004367855
       9       -0.001615884953     0.004872557058    -0.002236730294
      10       -0.000000878657     0.000006269771    -0.000005403058
      11        0.001135112101    -0.003325951180     0.002789648987
      12        0.000325205248    -0.001349854632    -0.005718539331
      13        0.000004745584    -0.000005394798     0.000002220486
      14        0.000116312862    -0.000116070781     0.005112865453
      15        0.000009647820    -0.000021706192    -0.000005239589

  **** Optimization is complete! (in 8 steps) ****
    Final optimized geometry and variables:
    Molecular point group: c1

    Geometry (in Angstrom), charge = 0, multiplicity = 1:

    H            2.172352513156    -1.255052841148    -2.168062343544
    O            2.561313254758    -0.622690479110    -1.590602718607
    C            1.662804863019    -0.126616132580    -0.723467880578
    C            2.111892461879     0.805258486637     0.201791552641
    C            0.339836045085    -0.518592867342    -0.720714450383
    H            3.146024367542     1.086692337384     0.190566801867
    C            1.237356405010     1.345658741616     1.115994174086
    H           -0.027563409684    -1.262233181809    -1.399791813214
    C           -0.510291801253     0.069766604886     0.190537810798
    H            1.596823803832     2.055955560260     1.834476266638
    C           -0.101216736734     0.987260603156     1.121785038812
    N           -1.902976748732    -0.379615384175     0.217264962284
    H           -0.796832158248     1.409682765397     1.816117028070
    O           -2.094490506400    -1.549562993844     0.197594597813
    O           -2.741015348278     0.453706515875     0.295850850812

  Mulliken Charges: (a.u.)
   Center  Symbol    Alpha    Beta     Spin     Total
       1     H     0.38446  0.38446  0.00000  0.23107
       2     O     4.16749  4.16749  0.00000 -0.33499
       3     C     2.84380  2.84380  0.00000  0.31240
       4     C     3.10209  3.10209  0.00000 -0.20419
       5     C     3.14047  3.14047  0.00000 -0.28095
       6     H     0.41375  0.41375  0.00000  0.17249
       7     C     3.05301  3.05301  0.00000 -0.10603
       8     H     0.41766  0.41766  0.00000  0.16468
       9     C     2.93409  2.93409  0.00000  0.13182
      10     H     0.41621  0.41621  0.00000  0.16758
      11     C     3.10711  3.10711  0.00000 -0.21422
      12     N     3.27612  3.27612  0.00000  0.44776
      13     H     0.40758  0.40758  0.00000  0.18484
      14     O     4.16855  4.16855  0.00000 -0.33710
      15     O     4.16758  4.16758  0.00000 -0.33517

   Total alpha = 36.00000, Total beta = 36.00000, Total charge = -0.00000
