  ==> Input File <==

--------------------------------------------------------------------------
set {
	reference rhf
	basis 6-31G*
}

set_num_threads( 4 )
memory 2 gb

molecule MOL {
0 1

H	 -2.427202	 -0.161266	 0.916425
O	 -2.315789	 -0.143634	 -0.024262
C	 -0.945151	 -0.064130	 -0.333158
H	 -0.813375	 -0.223047	 -1.403232
C	 -0.232801	 -1.184051	 0.407206
C	 -0.355424	 1.302939	 0.054523
H	 -0.318824	 -0.992899	 1.473524
H	 -0.742411	 -2.122033	 0.217954
C	 1.248522	 -1.270719	 -0.013048
H	 -0.546144	 2.018388	 -0.742941
H	 -0.890929	 1.656788	 0.930149
C	 1.156425	 1.235120	 0.355905
H	 1.825384	 -1.683246	 0.809111
H	 1.357782	 -1.965923	 -0.840362
C	 1.828244	 0.099899	 -0.419275
H	 1.626109	 2.185622	 0.123525
H	 1.309438	 1.071213	 1.419539
H	 2.901447	 0.112642	 -0.255830
H	 1.681817	 0.263413	 -1.484607

	symmetry c1
}
set optking {
	frozen_dihedral = ("
		1 2 3 4
	")
}

ee = optimize('scf')
oeprop('DIPOLE', 'QUADRUPOLE', 'MULLIKEN_CHARGES')
f=open( 'psi4out.xyz', 'w' )
f.write( "19  " )
f.write( str(ee) + "\n" )
f.write( MOL.save_string_xyz() )
f.close()
--------------------------------------------------------------------------

    Molecular point group: c1
  Charge       = 0
  Multiplicity = 1
  Basis Set: 6-31G*
  Basis Set:
  @DF-RHF Final Energy:  -309.04626059288984
    Total Energy =                       -309.0462605928901212
    Molecular point group: c1
  Basis Set: 6-31G*
  Basis Set:
  Basis Set: 6-31G*
  Basis Set:
  @DF-RHF Final Energy:  -309.04795252096875
    Total Energy =                       -309.0479525209686926
  Basis Set: 6-31G*
  Basis Set:
  Basis Set: 6-31G*
  Basis Set:
  @DF-RHF Final Energy:  -309.04830961168255
    Total Energy =                       -309.0483096116826118
  Basis Set: 6-31G*
  Basis Set:
  Basis Set: 6-31G*
  Basis Set:
  @DF-RHF Final Energy:  -309.04831545240881
    Total Energy =                       -309.0483154524089855
  Basis Set: 6-31G*
  Basis Set:
  Charge       = 0
  Multiplicity = 1
  Basis Set: 6-31G*
  Basis Set:

    Orbital Energies (a.u.)
    -----------------------

    Doubly Occupied:

       1A    -20.550038     2A    -11.268950     3A    -11.219587
       4A    -11.218166     5A    -11.217523     6A    -11.215607
       7A    -11.213239     8A     -1.359405     9A     -1.110265
      10A     -1.004546    11A     -0.988616    12A     -0.848706
      13A     -0.838726    14A     -0.752364    15A     -0.672390
      16A     -0.664536    17A     -0.618819    18A     -0.594972
      19A     -0.580734    20A     -0.561204    21A     -0.531815
      22A     -0.521459    23A     -0.502161    24A     -0.492874
      25A     -0.464214    26A     -0.450170    27A     -0.432306
      28A     -0.407425

  @DF-RHF Final Energy:  -309.04831614078324

   => Energetics <=

    Nuclear Repulsion Energy =            331.1954859092111860
    One-Electron Energy =               -1075.8859686655146106
    Two-Electron Energy =                 435.6421666155201251
    DFT Exchange-Correlation Energy =       0.0000000000000000
    Empirical Dispersion Energy =           0.0000000000000000
    PCM Polarization Energy =               0.0000000000000000
    EFP Energy =                            0.0000000000000000
    Total Energy =                       -309.0483161407833563
    Molecular point group: c1
  Basis Set: 6-31G*
  Basis Set:

  -Total Gradient:
     Atom            X                  Y                   Z
    ------   -----------------  -----------------  -----------------
       1        0.000041167419    -0.000955391432    -0.000030753380
       2       -0.000039472603     0.000997348210     0.000062766012
       3       -0.000054049927     0.000727191619    -0.000110564058
       4        0.000063967109    -0.000801458403     0.000122869736
       5       -0.000028145902     0.000011691939    -0.000025701000
       6        0.000044054228    -0.000017082832     0.000013144750
       7        0.000004949045    -0.000006935967    -0.000021781685
       8        0.000005194755    -0.000009696536     0.000007558086
       9       -0.000012501735    -0.000007920953     0.000054877019
      10        0.000019339382     0.000023838499    -0.000016051546
      11        0.000002969120    -0.000005048615    -0.000015778549
      12       -0.000022990302     0.000031507316    -0.000019001606
      13        0.000017778318    -0.000026416237    -0.000003685862
      14       -0.000016766257     0.000005943497    -0.000002384739
      15       -0.000011051718     0.000023282420    -0.000028018259
      16       -0.000003168141     0.000011315526     0.000015780004
      17       -0.000005988351     0.000000462515     0.000002335067
      18       -0.000012415250    -0.000008941791     0.000001887007
      19        0.000007130814     0.000006311225    -0.000007496995

  **** Optimization is complete! (in 5 steps) ****
    Final optimized geometry and variables:
    Molecular point group: c1

    Geometry (in Angstrom), charge = 0, multiplicity = 1:

    H           -2.512966335682    -0.121109267113     0.828192622417
    O           -2.339999393256    -0.099975318626    -0.103582978558
    C           -0.950255886609    -0.065503317875    -0.316170048471
    H           -0.838549204377    -0.225656684103    -1.382183903865
    C           -0.221850902327    -1.191033389270     0.411679740400
    C           -0.357518040011     1.301166466841     0.064980393196
    H           -0.289782559060    -1.012566108210     1.484915603108
    H           -0.727006018027    -2.131752989416     0.220105225145
    C            1.258230168959    -1.268613161263    -0.017984794466
    H           -0.571317108778     2.011193266559    -0.727873379087
    H           -0.878835925337     1.664792319099     0.947390151052
    C            1.158045298791     1.236971596174     0.346611263418
    H            1.846208807309    -1.670410525747     0.801601154982
    H            1.364477098187    -1.968561434037    -0.841313024357
    C            1.821316634766     0.104079946137    -0.439111397189
    H            1.622321733394     2.188656407434     0.108364044594
    H            1.329648556516     1.072606935121     1.407879532588
    H            2.897416406987     0.121759764357    -0.297030056046
    H            1.652570608112     0.263818876774    -1.501513768848

  Mulliken Charges: (a.u.)
   Center  Symbol    Alpha    Beta     Spin     Total
       1     H     0.28520  0.28520  0.00000  0.42960
       2     O     4.37778  4.37778  0.00000 -0.75556
       3     C     2.90676  2.90676  0.00000  0.18649
       4     H     0.41621  0.41621  0.00000  0.16757
       5     C     3.17872  3.17872  0.00000 -0.35745
       6     C     3.16372  3.16372  0.00000 -0.32744
       7     H     0.42797  0.42797  0.00000  0.14406
       8     H     0.40932  0.40932  0.00000  0.18136
       9     C     3.15903  3.15903  0.00000 -0.31806
      10     H     0.41383  0.41383  0.00000  0.17234
      11     H     0.42432  0.42432  0.00000  0.15136
      12     C     3.16458  3.16458  0.00000 -0.32917
      13     H     0.41800  0.41800  0.00000  0.16401
      14     H     0.41673  0.41673  0.00000  0.16653
      15     C     3.16464  3.16464  0.00000 -0.32927
      16     H     0.41566  0.41566  0.00000  0.16868
      17     H     0.42131  0.42131  0.00000  0.15738
      18     H     0.41616  0.41616  0.00000  0.16769
      19     H     0.42007  0.42007  0.00000  0.15987

   Total alpha = 28.00000, Total beta = 28.00000, Total charge = -0.00000
