  ==> Input File <==

--------------------------------------------------------------------------
set {
	reference rhf
	basis cc-pvtz
}

set_num_threads( 4 )
memory 2 gb

molecule MOL {
0 1

H	 -1.025129	 -2.176978	 1.097762
N	 -0.258069	 -1.546728	 0.997881
C	 -0.561396	 -0.500007	 0.035200
H	 0.529362	 -2.085330	 0.702592
C	 0.575129	 0.507849	 -0.048832
H	 -1.462305	 0.005490	 0.366943
H	 -0.769950	 -0.887691	 -0.963109
C	 1.951750	 -0.141983	 0.035101
H	 0.478254	 1.061643	 -0.975981
H	 0.467676	 1.231891	 0.755499
H	 2.101550	 -0.848142	 -0.774949
H	 2.738260	 0.600794	 -0.026526
H	 2.078939	 -0.679792	 0.968824

	symmetry c1
}
set optking {
	frozen_dihedral = ("
		6 3 5 9
	")
}

ee = optimize('scf')
oeprop('DIPOLE', 'QUADRUPOLE', 'MULLIKEN_CHARGES')
f=open( 'psi4out.xyz', 'w' )
f.write( "13  " )
f.write( str(ee) + "\n" )
f.write( MOL.save_string_xyz() )
f.close()
--------------------------------------------------------------------------

    Molecular point group: c1
  Charge       = 0
  Multiplicity = 1
  Basis Set: CC-PVTZ
  Basis Set:
  @DF-RHF Final Energy:  -173.34747791856236
    Total Energy =                       -173.3474779185622765
    Molecular point group: c1
  Basis Set: CC-PVTZ
  Basis Set:
  Basis Set: CC-PVTZ
  Basis Set:
  @DF-RHF Final Energy:  -173.34820729848053
    Total Energy =                       -173.3482072984804461
  Basis Set: CC-PVTZ
  Basis Set:
  Basis Set: CC-PVTZ
  Basis Set:
  @DF-RHF Final Energy:  -173.34907091005212
    Total Energy =                       -173.3490709100521201
  Basis Set: CC-PVTZ
  Basis Set:
  Basis Set: CC-PVTZ
  Basis Set:
  @DF-RHF Final Energy:  -173.34912926529597
    Total Energy =                       -173.3491292652961135
  Basis Set: CC-PVTZ
  Basis Set:
  Basis Set: CC-PVTZ
  Basis Set:
  @DF-RHF Final Energy:  -173.34913491799415
    Total Energy =                       -173.3491349179942063
  Basis Set: CC-PVTZ
  Basis Set:
  Charge       = 0
  Multiplicity = 1
  Basis Set: CC-PVTZ
  Basis Set:

    Orbital Energies (a.u.)
    -----------------------

    Doubly Occupied:

       1A    -15.526283     2A    -11.239135     3A    -11.210493
       4A    -11.204149     5A     -1.177992     6A     -1.030228
       7A     -0.908641     8A     -0.786187     9A     -0.670435
      10A     -0.643015    11A     -0.576911    12A     -0.562433
      13A     -0.550586    14A     -0.484842    15A     -0.477670
      16A     -0.467815    17A     -0.383146

  @DF-RHF Final Energy:  -173.34913561716345

   => Energetics <=

    Nuclear Repulsion Energy =            134.2726379482775485
    One-Electron Energy =                -499.4436262040266570
    Two-Electron Energy =                 191.8218526385856535
    DFT Exchange-Correlation Energy =       0.0000000000000000
    Empirical Dispersion Energy =           0.0000000000000000
    PCM Polarization Energy =               0.0000000000000000
    EFP Energy =                            0.0000000000000000
    Total Energy =                       -173.3491356171634266
    Molecular point group: c1
  Basis Set: CC-PVTZ
  Basis Set:

  -Total Gradient:
     Atom            X                  Y                   Z
    ------   -----------------  -----------------  -----------------
       1        0.000011598718     0.000017451436    -0.000010797952
       2        0.000035945850     0.000009336245    -0.000004297906
       3       -0.000804153218     0.000574161013    -0.007222252425
       4        0.000001692604    -0.000004502754     0.000015152625
       5       -0.003794043924     0.004329803048     0.004411572724
       6        0.001241437154    -0.001148064106     0.005413519927
       7       -0.000013801941     0.000012323677    -0.000013783697
       8       -0.000015601144    -0.000010430537    -0.000016903459
       9        0.003327863882    -0.003785996487    -0.002577947439
      10       -0.000008717952     0.000023053801     0.000006828422
      11        0.000020014594    -0.000007640458    -0.000003004956
      12       -0.000001920939    -0.000003597738     0.000002813984
      13       -0.000000313684    -0.000005897140    -0.000000899850

  **** Optimization is complete! (in 6 steps) ****
    Final optimized geometry and variables:
    Molecular point group: c1

    Geometry (in Angstrom), charge = 0, multiplicity = 1:

    H           -1.557492658598    -1.658018625772     0.880062211906
    N           -0.736258568491    -1.107347322721     0.748085563378
    C           -0.971989298383    -0.064708387581    -0.243123267905
    H           -0.010981717685    -1.729302291255     0.461352181188
    C            0.159398729736     0.965462653023    -0.277182871391
    H           -1.881024708680     0.435229489173     0.069645157485
    H           -1.133006077412    -0.464045384556    -1.243895760622
    C            1.561763463177     0.358320930726    -0.249690790790
    H            0.072035671034     1.526344186899    -1.202958015591
    H            0.051150639928     1.656131411303     0.550761883912
    H            1.702345136204    -0.347858182270    -1.063538484384
    H            2.312095366101     1.132551431411    -0.359641742592
    H            1.754439478154    -0.156753125002     0.682271253947

  Mulliken Charges: (a.u.)
   Center  Symbol    Alpha    Beta     Spin     Total
       1     H     0.42904  0.42904  0.00000  0.14192
       2     N     3.69335  3.69335  0.00000 -0.38671
       3     C     3.03317  3.03317  0.00000 -0.06633
       4     H     0.42754  0.42754  0.00000  0.14491
       5     C     3.07195  3.07195  0.00000 -0.14389
       6     H     0.45457  0.45457  0.00000  0.09086
       7     H     0.46456  0.46456  0.00000  0.07088
       8     C     3.16223  3.16223  0.00000 -0.32446
       9     H     0.45718  0.45718  0.00000  0.08563
      10     H     0.45412  0.45412  0.00000  0.09176
      11     H     0.45690  0.45690  0.00000  0.08621
      12     H     0.44701  0.44701  0.00000  0.10597
      13     H     0.44837  0.44837  0.00000  0.10325

   Total alpha = 17.00000, Total beta = 17.00000, Total charge = -0.00000
