  ==> Input File <==

--------------------------------------------------------------------------
set {
	reference rhf
	basis cc-pvtz
}

set_num_threads( 4 )
memory 2 gb

molecule MOL {
0 1

H	 -0.904913	 -1.270827	 -0.060168
N	 -1.173824	 -0.310545	 -0.096857
C	 -0.022588	 0.563366	 0.065815
H	 -1.612417	 -0.160562	 -0.981590
C	 1.270420	 -0.230572	 -0.014245
H	 -0.045354	 1.293678	 -0.735129
H	 -0.043155	 1.123061	 1.001180
H	 1.336273	 -0.754933	 -0.959364
H	 2.130728	 0.422015	 0.082222
H	 1.323344	 -0.967006	 0.781773

	symmetry c1
}
set optking {
	frozen_dihedral = ("
		1 2 3 6
	")
}

ee = optimize('scf')
oeprop('DIPOLE', 'QUADRUPOLE', 'MULLIKEN_CHARGES')
f=open( 'psi4out.xyz', 'w' )
f.write( "10  " )
f.write( str(ee) + "\n" )
f.write( MOL.save_string_xyz() )
f.close()
--------------------------------------------------------------------------

    Molecular point group: c1
  Charge       = 0
  Multiplicity = 1
  Basis Set: CC-PVTZ
  Basis Set:
  @DF-RHF Final Energy:  -134.29996550981807
    Total Energy =                       -134.2999655098180369
    Molecular point group: c1
  Basis Set: CC-PVTZ
  Basis Set:
  Basis Set: CC-PVTZ
  Basis Set:
  @DF-RHF Final Energy:  -134.30090958434090
    Total Energy =                       -134.3009095843409568
  Basis Set: CC-PVTZ
  Basis Set:
  Basis Set: CC-PVTZ
  Basis Set:
  @DF-RHF Final Energy:  -134.30105401608103
    Total Energy =                       -134.3010540160809967
  Basis Set: CC-PVTZ
  Basis Set:
  Basis Set: CC-PVTZ
  Basis Set:
  @DF-RHF Final Energy:  -134.30105518210766
    Total Energy =                       -134.3010551821077172
  Basis Set: CC-PVTZ
  Basis Set:
  Charge       = 0
  Multiplicity = 1
  Basis Set: CC-PVTZ
  Basis Set:

    Orbital Energies (a.u.)
    -----------------------

    Doubly Occupied:

       1A    -15.524533     2A    -11.241155     3A    -11.210826
       4A     -1.175518     5A     -0.990212     6A     -0.831441
       7A     -0.667238     8A     -0.608183     9A     -0.594799
      10A     -0.536878    11A     -0.506785    12A     -0.488616
      13A     -0.380596

  @DF-RHF Final Energy:  -134.30105533202754

   => Energetics <=

    Nuclear Repulsion Energy =             83.3574471353924622
    One-Electron Energy =                -345.8034455646492802
    Two-Electron Energy =                 128.1449430972292305
    DFT Exchange-Correlation Energy =       0.0000000000000000
    Empirical Dispersion Energy =           0.0000000000000000
    PCM Polarization Energy =               0.0000000000000000
    EFP Energy =                            0.0000000000000000
    Total Energy =                       -134.3010553320275733
    Molecular point group: c1
  Basis Set: CC-PVTZ
  Basis Set:

  -Total Gradient:
     Atom            X                  Y                   Z
    ------   -----------------  -----------------  -----------------
       1        0.000152393310    -0.000005778321    -0.001386868814
       2       -0.000010246713    -0.000182062238     0.001554979391
       3       -0.000789983214     0.000974523464     0.000560797575
       4        0.000003802853     0.000007117251     0.000004412078
       5        0.000000598510    -0.000009385699     0.000004560338
       6        0.000646566319    -0.000791354276    -0.000749606903
       7        0.000005764233    -0.000005963630     0.000004862100
       8       -0.000007931903     0.000006618682     0.000009914542
       9        0.000001750068     0.000005721788     0.000000201740
      10       -0.000002713463     0.000000562980    -0.000003252046

  **** Optimization is complete! (in 5 steps) ****
    Final optimized geometry and variables:
    Molecular point group: c1

    Geometry (in Angstrom), charge = 0, multiplicity = 1:

    H           -0.975079572990    -1.255058872453    -0.011338939270
    N           -1.214262469094    -0.287781187268    -0.043877490863
    C           -0.032794999557     0.562773511336     0.077304745376
    H           -1.690676924694    -0.133332262373    -0.904688300662
    C            1.277727410237    -0.210206058318     0.022856007512
    H           -0.038046362903     1.301536334648    -0.716685105903
    H           -0.080834436074     1.110428827819     1.012706851088
    H            1.392352754555    -0.716974364623    -0.929629304409
    H            2.125233159241     0.452303354254     0.158174862439
    H            1.315242509412    -0.958330663273     0.808512238201

  Mulliken Charges: (a.u.)
   Center  Symbol    Alpha    Beta     Spin     Total
       1     H     0.42892  0.42892  0.00000  0.14215
       2     N     3.69341  3.69341  0.00000 -0.38681
       3     C     3.01458  3.01458  0.00000 -0.02916
       4     H     0.42757  0.42757  0.00000  0.14485
       5     C     3.14505  3.14505  0.00000 -0.29009
       6     H     0.46206  0.46206  0.00000  0.07588
       7     H     0.46262  0.46262  0.00000  0.07476
       8     H     0.45725  0.45725  0.00000  0.08550
       9     H     0.45348  0.45348  0.00000  0.09304
      10     H     0.45506  0.45506  0.00000  0.08987

   Total alpha = 13.00000, Total beta = 13.00000, Total charge =  0.00000
