  ==> Input File <==

--------------------------------------------------------------------------
set {
	reference rhf
	basis 6-31G*
}

set_num_threads( 1 )
memory 2 gb

molecule MOL {
0 1

H	 2.120964	 -1.060470	 0.500743
C	 1.949462	 -0.185634	 -0.138046
C	 0.692068	 0.589600	 0.160137
O	 2.728154	 0.091765	 -0.991754
C	 -0.558097	 -0.297372	 0.091132
H	 0.629138	 1.416471	 -0.537577
H	 0.786569	 1.002139	 1.163985
C	 -1.850991	 0.512573	 -0.019058
H	 -0.476753	 -0.965681	 -0.762987
H	 -0.604799	 -0.930658	 0.975228
C	 -3.096943	 -0.368295	 -0.099594
H	 -1.800724	 1.150330	 -0.898172
H	 -1.931651	 1.177355	 0.838044
H	 -3.060452	 -1.020287	 -0.967456
H	 -3.996858	 0.233488	 -0.175704
H	 -3.191959	 -0.995686	 0.782074

	symmetry c1
}
set optking {
	frozen_dihedral = ("
		9 5 8 12,
		4 2 3 6
	")
}

ee = energy('scf')
oeprop('DIPOLE', 'QUADRUPOLE', 'MULLIKEN_CHARGES')
f=open( 'psi4out.xyz', 'w' )
f.write( "16  " )
f.write( str(ee) + "\n" )
f.write( MOL.save_string_xyz() )
f.close()
--------------------------------------------------------------------------

    Molecular point group: c1

    Geometry (in Angstrom), charge = 0, multiplicity = 1:

       Center              X                  Y                   Z               Mass
    ------------   -----------------  -----------------  -----------------  -----------------
           H          2.148314477125    -1.112580238147     0.675045940896     1.007825032070
           C          1.976812477125    -0.237744238147     0.036256940896    12.000000000000
           C          0.719418477125     0.537489761853     0.334439940896    12.000000000000
           O          2.755504477125     0.039654761853    -0.817451059104    15.994914619560
           C         -0.530746522875    -0.349482238147     0.265434940896    12.000000000000
           H          0.656488477125     1.364360761853    -0.363274059104     1.007825032070
           H          0.813919477125     0.950028761853     1.338287940896     1.007825032070
           C         -1.823640522875     0.460462761853     0.155244940896    12.000000000000
           H         -0.449402522875    -1.017791238147    -0.588684059104     1.007825032070
           H         -0.577448522875    -0.982768238147     1.149530940896     1.007825032070
           C         -3.069592522875    -0.420405238147     0.074708940896    12.000000000000
           H         -1.773373522875     1.098219761853    -0.723869059104     1.007825032070
           H         -1.904300522875     1.125244761853     1.012346940896     1.007825032070
           H         -3.033101522875    -1.072397238147    -0.793153059104     1.007825032070
           H         -3.969507522875     0.181377761853    -0.001401059104     1.007825032070
           H         -3.164608522875    -1.047796238147     0.956376940896     1.007825032070

  Charge       = 0
  Multiplicity = 1
  Basis Set: 6-31G*
  Basis Set:

    Orbital Energies (a.u.)
    -----------------------

    Doubly Occupied:

       1A    -20.562312     2A    -11.326536     3A    -11.236545
       4A    -11.234877     5A    -11.229243     6A    -11.218181
       7A     -1.402162     8A     -1.096393     9A     -1.018734
      10A     -0.905844    11A     -0.811941    12A     -0.793307
      13A     -0.678526    14A     -0.646432    15A     -0.630295
      16A     -0.602425    17A     -0.585094    18A     -0.546171
      19A     -0.525969    20A     -0.513540    21A     -0.486633
      22A     -0.482748    23A     -0.476076    24A     -0.408879

  @DF-RHF Final Energy:  -270.01872555728914

   => Energetics <=

    Nuclear Repulsion Energy =            229.0777169481168585
    One-Electron Energy =                -819.3551408190675147
    Two-Electron Energy =                 320.2586983136615117
    DFT Exchange-Correlation Energy =       0.0000000000000000
    Empirical Dispersion Energy =           0.0000000000000000
    PCM Polarization Energy =               0.0000000000000000
    EFP Energy =                            0.0000000000000000
    Total Energy =                       -270.0187255572891445

  Mulliken Charges: (a.u.)
   Center  Symbol    Alpha    Beta     Spin     Total
       1     H     0.43215  0.43215  0.00000  0.13571
       2     C     2.83013  2.83013  0.00000  0.33974
       3     C     3.20840  3.20840  0.00000 -0.41679
       4     O     4.23748  4.23748  0.00000 -0.47495
       5     C     3.16435  3.16435  0.00000 -0.32870
       6     H     0.39951  0.39951  0.00000  0.20099
       7     H     0.40887  0.40887  0.00000  0.18227
       8     C     3.15190  3.15190  0.00000 -0.30380
       9     H     0.41423  0.41423  0.00000  0.17154
      10     H     0.41807  0.41807  0.00000  0.16385
      11     C     3.24063  3.24063  0.00000 -0.48125
      12     H     0.41763  0.41763  0.00000  0.16473
      13     H     0.42041  0.42041  0.00000  0.15917
      14     H     0.41926  0.41926  0.00000  0.16148
      15     H     0.41632  0.41632  0.00000  0.16736
      16     H     0.42067  0.42067  0.00000  0.15867

   Total alpha = 24.00000, Total beta = 24.00000, Total charge = -0.00000
