                              Psi4 1.0.54 Driver

  ==> Input File <==

--------------------------------------------------------------------------
set {
	reference rhf
	basis cc-pvtz
}

set_num_threads( 4 )
memory 2 gb

molecule MOL {
0 1

H	 1.023722	 -0.138318	 -4.273939
O	 1.956919	 -0.077273	 -4.188810
C	 2.311099	 1.140191	 -3.587468
C	 1.988780	 1.199177	 -2.101764
H	 3.378547	 1.240712	 -3.730397
H	 1.837037	 1.971497	 -4.105778
C	 0.496389	 1.154208	 -1.781458
H	 2.494342	 0.376074	 -1.605713
H	 2.414558	 2.117153	 -1.703731
C	 0.210227	 1.248729	 -0.283455
H	 0.073151	 0.235147	 -2.172865
H	 -0.006575	 1.973164	 -2.292952
C	 -1.272799	 1.282828	 0.090345
H	 0.689246	 0.415328	 0.224690
H	 0.682005	 2.148440	 0.101791
C	 -2.041121	 -0.006551	 -0.194127
H	 -1.351956	 1.505101	 1.150938
H	 -1.754002	 2.109749	 -0.427149
C	 -3.489218	 0.042606	 0.286507
H	 -1.533007	 -0.839454	 0.287082
H	 -2.032867	 -0.219307	 -1.258866
C	 -4.219984	 1.311773	 -0.139038
H	 -4.022855	 -0.824300	 -0.093339
H	 -3.510372	 -0.038577	 1.370031
H	 -4.244251	 1.405725	 -1.219696
H	 -5.244345	 1.313233	 0.215630
H	 -3.732090	 2.196311	 0.257073

	symmetry c1
}
set optking {
	frozen_dihedral = ("
		20 16 19 22
	")
}

ee,wfn = optimize('scf', return_wfn=True)
oeprop( wfn, 'DIPOLE', 'QUADRUPOLE', 'MULLIKEN_CHARGES')
f=open( 'psi4out.xyz', 'w' )
f.write( "27  " )
f.write( str(ee) + "\n" )
f.write( MOL.save_string_xyz() )
f.close()
--------------------------------------------------------------------------

    Molecular point group: c1
  Charge       = 0
  Multiplicity = 1
  Basis Set: CC-PVTZ
  Basis Set:
  @DF-RHF Final Energy:  -388.42360065680384
    Total Energy =                       -388.4236006568038420
    Molecular point group: c1
  Basis Set: CC-PVTZ
  Basis Set:
  Basis Set: CC-PVTZ
  Basis Set:
  @DF-RHF Final Energy:  -387.97728967194723
    Total Energy =                       -387.9772896719468918
  Basis Set: CC-PVTZ
  Basis Set:
  Basis Set: CC-PVTZ
  Basis Set:
  @DF-RHF Final Energy:  -388.15972439443061
    Total Energy =                       -388.1597243944304410
  Basis Set: CC-PVTZ
  Basis Set:
  Basis Set: CC-PVTZ
  Basis Set:
  @DF-RHF Final Energy:  -388.34656459318359
    Total Energy =                       -388.3465645931838708
  Basis Set: CC-PVTZ
  Basis Set:
  @DF-RHF Final Energy:  -388.42104688349940
    Total Energy =                       -388.4210468834997982
  @DF-RHF Final Energy:  -388.42476349088815
    Total Energy =                       -388.4247634908881537
  @DF-RHF Final Energy:  -388.42499698129495
    Total Energy =                       -388.4249969812950667
  Basis Set: CC-PVTZ
  Basis Set:
  @DF-RHF Final Energy:  -388.42499845641282
    Total Energy =                       -388.4249984564127089
  Basis Set: CC-PVTZ
  Basis Set:
  Basis Set: CC-PVTZ
  Basis Set:
  @DF-RHF Final Energy:  -388.42500249609651
    Total Energy =                       -388.4250024960965675
  Basis Set: CC-PVTZ
  Basis Set:
  Basis Set: CC-PVTZ
  Basis Set:
  @DF-RHF Final Energy:  -388.42500583816911
    Total Energy =                       -388.4250058381691133
  Basis Set: CC-PVTZ
  Basis Set:
  Charge       = 0
  Multiplicity = 1
  Basis Set: CC-PVTZ
  Basis Set:

    Orbital Energies (a.u.)
    -----------------------

    Doubly Occupied:

       1A    -20.545274     2A    -11.264911     3A    -11.216668
       4A    -11.214532     5A    -11.214453     6A    -11.213170
       7A    -11.212858     8A    -11.212244     9A    -11.207037
      10A     -1.363163    11A     -1.096147    12A     -1.061633
      13A     -1.010202    14A     -0.947161    15A     -0.894589
      16A     -0.829548    17A     -0.799632    18A     -0.766312
      19A     -0.696014    20A     -0.652594    21A     -0.633341
      22A     -0.615878    23A     -0.606983    24A     -0.591508
      25A     -0.581183    26A     -0.555271    27A     -0.537897
      28A     -0.525268    29A     -0.514377    30A     -0.497915
      31A     -0.482490    32A     -0.475960    33A     -0.469707
      34A     -0.456427    35A     -0.449434    36A     -0.442530
      37A     -0.425676

  @DF-RHF Final Energy:  -388.42500580862776

   => Energetics <=

    Nuclear Repulsion Energy =            463.7916868233439232
    One-Electron Energy =               -1445.8734178651382081
    Two-Electron Energy =                 593.6567252331658437
    DFT Exchange-Correlation Energy =       0.0000000000000000
    Empirical Dispersion Energy =           0.0000000000000000
    PCM Polarization Energy =               0.0000000000000000
    EFP Energy =                            0.0000000000000000
    Total Energy =                       -388.4250058086283843
    Molecular point group: c1
  Basis Set: CC-PVTZ
  Basis Set:

  -Total Gradient:
     Atom            X                  Y                   Z
    ------   -----------------  -----------------  -----------------
       1       -0.000046430402     0.000014972907    -0.000026655357
       2        0.000045154906    -0.000017330233     0.000034784467
       3        0.000004503820     0.000012711381     0.000005817856
       4       -0.000010294774    -0.000005077227    -0.000012464671
       5        0.000000625442    -0.000010577639    -0.000004206949
       6       -0.000003538421     0.000001238929     0.000002658174
       7        0.000013141236     0.000006247783     0.000001107327
       8        0.000002179144    -0.000000748753     0.000003086341
       9        0.000004944875     0.000002135337    -0.000004163681
      10       -0.000013811297    -0.000016478950     0.000007735623
      11        0.000002160042     0.000000047470    -0.000004040072
      12        0.000001721964     0.000003618319     0.000002479065
      13        0.000015727431     0.000010002569    -0.000005978207
      14        0.000010450482    -0.000002339997     0.000006532466
      15       -0.000000078993     0.000001190041    -0.000006242252
      16       -0.000264699701    -0.002033834132    -0.002758481653
      17       -0.000013130164    -0.000002734157    -0.000009614377
      18        0.000005474665    -0.000013475309     0.000003176461
      19       -0.000008160198    -0.001122909917    -0.003016879648
      20        0.000229964848     0.002066871696     0.003160336641
      21        0.000003501929     0.000006232817     0.000006723347
      22        0.000034095081     0.001109250982     0.002619387631
      23       -0.000008291641    -0.000011024809    -0.000012270709
      24       -0.000010385693     0.000010355733     0.000011290354
      25        0.000009089155    -0.000006405286    -0.000005243695
      26        0.000007639851    -0.000005336027    -0.000000755175
      27       -0.000011553583     0.000003396470     0.000001880696

  **** Optimization is complete! (in 11 steps) ****
    Final optimized geometry and variables:
    Molecular point group: c1

    Geometry (in Angstrom), charge = 0, multiplicity = 1:

    H            2.335568167184    -1.450891637177    -1.996747240618
    O            3.114317917090    -1.615553195191    -1.498645662840
    C            3.455524688650    -0.483905029042    -0.742295537944
    C            2.528364935627    -0.242126671723     0.439390056723
    H            4.460567321403    -0.660500424396    -0.383609221521
    H            3.490428384637     0.399822634907    -1.376477235631
    C            1.092357192647     0.101311343592     0.050104699272
    H            2.534925855263    -1.126186528916     1.069820848073
    H            2.944985589438     0.570108797949     1.030197104342
    C            0.200429144558     0.373425796790     1.260573285441
    H            0.673191578236    -0.713324803621    -0.531035787795
    H            1.094298217469     0.977715622114    -0.595726590636
    C           -1.228286751667     0.805956695308     0.924533222913
    H            0.169821901901    -0.514285553786     1.887571568878
    H            0.662310392164     1.151919524667     1.861510390089
    C           -2.071125110080    -0.271550394022     0.237986164295
    H           -1.721907295807     1.095977477352     1.848707538080
    H           -1.189479630687     1.699205324700     0.308863087655
    C           -3.562298782239     0.062783038988     0.123469897724
    H           -1.974655279793    -1.181439505210     0.824396260120
    H           -1.672779550098    -0.481871857726    -0.749291517734
    C           -3.881209580075     1.435985326984    -0.463017553507
    H           -4.043716181552    -0.703729325095    -0.475473875191
    H           -4.011167785872    -0.001177871606     1.111420956138
    H           -3.419612451720     1.568416985261    -1.436966320726
    H           -4.951126392811     1.556278761235    -0.588770518537
    H           -3.536161578041     2.237422797645     0.177846795818

  Mulliken Charges: (a.u.)
   Center  Symbol    Alpha    Beta     Spin     Total
       1     H     0.39229  0.39229  0.00000  0.21542
       2     O     4.20555  4.20555  0.00000 -0.41110
       3     C     2.97985  2.97985  0.00000  0.04031
       4     C     3.08972  3.08972  0.00000 -0.17944
       5     H     0.44856  0.44856  0.00000  0.10288
       6     H     0.46976  0.46976  0.00000  0.06049
       7     C     3.10258  3.10258  0.00000 -0.20515
       8     H     0.45080  0.45080  0.00000  0.09839
       9     H     0.45517  0.45517  0.00000  0.08966
      10     C     3.09776  3.09776  0.00000 -0.19551
      11     H     0.45548  0.45548  0.00000  0.08905
      12     H     0.45382  0.45382  0.00000  0.09236
      13     C     3.10137  3.10137  0.00000 -0.20273
      14     H     0.45202  0.45202  0.00000  0.09596
      15     H     0.44809  0.44809  0.00000  0.10383
      16     C     3.09719  3.09719  0.00000 -0.19438
      17     H     0.44729  0.44729  0.00000  0.10543
      18     H     0.45085  0.45085  0.00000  0.09830
      19     C     3.08892  3.08892  0.00000 -0.17783
      20     H     0.44968  0.44968  0.00000  0.10063
      21     H     0.45284  0.45284  0.00000  0.09432
      22     C     3.15579  3.15579  0.00000 -0.31158
      23     H     0.44863  0.44863  0.00000  0.10274
      24     H     0.45401  0.45401  0.00000  0.09199
      25     H     0.45495  0.45495  0.00000  0.09011
      26     H     0.44533  0.44533  0.00000  0.10935
      27     H     0.45173  0.45173  0.00000  0.09653

   Total alpha = 37.00000, Total beta = 37.00000, Total charge = -0.00000

*** Psi4 exiting successfully. Buy a developer a beer!
