  ==> Input File <==

--------------------------------------------------------------------------
set {
	reference rhf
	basis 6-31G*
}

set_num_threads( 4 )
memory 2 gb

molecule MOL {
0 1

H	 -2.284541	 -0.030379	 -2.316863
C	 -1.817513	 -0.065991	 -1.350430
C	 -2.572646	 0.012265	 -0.192588
C	 -0.448521	 -0.191235	 -1.249821
H	 -3.641788	 0.110129	 -0.250027
C	 -1.958098	 -0.034885	 1.044681
H	 0.163319	 -0.254340	 -2.125290
C	 0.154804	 -0.237046	 -0.000077
H	 -2.561588	 0.027169	 1.931273
C	 -0.577903	 -0.160547	 1.189173
N	 1.611208	 -0.370857	 -0.000034
C	 -0.012459	 -0.202085	 2.591842
O	 2.274126	 0.622059	 -0.008063
O	 2.068510	 -1.474748	 0.007823
H	 0.679041	 0.610729	 2.765879
H	 -0.824730	 -0.125506	 3.303689
H	 0.525099	 -1.121857	 2.776706

	symmetry c1
}
set optking {
	frozen_dihedral = ("
		4 8 11 13
	")
}

ee = optimize('scf')
oeprop('DIPOLE', 'QUADRUPOLE', 'MULLIKEN_CHARGES')
f=open( 'psi4out.xyz', 'w' )
f.write( "17  " )
f.write( str(ee) + "\n" )
f.write( MOL.save_string_xyz() )
f.close()
--------------------------------------------------------------------------

    Molecular point group: c1
  Charge       = 0
  Multiplicity = 1
  Basis Set: 6-31G*
  Basis Set:
  @DF-RHF Final Energy:  -473.19810177135435
    Total Energy =                       -473.1981017713543451
    Molecular point group: c1
  Basis Set: 6-31G*
  Basis Set:
  Basis Set: 6-31G*
  Basis Set:
  @DF-RHF Final Energy:  -473.20051112444111
    Total Energy =                       -473.2005111244413911
  Basis Set: 6-31G*
  Basis Set:
  Basis Set: 6-31G*
  Basis Set:
  @DF-RHF Final Energy:  -473.19298675234324
    Total Energy =                       -473.1929867523436997
  Basis Set: 6-31G*
  Basis Set:
  Basis Set: 6-31G*
  Basis Set:
  @DF-RHF Final Energy:  -473.20073329594555
    Total Energy =                       -473.2007332959452697
  Basis Set: 6-31G*
  Basis Set:
  Basis Set: 6-31G*
  Basis Set:
  @DF-RHF Final Energy:  -473.20085212312091
    Total Energy =                       -473.2008521231209670
  Basis Set: 6-31G*
  Basis Set:
  Basis Set: 6-31G*
  Basis Set:
  @DF-RHF Final Energy:  -473.20085802691852
    Total Energy =                       -473.2008580269184677
  Basis Set: 6-31G*
  Basis Set:
  Charge       = 0
  Multiplicity = 1
  Basis Set: 6-31G*
  Basis Set:

    Orbital Energies (a.u.)
    -----------------------

    Doubly Occupied:

       1A    -20.606288     2A    -20.606231     3A    -15.853418
       4A    -11.302426     5A    -11.276030     6A    -11.267409
       7A    -11.258034     8A    -11.256328     9A    -11.255367
      10A    -11.240432    11A     -1.637089    12A     -1.420926
      13A     -1.202509    14A     -1.092193    15A     -1.072936
      16A     -0.979396    17A     -0.936188    18A     -0.854065
      19A     -0.819688    20A     -0.772814    21A     -0.734334
      22A     -0.730406    23A     -0.696000    24A     -0.652373
      25A     -0.636376    26A     -0.600251    27A     -0.599313
      28A     -0.571027    29A     -0.542722    30A     -0.529565
      31A     -0.520643    32A     -0.493224    33A     -0.478308
      34A     -0.450927    35A     -0.363759    36A     -0.353300

  @DF-RHF Final Energy:  -473.20085967377241

   => Energetics <=

    Nuclear Repulsion Energy =            509.7815579352664486
    One-Electron Energy =               -1654.6402464577026876
    Two-Electron Energy =                 671.6578288486640531
    DFT Exchange-Correlation Energy =       0.0000000000000000
    Empirical Dispersion Energy =           0.0000000000000000
    PCM Polarization Energy =               0.0000000000000000
    EFP Energy =                            0.0000000000000000
    Total Energy =                       -473.2008596737722428
    Molecular point group: c1
  Basis Set: 6-31G*
  Basis Set:

  -Total Gradient:
     Atom            X                  Y                   Z
    ------   -----------------  -----------------  -----------------
       1       -0.000032994310     0.000007538947     0.000011418799
       2        0.000191442665    -0.000016648508    -0.000075802966
       3       -0.000003571158    -0.000012399888     0.000203044119
       4       -0.000178155279     0.000010267825    -0.000129025534
       5       -0.000006770002     0.000001638352    -0.000036785119
       6       -0.000177760237     0.000039575551    -0.000143224499
       7        0.000001566927    -0.000003192854     0.000022886928
       8       -0.000021824435     0.000038015101     0.000255352876
       9        0.000026004146    -0.000000027969    -0.000001393475
      10        0.000195807982    -0.000073596732    -0.000113069138
      11        0.000072373213    -0.000001210566     0.000021163435
      12        0.000022916891     0.000012513625     0.000002783948
      13       -0.000036019597     0.000028973725    -0.000019236447
      14       -0.000037378173    -0.000030254259    -0.000013849140
      15       -0.000006123673    -0.000006311722     0.000010635291
      16       -0.000004250217    -0.000000367259    -0.000001983906
      17       -0.000005264756     0.000005486633     0.000007084828

  **** Optimization is complete! (in 7 steps) ****
    Final optimized geometry and variables:
    Molecular point group: c1

    Geometry (in Angstrom), charge = 0, multiplicity = 1:

    H           -2.238992735461     0.187804985327    -2.580203290717
    C           -1.778398847563     0.152384471613    -1.610460859686
    C           -2.547185787825     0.231955075768    -0.462041656464
    C           -0.404442763822     0.026192015293    -1.502429376466
    H           -3.614909396150     0.330145980231    -0.537054313204
    C           -1.950348211389     0.186105627186     0.787642206381
    H            0.219426929026    -0.037982736993    -2.374558656993
    C            0.156414007646    -0.016242563216    -0.245108304611
    H           -2.560982363681     0.249149315486     1.670127385030
    C           -0.574036124429     0.059804982177     0.929548965495
    N            1.613712604004    -0.150305457199    -0.158846977909
    C            0.089835098469     0.008766846365     2.285216586902
    O            2.253710549305     0.855299241387    -0.134638916036
    O            2.058643935164    -1.255720470808    -0.119636285628
    H            0.793768146026     0.825209799800     2.404185067647
    H           -0.649427656571     0.081815861565     3.072155893763
    H            0.634425667214    -0.919903449790     2.416536125128

  Mulliken Charges: (a.u.)
   Center  Symbol    Alpha    Beta     Spin     Total
       1     H     0.38989  0.38989  0.00000  0.22021
       2     C     3.10851  3.10851  0.00000 -0.21701
       3     C     3.08878  3.08878  0.00000 -0.17756
       4     C     3.08339  3.08339  0.00000 -0.16678
       5     H     0.39124  0.39124  0.00000  0.21751
       6     C     3.11894  3.11894  0.00000 -0.23789
       7     H     0.37760  0.37760  0.00000  0.24480
       8     C     2.90695  2.90695  0.00000  0.18611
       9     H     0.39272  0.39272  0.00000  0.21456
      10     C     2.96863  2.96863  0.00000  0.06273
      11     N     3.26383  3.26383  0.00000  0.47234
      12     C     3.26176  3.26176  0.00000 -0.52352
      13     O     4.22444  4.22444  0.00000 -0.44888
      14     O     4.22445  4.22445  0.00000 -0.44891
      15     H     0.39611  0.39611  0.00000  0.20778
      16     H     0.40662  0.40662  0.00000  0.18675
      17     H     0.39613  0.39613  0.00000  0.20775

   Total alpha = 36.00000, Total beta = 36.00000, Total charge =  0.00000
