  ==> Input File <==

--------------------------------------------------------------------------
set {
	reference rhf
	basis 6-31G*
}

set_num_threads( 4 )
memory 2 gb

molecule MOL {
0 1

H	 -1.183915	 -0.704293	 -0.822333
N	 -0.626943	 -0.667432	 -0.000092
C	 -1.028179	 -1.468684	 1.133805
C	 0.469286	 0.129090	 0.000148
H	 -2.017021	 -1.185708	 1.478944
H	 -0.319717	 -1.305179	 1.929466
H	 -1.036504	 -2.523704	 0.881029
C	 1.788933	 -0.616240	 -0.000037
O	 0.411098	 1.327768	 -0.000049
H	 1.872803	 -1.245775	 -0.880381
H	 2.595421	 0.101576	 0.003713
H	 1.870096	 -1.252171	 0.875943

	symmetry c1
}
set optking {
	frozen_dihedral = ("
		3 2 4 9
	")
}

ee = optimize('scf')
oeprop('DIPOLE', 'QUADRUPOLE', 'MULLIKEN_CHARGES')
f=open( 'psi4out.xyz', 'w' )
f.write( "12  " )
f.write( str(ee) + "\n" )
f.write( MOL.save_string_xyz() )
f.close()
--------------------------------------------------------------------------

    Molecular point group: c1
  Charge       = 0
  Multiplicity = 1
  Basis Set: 6-31G*
  Basis Set:
  @DF-RHF Final Energy:  -246.96770344800254
    Total Energy =                       -246.9677034480028510
    Molecular point group: c1
  Basis Set: 6-31G*
  Basis Set:
  Basis Set: 6-31G*
  Basis Set:
  @DF-RHF Final Energy:  -246.97422893750453
    Total Energy =                       -246.9742289375046198
  Basis Set: 6-31G*
  Basis Set:
  Basis Set: 6-31G*
  Basis Set:
  @DF-RHF Final Energy:  -246.97993348760991
    Total Energy =                       -246.9799334876101398
  Basis Set: 6-31G*
  Basis Set:
  Basis Set: 6-31G*
  Basis Set:
  @DF-RHF Final Energy:  -246.98440331672759
    Total Energy =                       -246.9844033167276507
  Basis Set: 6-31G*
  Basis Set:
  @DF-RHF Final Energy:  -246.98753471300014
    Total Energy =                       -246.9875347130001160
  @DF-RHF Final Energy:  -246.98863485008454
    Total Energy =                       -246.9886348500843383
  @DF-RHF Final Energy:  -246.98984475663511
    Total Energy =                       -246.9898447566350228
  @DF-RHF Final Energy:  -246.99062951824260
    Total Energy =                       -246.9906295182425993
  @DF-RHF Final Energy:  -246.99102394391059
    Total Energy =                       -246.9910239439104203
  @DF-RHF Final Energy:  -246.99108940975827
    Total Energy =                       -246.9910894097580467
  @DF-RHF Final Energy:  -246.99110328360848
    Total Energy =                       -246.9911032836084814
  @DF-RHF Final Energy:  -246.99111478885177
    Total Energy =                       -246.9911147888517462
  @DF-RHF Final Energy:  -246.99112252204770
    Total Energy =                       -246.9911225220475899
  @DF-RHF Final Energy:  -246.99112316603646
    Total Energy =                       -246.9911231660364592
  @DF-RHF Final Energy:  -246.99112032716150
    Total Energy =                       -246.9911203271615818
  @DF-RHF Final Energy:  -246.99112449668630
    Total Energy =                       -246.9911244966862682
  @DF-RHF Final Energy:  -246.99110783596507
    Total Energy =                       -246.9911078359650674
  @DF-RHF Final Energy:  -246.99112457015221
    Total Energy =                       -246.9911245701523512
  @DF-RHF Final Energy:  -246.99110367712908
    Total Energy =                       -246.9911036771288764
  @DF-RHF Final Energy:  -246.99112398966858
    Total Energy =                       -246.9911239896686652
  @DF-RHF Final Energy:  -246.99112368798740
    Total Energy =                       -246.9911236879872263
  @DF-RHF Final Energy:  -246.99112350562987
    Total Energy =                       -246.9911235056299574
  @DF-RHF Final Energy:  -246.99112346177961
    Total Energy =                       -246.9911234617797504
  @DF-RHF Final Energy:  -246.99112340453166
    Total Energy =                       -246.9911234045318338
  @DF-RHF Final Energy:  -246.99112326911893
    Total Energy =                       -246.9911232691191003
  @DF-RHF Final Energy:  -246.99112277432582
    Total Energy =                       -246.9911227743258451
  @DF-RHF Final Energy:  -246.99112249562833
    Total Energy =                       -246.9911224956284173
  @DF-RHF Final Energy:  -246.99112051369653
    Total Energy =                       -246.9911205136965009
  @DF-RHF Final Energy:  -246.99112261809961
    Total Energy =                       -246.9911226180994390
  @DF-RHF Final Energy:  -246.99112177262006
    Total Energy =                       -246.9911217726201471
  @DF-RHF Final Energy:  -246.99112271570172
    Total Energy =                       -246.9911227157018629
  @DF-RHF Final Energy:  -246.99112288583419
    Total Energy =                       -246.9911228858342156
  @DF-RHF Final Energy:  -246.99112244580544
    Total Energy =                       -246.9911224458054448
  @DF-RHF Final Energy:  -246.99112140111936
    Total Energy =                       -246.9911214011192442
  @DF-RHF Final Energy:  -246.99084232977771
    Total Energy =                       -246.9908423297778199
  @DF-RHF Final Energy:  -246.99017487227601
    Total Energy =                       -246.9901748722759294
  Basis Set: 6-31G*
  Basis Set:
  @DF-RHF Final Energy:  -246.99109929102704
    Total Energy =                       -246.9910992910270693
  Basis Set: 6-31G*
  Basis Set:
  Basis Set: 6-31G*
  Basis Set:
  @DF-RHF Final Energy:  -246.99112268322693
    Total Energy =                       -246.9911226832269335
  Basis Set: 6-31G*
  Basis Set:
  Basis Set: 6-31G*
  Basis Set:
  @DF-RHF Final Energy:  -246.99112327364392
    Total Energy =                       -246.9911232736440070
  Basis Set: 6-31G*
  Basis Set:
  Charge       = 0
  Multiplicity = 1
  Basis Set: 6-31G*
  Basis Set:

    Orbital Energies (a.u.)
    -----------------------

    Doubly Occupied:

       1A    -20.543513     2A    -15.569298     3A    -11.349783
       4A    -11.266326     5A    -11.229985     6A     -1.404623
       7A     -1.222028     8A     -1.008735     9A     -0.941860
      10A     -0.769123    11A     -0.677843    12A     -0.661913
      13A     -0.632036    14A     -0.600644    15A     -0.576678
      16A     -0.566487    17A     -0.548042    18A     -0.501579
      19A     -0.433579    20A     -0.396173

  @DF-RHF Final Energy:  -246.99112362699691

   => Energetics <=

    Nuclear Repulsion Energy =            180.9362151221660042
    One-Electron Energy =                -694.0541822381208021
    Two-Electron Energy =                 266.1268434889576611
    DFT Exchange-Correlation Energy =       0.0000000000000000
    Empirical Dispersion Energy =           0.0000000000000000
    PCM Polarization Energy =               0.0000000000000000
    EFP Energy =                            0.0000000000000000
    Total Energy =                       -246.9911236269971369
    Molecular point group: c1
  Basis Set: 6-31G*
  Basis Set:

  -Total Gradient:
     Atom            X                  Y                   Z
    ------   -----------------  -----------------  -----------------
       1        0.000112501398    -0.000148980254    -0.000295418784
       2        0.005840993880    -0.006262809513     0.001988571727
       3       -0.004523947474     0.004745134840     0.000498886477
       4       -0.000257679821     0.000774358013    -0.009187149584
       5        0.000102548568    -0.000039004804     0.000147918477
       6        0.000077168743     0.000064034726     0.000203520127
       7        0.000009414815     0.000026549946    -0.000057724616
       8        0.000383891240    -0.000097292213    -0.000943035901
       9       -0.001455667001     0.001124355384     0.007429176698
      10       -0.000054667383    -0.000083542022    -0.000013214607
      11       -0.000234436600    -0.000005245562     0.000054250680
      12       -0.000000120367    -0.000097558546     0.000174219308

    Molecular point group: c1

    Geometry (in Angstrom), charge = 0, multiplicity = 1:

    H           -1.540088801171    -0.169167195521    -0.730193749020
    N           -0.740444697472    -0.597717093475    -0.304493510795
    C           -1.144190225295    -1.182506211068     0.972780186476
    C            0.261917742998     0.379538444034    -0.274895362484
    H           -1.456452732028    -0.435712990673     1.699157210752
    H           -0.336842550963    -1.763605110678     1.399012969499
    H           -1.970689947909    -1.855943149641     0.791158700560
    C            1.653028964733    -0.117267577656     0.039149140788
    O            0.027353320173     1.526240394226    -0.506230449184
    H            1.967436631407    -0.809393861775    -0.734332403395
    H            2.330553288577     0.722783583323     0.080984275005
    H            1.682699658924    -0.649528640742     0.983459928268

  Mulliken Charges: (a.u.)
   Center  Symbol    Alpha    Beta     Spin     Total
       1     H     0.31770  0.31770  0.00000  0.36459
       2     N     3.86498  3.86498  0.00000 -0.72997
       3     C     3.15859  3.15859  0.00000 -0.31717
       4     C     2.66582  2.66582  0.00000  0.66835
       5     H     0.41569  0.41569  0.00000  0.16862
       6     H     0.41094  0.41094  0.00000  0.17811
       7     H     0.40591  0.40591  0.00000  0.18818
       8     C     3.28558  3.28558  0.00000 -0.57115
       9     O     4.27018  4.27018  0.00000 -0.54036
      10     H     0.39929  0.39929  0.00000  0.20142
      11     H     0.39618  0.39618  0.00000  0.20764
      12     H     0.40913  0.40913  0.00000  0.18174

   Total alpha = 20.00000, Total beta = 20.00000, Total charge = -0.00000
