  ==> Input File <==

--------------------------------------------------------------------------
set {
	reference rhf
	basis 6-31G*
}

set_num_threads( 1 )
memory 2 gb

molecule MOL {
0 1

H	 1.654497	 -1.101329	 -0.850795
O	 1.586534	 -0.678666	 -0.000226
C	 0.489431	 0.077273	 0.000046
C	 -0.764129	 -0.759190	 0.000191
O	 0.537743	 1.263962	 0.000257
C	 -2.038368	 0.075731	 -0.000248
H	 -0.717284	 -1.412404	 -0.866059
H	 -0.717458	 -1.411724	 0.866967
H	 -2.086483	 0.712501	 -0.875098
H	 -2.908485	 -0.571682	 -0.000042
H	 -2.086576	 0.713280	 0.874068

	symmetry c1
}
set optking {
	frozen_dihedral = ("
		2 3 4 7
	")
}

ee = energy('scf')
oeprop('DIPOLE', 'QUADRUPOLE', 'MULLIKEN_CHARGES')
f=open( 'psi4out.xyz', 'w' )
f.write( "11  " )
f.write( str(ee) + "\n" )
f.write( MOL.save_string_xyz() )
f.close()
--------------------------------------------------------------------------

    Molecular point group: c1

    Geometry (in Angstrom), charge = 0, multiplicity = 1:

       Center              X                  Y                   Z               Mass
    ------------   -----------------  -----------------  -----------------  -----------------
           H          1.663879437770    -1.087715983126    -0.839216242176     1.007825032070
           O          1.595916437770    -0.665052983126     0.011352757824    15.994914619560
           C          0.498813437770     0.090886016874     0.011624757824    12.000000000000
           C         -0.754746562230    -0.745576983126     0.011769757824    12.000000000000
           O          0.547125437770     1.277575016874     0.011835757824    15.994914619560
           C         -2.028985562230     0.089344016874     0.011330757824    12.000000000000
           H         -0.707901562230    -1.398790983126    -0.854480242176     1.007825032070
           H         -0.708075562230    -1.398110983126     0.878545757824     1.007825032070
           H         -2.077100562230     0.726114016874    -0.863519242176     1.007825032070
           H         -2.899102562230    -0.558068983126     0.011536757824     1.007825032070
           H         -2.077193562230     0.726893016874     0.885646757824     1.007825032070

  Charge       = 0
  Multiplicity = 1
  Basis Set: 6-31G*
  Basis Set:

    Orbital Energies (a.u.)
    -----------------------

    Doubly Occupied:

       1A    -20.601808     2A    -20.560445     3A    -11.381013
       4A    -11.248245     5A    -11.222685     6A     -1.469908
       7A     -1.371437     8A     -1.066475     9A     -0.909367
      10A     -0.816526    11A     -0.715950    12A     -0.676402
      13A     -0.661469    14A     -0.619464    15A     -0.573277
      16A     -0.530941    17A     -0.520180    18A     -0.501793
      19A     -0.488681    20A     -0.446045

  @DF-RHF Final Energy:  -266.82335969992118

   => Energetics <=

    Nuclear Repulsion Energy =            179.8790660998146791
    One-Electron Energy =                -720.6406503822209970
    Two-Electron Energy =                 273.9382245824851907
    DFT Exchange-Correlation Energy =       0.0000000000000000
    Empirical Dispersion Energy =           0.0000000000000000
    PCM Polarization Energy =               0.0000000000000000
    EFP Energy =                            0.0000000000000000
    Total Energy =                       -266.8233596999211841

  Mulliken Charges: (a.u.)
   Center  Symbol    Alpha    Beta     Spin     Total
       1     H     0.26698  0.26698  0.00000  0.46604
       2     O     4.35388  4.35388  0.00000 -0.70775
       3     C     2.63308  2.63308  0.00000  0.73384
       4     C     3.21171  3.21171  0.00000 -0.42341
       5     O     4.25200  4.25200  0.00000 -0.50401
       6     C     3.23965  3.23965  0.00000 -0.47930
       7     H     0.41284  0.41284  0.00000  0.17432
       8     H     0.39564  0.39564  0.00000  0.20872
       9     H     0.40995  0.40995  0.00000  0.18009
      10     H     0.41741  0.41741  0.00000  0.16518
      11     H     0.40686  0.40686  0.00000  0.18628

   Total alpha = 20.00000, Total beta = 20.00000, Total charge =  0.00000
