  ==> Input File <==

--------------------------------------------------------------------------
set {
	reference rhf
	basis cc-pvtz
}

set_num_threads( 4 )
memory 2 gb

molecule MOL {
0 1

H	 -3.016445	 0.182379	 0.540103
O	 -2.346257	 -0.289210	 0.080372
C	 -1.183935	 0.486039	 -0.009831
C	 0.062853	 -0.375310	 0.027457
H	 -1.178881	 1.094526	 -0.908634
H	 -1.184406	 1.155156	 0.838676
O	 1.172093	 0.457955	 -0.054438
H	 0.052476	 -1.081302	 -0.804627
H	 0.076323	 -0.955658	 0.947560
C	 2.395478	 -0.199028	 -0.000366
H	 2.505946	 -0.901710	 -0.823354
H	 3.174616	 0.545641	 -0.071768
H	 2.513730	 -0.742241	 0.934223

	symmetry c1
}
set optking {
	frozen_dihedral = ("
		1 2 3 5
	")
}

ee = optimize('scf')
oeprop('DIPOLE', 'QUADRUPOLE', 'MULLIKEN_CHARGES')
f=open( 'psi4out.xyz', 'w' )
f.write( "13  " )
f.write( str(ee) + "\n" )
f.write( MOL.save_string_xyz() )
f.close()
--------------------------------------------------------------------------

    Molecular point group: c1
  Charge       = 0
  Multiplicity = 1
  Basis Set: CC-PVTZ
  Basis Set:
  @DF-RHF Final Energy:  -268.06067319303702
    Total Energy =                       -268.0606731930369051
    Molecular point group: c1
  Basis Set: CC-PVTZ
  Basis Set:
  Basis Set: CC-PVTZ
  Basis Set:
  @DF-RHF Final Energy:  -268.06192192797744
    Total Energy =                       -268.0619219279774939
  Basis Set: CC-PVTZ
  Basis Set:
  Basis Set: CC-PVTZ
  Basis Set:
  @DF-RHF Final Energy:  -268.06217156775256
    Total Energy =                       -268.0621715677527277
  Basis Set: CC-PVTZ
  Basis Set:
  Basis Set: CC-PVTZ
  Basis Set:
  @DF-RHF Final Energy:  -268.06217771205263
    Total Energy =                       -268.0621777120524598
  Basis Set: CC-PVTZ
  Basis Set:
  Charge       = 0
  Multiplicity = 1
  Basis Set: CC-PVTZ
  Basis Set:

    Orbital Energies (a.u.)
    -----------------------

    Doubly Occupied:

       1A    -20.552510     2A    -20.551637     3A    -11.267566
       4A    -11.264891     5A    -11.264801     6A     -1.388661
       7A     -1.367905     8A     -1.019514     9A     -0.911909
      10A     -0.832379    11A     -0.713879    12A     -0.683956
      13A     -0.643821    14A     -0.640316    15A     -0.615534
      16A     -0.554551    17A     -0.541590    18A     -0.496242
      19A     -0.473766    20A     -0.443264    21A     -0.421065

  @DF-RHF Final Energy:  -268.06217852811801

   => Energetics <=

    Nuclear Repulsion Energy =            190.6482615127333418
    One-Electron Energy =                -744.1213624424755153
    Two-Electron Energy =                 285.4109224016243047
    DFT Exchange-Correlation Energy =       0.0000000000000000
    Empirical Dispersion Energy =           0.0000000000000000
    PCM Polarization Energy =               0.0000000000000000
    EFP Energy =                            0.0000000000000000
    Total Energy =                       -268.0621785281178404
    Molecular point group: c1
  Basis Set: CC-PVTZ
  Basis Set:

  -Total Gradient:
     Atom            X                  Y                   Z
    ------   -----------------  -----------------  -----------------
       1        0.000355124700    -0.000441790086     0.001100504589
       2       -0.000259735361     0.000373891192    -0.001500271833
       3       -0.000680546067     0.000833674556     0.000900169979
       4       -0.000006272805    -0.000006577041    -0.000005593954
       5        0.000569609790    -0.000790575401    -0.000482244481
       6        0.000011323346    -0.000007476856    -0.000002613475
       7        0.000034174033     0.000018914720    -0.000013119861
       8        0.000004365617     0.000006341349    -0.000001092459
       9       -0.000026118710     0.000006116744     0.000004624189
      10        0.000001729785     0.000008340265     0.000001044462
      11       -0.000004689195     0.000001506794     0.000001059882
      12        0.000003924984    -0.000001015472    -0.000001305922
      13       -0.000002890118    -0.000001350765    -0.000001161115

  **** Optimization is complete! (in 5 steps) ****
    Final optimized geometry and variables:
    Molecular point group: c1

    Geometry (in Angstrom), charge = 0, multiplicity = 1:

    H           -3.026122453125     0.098003478875     0.433158468715
    O           -2.301541194041    -0.337817567322     0.027001253866
    C           -1.179591883459     0.502815263247    -0.004851546779
    C            0.054976972459    -0.369408851717     0.041300540507
    H           -1.163040263178     1.090168631073    -0.917046545863
    H           -1.168359860151     1.185643139027     0.837867877043
    O            1.171962636946     0.454155264266    -0.053703314136
    H            0.025199876762    -1.081228912500    -0.781078872291
    H            0.067863213236    -0.937388358089     0.969160271657
    C            2.386840675017    -0.219652906353    -0.037724638713
    H            2.468259770516    -0.911863601570    -0.872607385866
    H            3.174538607980     0.515376706811    -0.116579561325
    H            2.519786591724    -0.778152519890     0.886095707920

  Mulliken Charges: (a.u.)
   Center  Symbol    Alpha    Beta     Spin     Total
       1     H     0.39094  0.39094  0.00000  0.21812
       2     O     4.20253  4.20253  0.00000 -0.40505
       3     C     2.96614  2.96614  0.00000  0.06772
       4     C     2.96239  2.96239  0.00000  0.07521
       5     H     0.46885  0.46885  0.00000  0.06230
       6     H     0.47061  0.47061  0.00000  0.05878
       7     O     4.17648  4.17648  0.00000 -0.35295
       8     H     0.47035  0.47035  0.00000  0.05929
       9     H     0.47253  0.47253  0.00000  0.05495
      10     C     3.03096  3.03096  0.00000 -0.06192
      11     H     0.47031  0.47031  0.00000  0.05938
      12     H     0.44705  0.44705  0.00000  0.10590
      13     H     0.47087  0.47087  0.00000  0.05827

   Total alpha = 21.00000, Total beta = 21.00000, Total charge = -0.00000
