  ==> Input File <==

--------------------------------------------------------------------------
set {
	reference rhf
	basis 6-31G*
}

set_num_threads( 1 )
memory 2 gb

molecule MOL {
0 1

H	 -2.698709	 -0.000305	 0.034435
C	 -1.693833	 0.000034	 0.434417
O	 -0.828952	 -0.000968	 -0.659236
H	 -1.574200	 0.882896	 1.055746
H	 -1.574147	 -0.881698	 1.057355
C	 -1.366199	 0.212675	 -1.943847
C	 -2.327450	 -0.895936	 -2.367988
C	 -1.979217	 1.603115	 -2.098260
H	 -0.495518	 0.160735	 -2.586691
H	 -1.878562	 -1.868585	 -2.197690
H	 -2.554106	 -0.805963	 -3.425706
H	 -3.268176	 -0.853022	 -1.828212
H	 -1.289639	 2.360100	 -1.740610
H	 -2.190012	 1.801616	 -3.144504
H	 -2.912167	 1.703838	 -1.553007

	symmetry c1
}
set optking {
	frozen_dihedral = ("
		9 6 3 2
	")
}

ee = energy('scf')
oeprop('DIPOLE', 'QUADRUPOLE', 'MULLIKEN_CHARGES')
f=open( 'psi4out.xyz', 'w' )
f.write( "15  " )
f.write( str(ee) + "\n" )
f.write( MOL.save_string_xyz() )
f.close()
--------------------------------------------------------------------------

    Molecular point group: c1

    Geometry (in Angstrom), charge = 0, multiplicity = 1:

       Center              X                  Y                   Z               Mass
    ------------   -----------------  -----------------  -----------------  -----------------
           H         -1.048252361089    -0.183128894154     1.339814182717     1.007825032070
           C         -0.043376361089    -0.182789894154     1.739796182717    12.000000000000
           O          0.821504638911    -0.183791894154     0.646143182717    15.994914619560
           H          0.076256638911     0.700072105846     2.361125182717     1.007825032070
           H          0.076309638911    -1.064521894154     2.362734182717     1.007825032070
           C          0.284257638911     0.029851105846    -0.638467817283    12.000000000000
           C         -0.676993361089    -1.078759894154    -1.062608817283    12.000000000000
           C         -0.328760361089     1.420291105846    -0.792880817283    12.000000000000
           H          1.154938638911    -0.022088894154    -1.281311817283     1.007825032070
           H         -0.228105361089    -2.051408894154    -0.892310817283     1.007825032070
           H         -0.903649361089    -0.988786894154    -2.120326817283     1.007825032070
           H         -1.617719361089    -1.035845894154    -0.522832817283     1.007825032070
           H          0.360817638911     2.177276105846    -0.435230817283     1.007825032070
           H         -0.539555361089     1.618792105846    -1.839124817283     1.007825032070
           H         -1.261710361089     1.521014105846    -0.247627817283     1.007825032070

  Charge       = 0
  Multiplicity = 1
  Basis Set: 6-31G*
  Basis Set:

    Orbital Energies (a.u.)
    -----------------------

    Doubly Occupied:

       1A    -20.545214     2A    -11.275684     3A    -11.261245
       4A    -11.211203     5A    -11.210860     6A     -1.369465
       7A     -1.050554     8A     -0.940074     9A     -0.931444
      10A     -0.781838    11A     -0.678336    12A     -0.638071
      13A     -0.632447    14A     -0.573745    15A     -0.563673
      16A     -0.549692    17A     -0.538460    18A     -0.502091
      19A     -0.498100    20A     -0.439196    21A     -0.403888

  @DF-RHF Final Energy:  -232.13308519944690

   => Energetics <=

    Nuclear Repulsion Energy =            198.9718847910649515
    One-Electron Energy =                -709.0192866609388602
    Two-Electron Energy =                 277.9143166704266719
    DFT Exchange-Correlation Energy =       0.0000000000000000
    Empirical Dispersion Energy =           0.0000000000000000
    PCM Polarization Energy =               0.0000000000000000
    EFP Energy =                            0.0000000000000000
    Total Energy =                       -232.1330851994472368

  Mulliken Charges: (a.u.)
   Center  Symbol    Alpha    Beta     Spin     Total
       1     H     0.43286  0.43286  0.00000  0.13428
       2     C     3.07514  3.07514  0.00000 -0.15028
       3     O     4.31518  4.31518  0.00000 -0.63035
       4     H     0.42331  0.42331  0.00000  0.15338
       5     H     0.41917  0.41917  0.00000  0.16167
       6     C     2.91195  2.91195  0.00000  0.17609
       7     C     3.25232  3.25232  0.00000 -0.50465
       8     C     3.25162  3.25162  0.00000 -0.50325
       9     H     0.41453  0.41453  0.00000  0.17094
      10     H     0.41101  0.41101  0.00000  0.17798
      11     H     0.41923  0.41923  0.00000  0.16155
      12     H     0.42113  0.42113  0.00000  0.15775
      13     H     0.41113  0.41113  0.00000  0.17774
      14     H     0.41962  0.41962  0.00000  0.16076
      15     H     0.42181  0.42181  0.00000  0.15638

   Total alpha = 21.00000, Total beta = 21.00000, Total charge =  0.00000
