  ==> Input File <==

--------------------------------------------------------------------------
set {
	reference rhf
	basis 6-31G*
}

set_num_threads( 1 )
memory 2 gb

molecule MOL {
0 1

H	 2.591676	 2.013956	 0.335017
O	 3.341076	 1.666752	 -0.126416
C	 3.569581	 0.339145	 0.272707
C	 2.539767	 -0.640285	 -0.279495
H	 4.553106	 0.084646	 -0.100901
H	 3.608576	 0.269204	 1.359154
C	 1.115811	 -0.397273	 0.226630
H	 2.556196	 -0.582511	 -1.364741
H	 2.852081	 -1.648031	 -0.010655
C	 0.047630	 -0.857839	 -0.769204
H	 0.986301	 0.661333	 0.433862
H	 0.972966	 -0.921697	 1.171572
C	 -1.396861	 -0.715658	 -0.275675
H	 0.165465	 -0.307197	 -1.700737
H	 0.227512	 -1.903296	 -1.010788
C	 -1.870651	 0.726604	 -0.075971
H	 -2.053249	 -1.199544	 -0.995971
H	 -1.513991	 -1.266204	 0.656536
C	 -3.347218	 0.820346	 0.314412
H	 -1.706458	 1.288812	 -0.994162
H	 -1.273235	 1.214053	 0.690703
C	 -3.821093	 2.258602	 0.520634
H	 -3.953674	 0.347806	 -0.455266
H	 -3.515099	 0.251122	 1.226380
H	 -3.696545	 2.846038	 -0.384700
H	 -4.871170	 2.291793	 0.794259
H	 -3.258193	 2.747841	 1.310668

	symmetry c1
}
set optking {
	frozen_dihedral = ("
		14 10 7 4,
		14 10 13 16,
		8 4 3 2,
		10 13 16 20,
		20 16 19 22,
		4 3 2 1
	")
}

ee = energy('scf')
oeprop('DIPOLE', 'QUADRUPOLE', 'MULLIKEN_CHARGES')
f=open( 'psi4out.xyz', 'w' )
f.write( "27  " )
f.write( str(ee) + "\n" )
f.write( MOL.save_string_xyz() )
f.close()
--------------------------------------------------------------------------

    Molecular point group: c1

    Geometry (in Angstrom), charge = 0, multiplicity = 1:

       Center              X                  Y                   Z               Mass
    ------------   -----------------  -----------------  -----------------  -----------------
           H          2.529442972947     1.619753790307     0.349200751048     1.007825032070
           O          3.278842972947     1.272549790307    -0.112232248952    15.994914619560
           C          3.507347972947    -0.055057209693     0.286890751048    12.000000000000
           C          2.477533972947    -1.034487209693    -0.265311248952    12.000000000000
           H          4.490872972947    -0.309556209693    -0.086717248952     1.007825032070
           H          3.546342972947    -0.124998209693     1.373337751048     1.007825032070
           C          1.053577972947    -0.791475209693     0.240813751048    12.000000000000
           H          2.493962972947    -0.976713209693    -1.350557248952     1.007825032070
           H          2.789847972947    -2.042233209693     0.003528751048     1.007825032070
           C         -0.014603027053    -1.252041209693    -0.755020248952    12.000000000000
           H          0.924067972947     0.267130790307     0.448045751048     1.007825032070
           H          0.910732972947    -1.315899209693     1.185755751048     1.007825032070
           C         -1.459094027053    -1.109860209693    -0.261491248952    12.000000000000
           H          0.103231972947    -0.701399209693    -1.686553248952     1.007825032070
           H          0.165278972947    -2.297498209693    -0.996604248952     1.007825032070
           C         -1.932884027053     0.332401790307    -0.061787248952    12.000000000000
           H         -2.115482027053    -1.593746209693    -0.981787248952     1.007825032070
           H         -1.576224027053    -1.660406209693     0.670719751048     1.007825032070
           C         -3.409451027053     0.426143790307     0.328595751048    12.000000000000
           H         -1.768691027053     0.894609790307    -0.979978248952     1.007825032070
           H         -1.335468027053     0.819850790307     0.704886751048     1.007825032070
           C         -3.883326027053     1.864399790307     0.534817751048    12.000000000000
           H         -4.015907027053    -0.046396209693    -0.441082248952     1.007825032070
           H         -3.577332027053    -0.143080209693     1.240563751048     1.007825032070
           H         -3.758778027053     2.451835790307    -0.370516248952     1.007825032070
           H         -4.933403027053     1.897590790307     0.808442751048     1.007825032070
           H         -3.320426027053     2.353638790307     1.324851751048     1.007825032070

  Charge       = 0
  Multiplicity = 1
  Basis Set: 6-31G*
  Basis Set:

    Orbital Energies (a.u.)
    -----------------------

    Doubly Occupied:

       1A    -20.552368     2A    -11.267168     3A    -11.220067
       4A    -11.216940     5A    -11.216214     6A    -11.215349
       7A    -11.214779     8A    -11.214496     9A    -11.209582
      10A     -1.359299    11A     -1.095197    12A     -1.061633
      13A     -1.011513    14A     -0.948650    15A     -0.888215
      16A     -0.819960    17A     -0.801836    18A     -0.778273
      19A     -0.692701    20A     -0.654371    21A     -0.641511
      22A     -0.612249    23A     -0.596217    24A     -0.582782
      25A     -0.580816    26A     -0.553972    27A     -0.540768
      28A     -0.534219    29A     -0.507583    30A     -0.491609
      31A     -0.486668    32A     -0.469864    33A     -0.468411
      34A     -0.460726    35A     -0.454182    36A     -0.441286
      37A     -0.423465

  @DF-RHF Final Energy:  -388.27887624181761

   => Energetics <=

    Nuclear Repulsion Energy =            461.9951518817445617
    One-Electron Energy =               -1441.9782302610574334
    Two-Electron Energy =                 591.7042021374982141
    DFT Exchange-Correlation Energy =       0.0000000000000000
    Empirical Dispersion Energy =           0.0000000000000000
    PCM Polarization Energy =               0.0000000000000000
    EFP Energy =                            0.0000000000000000
    Total Energy =                       -388.2788762418147144

  Mulliken Charges: (a.u.)
   Center  Symbol    Alpha    Beta     Spin     Total
       1     H     0.27878  0.27878  0.00000  0.44243
       2     O     4.37104  4.37104  0.00000 -0.74208
       3     C     2.99908  2.99908  0.00000  0.00183
       4     C     3.16209  3.16209  0.00000 -0.32418
       5     H     0.41439  0.41439  0.00000  0.17123
       6     H     0.43220  0.43220  0.00000  0.13561
       7     C     3.15719  3.15719  0.00000 -0.31438
       8     H     0.41426  0.41426  0.00000  0.17148
       9     H     0.42277  0.42277  0.00000  0.15445
      10     C     3.15410  3.15410  0.00000 -0.30820
      11     H     0.43266  0.43266  0.00000  0.13469
      12     H     0.42140  0.42140  0.00000  0.15720
      13     C     3.15390  3.15390  0.00000 -0.30779
      14     H     0.42032  0.42032  0.00000  0.15935
      15     H     0.42083  0.42083  0.00000  0.15835
      16     C     3.15245  3.15245  0.00000 -0.30490
      17     H     0.42117  0.42117  0.00000  0.15765
      18     H     0.42419  0.42419  0.00000  0.15162
      19     C     3.15111  3.15111  0.00000 -0.30223
      20     H     0.42350  0.42350  0.00000  0.15299
      21     H     0.42448  0.42448  0.00000  0.15104
      22     C     3.23923  3.23923  0.00000 -0.47845
      23     H     0.42268  0.42268  0.00000  0.15464
      24     H     0.42316  0.42316  0.00000  0.15369
      25     H     0.42142  0.42142  0.00000  0.15715
      26     H     0.41911  0.41911  0.00000  0.16179
      27     H     0.42250  0.42250  0.00000  0.15501

   Total alpha = 37.00000, Total beta = 37.00000, Total charge = -0.00000
