  ==> Input File <==

--------------------------------------------------------------------------
set {
	reference rhf
	basis cc-pvtz
}

set_num_threads( 4 )
memory 2 gb

molecule MOL {
0 1

H	 -3.034039	 -0.667848	 0.004703
O	 -2.240597	 -1.171748	 0.000934
C	 -1.159675	 -0.364500	 0.000370
C	 -0.442992	 -0.086330	 1.146407
C	 -0.782564	 0.190513	 -1.212809
H	 -0.734750	 -0.513913	 2.088271
C	 0.653981	 0.754089	 1.065328
H	 -1.362326	 -0.044089	 -2.084459
C	 0.312996	 1.026464	 -1.292259
H	 1.212290	 0.975266	 1.955352
C	 1.033597	 1.308730	 -0.135952
C	 0.737318	 1.611149	 -2.615792
H	 1.885346	 1.960626	 -0.180860
H	 0.999707	 2.656773	 -2.512617
H	 -0.050244	 1.531063	 -3.352730
H	 1.608106	 1.091724	 -3.001239

	symmetry c1
}
set optking {
	frozen_dihedral = ("
		5 3 2 1
	")
}

ee = optimize('scf')
oeprop('DIPOLE', 'QUADRUPOLE', 'MULLIKEN_CHARGES')
f=open( 'psi4out.xyz', 'w' )
f.write( "16  " )
f.write( str(ee) + "\n" )
f.write( MOL.save_string_xyz() )
f.close()
--------------------------------------------------------------------------

    Molecular point group: c1
  Charge       = 0
  Multiplicity = 1
  Basis Set: CC-PVTZ
  Basis Set:
  @DF-RHF Final Energy:  -344.71526432503236
    Total Energy =                       -344.7152643250323081
    Molecular point group: c1
  Basis Set: CC-PVTZ
  Basis Set:
  Basis Set: CC-PVTZ
  Basis Set:
  @DF-RHF Final Energy:  -344.71625654955187
    Total Energy =                       -344.7162565495517583
  Basis Set: CC-PVTZ
  Basis Set:
  Basis Set: CC-PVTZ
  Basis Set:
  @DF-RHF Final Energy:  -344.71632298868934
    Total Energy =                       -344.7163229886891145
  Basis Set: CC-PVTZ
  Basis Set:
  Basis Set: CC-PVTZ
  Basis Set:
  @DF-RHF Final Energy:  -344.71632987640714
    Total Energy =                       -344.7163298764070873
  Basis Set: CC-PVTZ
  Basis Set:
  Basis Set: CC-PVTZ
  Basis Set:
  @DF-RHF Final Energy:  -344.71633105744144
    Total Energy =                       -344.7163310574416641
  Basis Set: CC-PVTZ
  Basis Set:
  Charge       = 0
  Multiplicity = 1
  Basis Set: CC-PVTZ
  Basis Set:

    Orbital Energies (a.u.)
    -----------------------

    Doubly Occupied:

       1A    -20.569275     2A    -11.286525     3A    -11.240642
       4A    -11.230821     5A    -11.221180     6A    -11.219330
       7A    -11.218968     8A    -11.218604     9A     -1.396018
      10A     -1.155050    11A     -1.047041    12A     -1.007220
      13A     -0.939530    14A     -0.833380    15A     -0.808014
      16A     -0.722893    17A     -0.679996    18A     -0.658234
      19A     -0.621608    20A     -0.593560    21A     -0.578509
      22A     -0.570370    23A     -0.553230    24A     -0.515893
      25A     -0.505316    26A     -0.485004    27A     -0.466913
      28A     -0.334116    29A     -0.322353

  @DF-RHF Final Energy:  -344.71633142163574

   => Energetics <=

    Nuclear Repulsion Energy =            345.8267898380356087
    One-Electron Energy =               -1153.0870567710840078
    Two-Electron Energy =                 462.5439355114131104
    DFT Exchange-Correlation Energy =       0.0000000000000000
    Empirical Dispersion Energy =           0.0000000000000000
    PCM Polarization Energy =               0.0000000000000000
    EFP Energy =                            0.0000000000000000
    Total Energy =                       -344.7163314216352319
    Molecular point group: c1
  Basis Set: CC-PVTZ
  Basis Set:

  -Total Gradient:
     Atom            X                  Y                   Z
    ------   -----------------  -----------------  -----------------
       1        0.000021369553     0.000035718695     0.000907415410
       2        0.000105609812    -0.000350206845    -0.001188930591
       3       -0.000508778661     0.000820744446     0.000466040279
       4       -0.000013307921    -0.000006440978    -0.000004784955
       5        0.000366372188    -0.000493464194    -0.000169574017
       6       -0.000004799348    -0.000004862569    -0.000002864375
       7       -0.000012211790     0.000007824065    -0.000023451119
       8        0.000018366549     0.000001460772     0.000023712545
       9        0.000017524592    -0.000018016515    -0.000015129501
      10       -0.000000698956    -0.000000559869     0.000000204980
      11        0.000013362095    -0.000010732061     0.000015007053
      12        0.000003641630     0.000007699934     0.000004544646
      13       -0.000005476620     0.000000437077    -0.000010308384
      14       -0.000007179250     0.000007824712    -0.000001657293
      15        0.000001952926    -0.000004036512    -0.000009720400
      16        0.000004253205     0.000006609840     0.000009495722

  **** Optimization is complete! (in 6 steps) ****
    Final optimized geometry and variables:
    Molecular point group: c1

    Geometry (in Angstrom), charge = 0, multiplicity = 1:

    H           -2.757366687349    -1.100535884050     0.448235308690
    O           -1.949580857212    -1.583182728536     0.450190487930
    C           -0.881701580132    -0.730563228799     0.394941490456
    C           -0.164325109919    -0.465136485512     1.541043494070
    C           -0.497353793768    -0.183479353815    -0.816382674927
    H           -0.468214590480    -0.907754024349     2.469206777756
    C            0.939285707906     0.365187333369     1.464374613101
    H           -1.065578508994    -0.424883837091    -1.694835382502
    C            0.604340951447     0.649887608259    -0.897803669374
    H            1.503251559707     0.579645826555     2.352333113197
    C            1.319413001931     0.921586435292     0.260995914039
    C            1.038951189498     1.229763796040    -2.220574595036
    H            2.177264796287     1.566421249696     0.218933672992
    H            1.311640719681     2.272886557701    -2.118036651250
    H            0.252116113020     1.158392358960    -2.959523663661
    H            1.904580007043     0.701653355985    -2.605771325382

  Mulliken Charges: (a.u.)
   Center  Symbol    Alpha    Beta     Spin     Total
       1     H     0.38857  0.38857  0.00000  0.22287
       2     O     4.19202  4.19202  0.00000 -0.38404
       3     C     2.85699  2.85699  0.00000  0.28602
       4     C     3.12245  3.12245  0.00000 -0.24491
       5     C     3.14640  3.14640  0.00000 -0.29279
       6     H     0.41697  0.41697  0.00000  0.16605
       7     C     3.05987  3.05987  0.00000 -0.11975
       8     H     0.42136  0.42136  0.00000  0.15728
       9     C     2.94629  2.94629  0.00000  0.10743
      10     H     0.42222  0.42222  0.00000  0.15556
      11     C     3.10786  3.10786  0.00000 -0.21572
      12     C     3.14625  3.14625  0.00000 -0.29251
      13     H     0.42696  0.42696  0.00000  0.14607
      14     H     0.44822  0.44822  0.00000  0.10357
      15     H     0.45120  0.45120  0.00000  0.09760
      16     H     0.44636  0.44636  0.00000  0.10727

   Total alpha = 29.00000, Total beta = 29.00000, Total charge = -0.00000
