  ==> Input File <==

--------------------------------------------------------------------------
set {
	reference rhf
	basis 6-31G*
}

set_num_threads( 1 )
memory 2 gb

molecule MOL {
0 1

H	 -3.892951	 0.981613	 -0.358725
C	 -3.196921	 0.361773	 0.172313
C	 -2.076860	 -0.007332	 -0.404944
H	 -3.439953	 0.057760	 1.173024
O	 -1.272648	 -0.963891	 0.129002
H	 -1.739933	 0.407710	 -1.338441
C	 -0.027703	 -1.170602	 -0.444784
C	 1.015437	 -0.240179	 0.131816
H	 -0.042172	 -1.036322	 -1.520635
H	 0.273281	 -2.183795	 -0.222673
F	 2.191699	 -0.500698	 -0.419857
F	 0.729916	 1.028310	 -0.111584
F	 1.138242	 -0.381362	 1.435417

	symmetry c1
}
set optking {
	frozen_dihedral = ("
		11 8 7 9,
		3 5 7 9,
		6 3 5 7
	")
}

ee = energy('scf')
oeprop('DIPOLE', 'QUADRUPOLE', 'MULLIKEN_CHARGES')
f=open( 'psi4out.xyz', 'w' )
f.write( "13  " )
f.write( str(ee) + "\n" )
f.write( MOL.save_string_xyz() )
f.close()
--------------------------------------------------------------------------

    Molecular point group: c1

    Geometry (in Angstrom), charge = 0, multiplicity = 1:

       Center              X                  Y                   Z               Mass
    ------------   -----------------  -----------------  -----------------  -----------------
           H         -3.864635552565     1.196656935768    -0.441285958705     1.007825032070
           C         -3.168605552565     0.576816935768     0.089752041295    12.000000000000
           C         -2.048544552565     0.207711935768    -0.487504958705    12.000000000000
           H         -3.411637552565     0.272803935768     1.090463041295     1.007825032070
           O         -1.244332552565    -0.748847064232     0.046441041295    15.994914619560
           H         -1.711617552565     0.622753935768    -1.421001958705     1.007825032070
           C          0.000612447435    -0.955558064232    -0.527344958705    12.000000000000
           C          1.043752447435    -0.025135064232     0.049255041295    12.000000000000
           H         -0.013856552565    -0.821278064232    -1.603195958705     1.007825032070
           H          0.301596447435    -1.968751064232    -0.305233958705     1.007825032070
           F          2.220014447435    -0.285654064232    -0.502417958705    18.998403224000
           F          0.758231447435     1.243353935768    -0.194144958705    18.998403224000
           F          1.166557447435    -0.166318064232     1.352856041295    18.998403224000

  Charge       = 0
  Multiplicity = 1
  Basis Set: 6-31G*
  Basis Set:

    Orbital Energies (a.u.)
    -----------------------

    Doubly Occupied:

       1A    -26.344739     2A    -26.344190     3A    -26.340887
       4A    -20.609157     5A    -11.503368     6A    -11.318906
       7A    -11.299817     8A    -11.215510     9A     -1.742048
      10A     -1.640137    11A     -1.638610    12A     -1.438708
      13A     -1.084381    14A     -1.016585    15A     -0.925582
      16A     -0.836839    17A     -0.831284    18A     -0.821434
      19A     -0.792064    20A     -0.721955    21A     -0.711622
      22A     -0.696416    23A     -0.676062    24A     -0.660757
      25A     -0.654951    26A     -0.643431    27A     -0.635018
      28A     -0.584466    29A     -0.564519    30A     -0.523227
      31A     -0.513914    32A     -0.350277

  @DF-RHF Final Energy:  -527.53388006628370

   => Energetics <=

    Nuclear Repulsion Energy =            413.5307934238157372
    One-Electron Energy =               -1550.7674858769996717
    Two-Electron Energy =                 609.7028123868992679
    DFT Exchange-Correlation Energy =       0.0000000000000000
    Empirical Dispersion Energy =           0.0000000000000000
    PCM Polarization Energy =               0.0000000000000000
    EFP Energy =                            0.0000000000000000
    Total Energy =                       -527.5338800662846097

  Mulliken Charges: (a.u.)
   Center  Symbol    Alpha    Beta     Spin     Total
       1     H     0.40711  0.40711  0.00000  0.18577
       2     C     3.23592  3.23592  0.00000 -0.47184
       3     C     2.89584  2.89584  0.00000  0.20832
       4     H     0.40178  0.40178  0.00000  0.19644
       5     O     4.30038  4.30038  0.00000 -0.60076
       6     H     0.40693  0.40693  0.00000  0.18614
       7     C     3.06412  3.06412  0.00000 -0.12824
       8     C     2.45589  2.45589  0.00000  1.08822
       9     H     0.40546  0.40546  0.00000  0.18908
      10     H     0.38963  0.38963  0.00000  0.22074
      11     F     4.68280  4.68280  0.00000 -0.36560
      12     F     4.67965  4.67965  0.00000 -0.35930
      13     F     4.67448  4.67448  0.00000 -0.34896

   Total alpha = 32.00000, Total beta = 32.00000, Total charge = -0.00000
