                              Psi4 1.0.54 Driver

  ==> Input File <==

--------------------------------------------------------------------------
set {
	reference rhf
	basis cc-pvtz
}

set_num_threads( 4 )
memory 2 gb

molecule MOL {
0 1

O	 3.219313	 0.959291	 -0.614106
C	 2.698710	 0.058177	 -0.050237
C	 1.246364	 -0.005813	 0.348416
O	 3.344101	 -1.038700	 0.312317
C	 0.453207	 1.232821	 -0.049003
H	 0.839270	 -0.907818	 -0.092281
H	 1.216683	 -0.160521	 1.422434
C	 -0.998367	 1.217982	 0.432195
H	 0.481498	 1.345443	 -1.127236
H	 0.951413	 2.105557	 0.354893
C	 -1.882951	 0.151251	 -0.211235
H	 -1.429490	 2.193659	 0.228843
H	 -1.019755	 1.099323	 1.513279
C	 -3.308955	 0.150899	 0.333098
H	 -1.909814	 0.311917	 -1.286566
H	 -1.450855	 -0.833726	 -0.060736
C	 -4.200239	 -0.914818	 -0.298277
H	 -3.754259	 1.129952	 0.173413
H	 -3.282198	 0.002166	 1.410144
C	 -5.623576	 -0.907673	 0.249296
H	 -4.228123	 -0.767376	 -1.374475
H	 -3.757983	 -1.894257	 -0.137136
H	 -6.228857	 -1.675284	 -0.219098
H	 -6.106191	 0.047726	 0.072081
H	 -5.632190	 -1.087051	 1.319323
C	 4.720529	 -1.114346	 0.001449
H	 4.874321	 -1.055557	 -1.065852
H	 5.057824	 -2.067950	 0.373977
H	 5.264321	 -0.313596	 0.480350

	symmetry c1
}
set optking {
	frozen_dihedral = ("
		15 11 8 5
	")
}

ee,wfn = optimize('scf', return_wfn=True)
oeprop( wfn, 'DIPOLE', 'QUADRUPOLE', 'MULLIKEN_CHARGES')
f=open( 'psi4out.xyz', 'w' )
f.write( "29  " )
f.write( str(ee) + "\n" )
f.write( MOL.save_string_xyz() )
f.close()
--------------------------------------------------------------------------

    Molecular point group: c1
  Charge       = 0
  Multiplicity = 1
  Basis Set: CC-PVTZ
  Basis Set:
  @DF-RHF Final Energy:  -501.22482511183887
    Total Energy =                       -501.2248251118390954
    Molecular point group: c1
  Basis Set: CC-PVTZ
  Basis Set:
  Basis Set: CC-PVTZ
  Basis Set:
  @DF-RHF Final Energy:  -501.22474910599635
    Total Energy =                       -501.2247491059966933
  Basis Set: CC-PVTZ
  Basis Set:
  Basis Set: CC-PVTZ
  Basis Set:
  @DF-RHF Final Energy:  -501.22484994098829
    Total Energy =                       -501.2248499409884062
  Basis Set: CC-PVTZ
  Basis Set:
  Basis Set: CC-PVTZ
  Basis Set:
  @DF-RHF Final Energy:  -501.22475824717878
    Total Energy =                       -501.2247582471784426
  Basis Set: CC-PVTZ
  Basis Set:
  Basis Set: CC-PVTZ
  Basis Set:
  @DF-RHF Final Energy:  -501.22485393605507
    Total Energy =                       -501.2248539360550694
  Basis Set: CC-PVTZ
  Basis Set:
  Charge       = 0
  Multiplicity = 1
  Basis Set: CC-PVTZ
  Basis Set:

    Orbital Energies (a.u.)
    -----------------------

    Doubly Occupied:

       1A    -20.596049     2A    -20.533841     3A    -11.364292
       4A    -11.278280     5A    -11.232996     6A    -11.217053
       7A    -11.215558     8A    -11.213901     9A    -11.213625
      10A    -11.212232    11A    -11.207111    12A     -1.471945
      13A     -1.365484    14A     -1.099311    15A     -1.068067
      16A     -1.020670    17A     -0.978221    18A     -0.929206
      19A     -0.861987    20A     -0.799727    21A     -0.790928
      22A     -0.765876    23A     -0.703224    24A     -0.685484
      25A     -0.676137    26A     -0.651574    27A     -0.629630
      28A     -0.605862    29A     -0.596410    30A     -0.581823
      31A     -0.568031    32A     -0.549783    33A     -0.533579
      34A     -0.531505    35A     -0.516920    36A     -0.511985
      37A     -0.497849    38A     -0.478037    39A     -0.470525
      40A     -0.463083    41A     -0.460726    42A     -0.458012
      43A     -0.443664    44A     -0.437463

  @DF-RHF Final Energy:  -501.22485541096557

   => Energetics <=

    Nuclear Repulsion Energy =            611.2501958238849511
    One-Electron Energy =               -1893.9747616074337202
    Two-Electron Energy =                 781.4997103725831948
    DFT Exchange-Correlation Energy =       0.0000000000000000
    Empirical Dispersion Energy =           0.0000000000000000
    PCM Polarization Energy =               0.0000000000000000
    EFP Energy =                            0.0000000000000000
    Total Energy =                       -501.2248554109655743
    Molecular point group: c1
  Basis Set: CC-PVTZ
  Basis Set:

  -Total Gradient:
     Atom            X                  Y                   Z
    ------   -----------------  -----------------  -----------------
       1        0.000006904264     0.000085465254    -0.000039281510
       2       -0.000022892261    -0.000167989564     0.000075958565
       3        0.000031934453     0.000023284440    -0.000009674280
       4       -0.000023962537     0.000056799325    -0.000020981360
       5        0.000184723460    -0.000477111799     0.000532485840
       6        0.000016426558     0.000011083442     0.000002412232
       7        0.000009138151     0.000000223508    -0.000019232294
       8       -0.000451186361     0.000818913967    -0.000727975036
       9        0.000003094396    -0.000005428252     0.000002030878
      10       -0.000007168173    -0.000008867485    -0.000002098321
      11        0.001040977409    -0.000930442759     0.000090578563
      12        0.000007922634     0.000003184708    -0.000000265517
      13        0.000000018874    -0.000001093975     0.000007201607
      14        0.000013586510     0.000015233049    -0.000007113225
      15       -0.000802415786     0.000593761874     0.000109775578
      16        0.000007337980    -0.000010032019     0.000001035194
      17        0.000003333874    -0.000020457392     0.000000381982
      18       -0.000000771914     0.000002838349     0.000003892507
      19        0.000007118916     0.000005519320     0.000000771582
      20        0.000001902856     0.000010407580    -0.000008200244
      21       -0.000007540221    -0.000004000400     0.000005112822
      22       -0.000000731006    -0.000002621767    -0.000004482750
      23        0.000004677648     0.000003033636     0.000001161773
      24       -0.000003333577    -0.000000543880     0.000002530366
      25        0.000004003266    -0.000001143538    -0.000005652529
      26        0.000068031595     0.000001911794    -0.000014433042
      27       -0.000032612977     0.000008417305     0.000030438905
      28       -0.000019947898     0.000000496005     0.000003826426
      29       -0.000038570122    -0.000010840729    -0.000010204712

  **** Optimization is complete! (in 6 steps) ****
    Final optimized geometry and variables:
    Molecular point group: c1

    Geometry (in Angstrom), charge = 0, multiplicity = 1:

    O            3.199149499928     0.984288199253    -0.684492269890
    C            2.692648167856     0.093348570072    -0.092205073329
    C            1.245338267450     0.027109740200     0.323873577340
    O            3.351600549210    -0.988296238873     0.290775286085
    C            0.437441300945     1.248957361913    -0.095282268549
    H            0.842016080364    -0.889464550290    -0.089146857420
    H            1.228853338516    -0.100473274609     1.401663088869
    C           -1.010551904467     1.231060962633     0.397290614722
    H            0.458296126795     1.339072713153    -1.175875378496
    H            0.930484394647     2.134460680989     0.286558682867
    C           -1.900621472666     0.168807767472    -0.245976597304
    H           -1.446058175578     2.207501562633     0.208390219070
    H           -1.019643971122     1.101908489995     1.477478712708
    C           -3.325447297533     0.175319532218     0.302353248237
    H           -1.934706703507     0.338263709605    -1.319630880379
    H           -1.474346229059    -0.819342386629    -0.102198452610
    C           -4.231510954137    -0.866351951629    -0.347896132194
    H           -3.759074006558     1.162884274822     0.163544019966
    H           -3.297930999881     0.004713079299     1.376073537775
    C           -5.652626269731    -0.854212361791     0.205312500408
    H           -4.261743223911    -0.695948282510    -1.420608180991
    H           -3.800143188044    -1.854096539993    -0.209248476938
    H           -6.268738139632    -1.604232819352    -0.277238199476
    H           -6.124463910477     0.110475483955     0.050774614522
    H           -5.659444828870    -1.056708638088     1.271214532726
    C            4.725237737187    -1.059881566425    -0.033290561180
    H            4.866689498164    -1.026633624323    -1.103344006614
    H            5.075014325018    -2.000828376885     0.359346905931
    H            5.266820420472    -0.242542838342     0.419258298370

  Mulliken Charges: (a.u.)
   Center  Symbol    Alpha    Beta     Spin     Total
       1     O     4.19702  4.19702  0.00000 -0.39404
       2     C     2.80466  2.80466  0.00000  0.39068
       3     C     3.10154  3.10154  0.00000 -0.20308
       4     O     4.14722  4.14722  0.00000 -0.29444
       5     C     3.09242  3.09242  0.00000 -0.18485
       6     H     0.43939  0.43939  0.00000  0.12121
       7     H     0.43996  0.43996  0.00000  0.12007
       8     C     3.10436  3.10436  0.00000 -0.20871
       9     H     0.44643  0.44643  0.00000  0.10714
      10     H     0.43962  0.43962  0.00000  0.12076
      11     C     3.09141  3.09141  0.00000 -0.18282
      12     H     0.44478  0.44478  0.00000  0.11045
      13     H     0.45441  0.45441  0.00000  0.09118
      14     C     3.08649  3.08649  0.00000 -0.17298
      15     H     0.45296  0.45296  0.00000  0.09409
      16     H     0.45437  0.45437  0.00000  0.09126
      17     C     3.08339  3.08339  0.00000 -0.16678
      18     H     0.45402  0.45402  0.00000  0.09196
      19     H     0.45505  0.45505  0.00000  0.08990
      20     C     3.15047  3.15047  0.00000 -0.30094
      21     H     0.45442  0.45442  0.00000  0.09116
      22     H     0.45510  0.45510  0.00000  0.08980
      23     H     0.44835  0.44835  0.00000  0.10330
      24     H     0.45495  0.45495  0.00000  0.09009
      25     H     0.45527  0.45527  0.00000  0.08946
      26     C     3.03815  3.03815  0.00000 -0.07630
      27     H     0.45431  0.45431  0.00000  0.09137
      28     H     0.44527  0.44527  0.00000  0.10945
      29     H     0.45420  0.45420  0.00000  0.09160

   Total alpha = 44.00000, Total beta = 44.00000, Total charge = -0.00000

*** Psi4 exiting successfully. Buy a developer a beer!
