  ==> Input File <==

--------------------------------------------------------------------------
set {
	reference rhf
	basis 6-31G*
}

set_num_threads( 1 )
memory 2 gb

molecule MOL {
0 1

O	 2.144810	 2.481036	 1.771083
C	 1.736660	 1.898060	 2.728325
C	 0.451843	 1.089847	 2.697098
C	 2.481472	 1.927891	 4.047233
C	 -0.254733	 1.097357	 1.344719
H	 0.691321	 0.071573	 3.000672
H	 -0.203935	 1.476216	 3.476249
C	 -1.543404	 0.273320	 1.351938
H	 0.422896	 0.716411	 0.587204
H	 -0.473602	 2.122582	 1.063369
C	 -2.259874	 0.272531	 0.000494
H	 -1.317146	 -0.752779	 1.638248
H	 -2.217715	 0.659665	 2.114900
C	 -3.549786	 -0.549746	 -0.000374
H	 -1.586964	 -0.114153	 -0.762845
H	 -2.487325	 1.297714	 -0.286319
C	 -4.809590	 0.315458	 -0.000369
H	 -3.560515	 -1.202009	 -0.871156
H	 -3.561123	 -1.202955	 0.869711
H	 -4.844746	 0.956611	 -0.876632
H	 -5.706986	 -0.295590	 -0.001609
H	 -4.845960	 0.954827	 0.877144
H	 2.753029	 0.921413	 4.351990
H	 3.374958	 2.528471	 3.948129
H	 1.851171	 2.342106	 4.828758

	symmetry c1
}
set optking {
	frozen_dihedral = ("
		9 5 8 12,
		15 11 8 12,
		1 2 3 6,
		9 5 3 6
	")
}

ee = energy('scf')
oeprop('DIPOLE', 'QUADRUPOLE', 'MULLIKEN_CHARGES')
f=open( 'psi4out.xyz', 'w' )
f.write( "25  " )
f.write( str(ee) + "\n" )
f.write( MOL.save_string_xyz() )
f.close()
--------------------------------------------------------------------------

    Molecular point group: c1

    Geometry (in Angstrom), charge = 0, multiplicity = 1:

       Center              X                  Y                   Z               Mass
    ------------   -----------------  -----------------  -----------------  -----------------
           O          2.773481268453     1.496470188461     0.221737116111    15.994914619560
           C          2.365331268453     0.913494188461     1.178979116111    12.000000000000
           C          1.080514268453     0.105281188461     1.147752116111    12.000000000000
           C          3.110143268453     0.943325188461     2.497887116111    12.000000000000
           C          0.373938268453     0.112791188461    -0.204626883889    12.000000000000
           H          1.319992268453    -0.912992811539     1.451326116111     1.007825032070
           H          0.424736268453     0.491650188461     1.926903116111     1.007825032070
           C         -0.914732731547    -0.711245811539    -0.197407883889    12.000000000000
           H          1.051567268453    -0.268154811539    -0.962141883889     1.007825032070
           H          0.155069268453     1.138016188461    -0.485976883889     1.007825032070
           C         -1.631202731547    -0.712034811539    -1.548851883889    12.000000000000
           H         -0.688474731547    -1.737344811539     0.088902116111     1.007825032070
           H         -1.589043731547    -0.324900811539     0.565554116111     1.007825032070
           C         -2.921114731547    -1.534311811539    -1.549719883889    12.000000000000
           H         -0.958292731547    -1.098718811539    -2.312190883889     1.007825032070
           H         -1.858653731547     0.313148188461    -1.835664883889     1.007825032070
           C         -4.180918731547    -0.669107811539    -1.549714883889    12.000000000000
           H         -2.931843731547    -2.186574811539    -2.420501883889     1.007825032070
           H         -2.932451731547    -2.187520811539    -0.679634883889     1.007825032070
           H         -4.216074731547    -0.027954811539    -2.425977883889     1.007825032070
           H         -5.078314731547    -1.280155811539    -1.550954883889     1.007825032070
           H         -4.217288731547    -0.029738811539    -0.672201883889     1.007825032070
           H          3.381700268453    -0.063152811539     2.802644116111     1.007825032070
           H          4.003629268453     1.543905188461     2.398783116111     1.007825032070
           H          2.479842268453     1.357540188461     3.279412116111     1.007825032070

  Charge       = 0
  Multiplicity = 1
  Basis Set: 6-31G*
  Basis Set:

    Orbital Energies (a.u.)
    -----------------------

    Doubly Occupied:

       1A    -20.550429     2A    -11.326252     3A    -11.231854
       4A    -11.228325     5A    -11.217287     6A    -11.216316
       7A    -11.213883     8A    -11.212042     9A    -11.208802
      10A     -1.395723    11A     -1.093884    12A     -1.056348
      13A     -1.014020    14A     -0.968151    15A     -0.892236
      16A     -0.817824    17A     -0.787444    18A     -0.729762
      19A     -0.658074    20A     -0.653080    21A     -0.625259
      22A     -0.621273    23A     -0.606798    24A     -0.588329
      25A     -0.569231    26A     -0.557412    27A     -0.533061
      28A     -0.528226    29A     -0.516464    30A     -0.490799
      31A     -0.485339    32A     -0.478124    33A     -0.465049
      34A     -0.453392    35A     -0.449331    36A     -0.399299

  @DF-RHF Final Energy:  -387.13128904506112

   => Energetics <=

    Nuclear Repulsion Energy =            440.6739217889914357
    One-Electron Energy =               -1397.9319432185709502
    Two-Electron Energy =                 570.1267323845164583
    DFT Exchange-Correlation Energy =       0.0000000000000000
    Empirical Dispersion Energy =           0.0000000000000000
    PCM Polarization Energy =               0.0000000000000000
    EFP Energy =                            0.0000000000000000
    Total Energy =                       -387.1312890450629993

  Mulliken Charges: (a.u.)
   Center  Symbol    Alpha    Beta     Spin     Total
       1     O     4.26114  4.26114  0.00000 -0.52228
       2     C     2.73570  2.73570  0.00000  0.52861
       3     C     3.21084  3.21084  0.00000 -0.42168
       4     C     3.28663  3.28663  0.00000 -0.57327
       5     C     3.14843  3.14843  0.00000 -0.29686
       6     H     0.41005  0.41005  0.00000  0.17990
       7     H     0.41010  0.41010  0.00000  0.17981
       8     C     3.15582  3.15582  0.00000 -0.31164
       9     H     0.41208  0.41208  0.00000  0.17583
      10     H     0.41212  0.41212  0.00000  0.17575
      11     C     3.15445  3.15445  0.00000 -0.30889
      12     H     0.42422  0.42422  0.00000  0.15156
      13     H     0.42477  0.42477  0.00000  0.15046
      14     C     3.15471  3.15471  0.00000 -0.30943
      15     H     0.41990  0.41990  0.00000  0.16020
      16     H     0.41988  0.41988  0.00000  0.16025
      17     C     3.24008  3.24008  0.00000 -0.48015
      18     H     0.42006  0.42006  0.00000  0.15987
      19     H     0.42144  0.42144  0.00000  0.15712
      20     H     0.42069  0.42069  0.00000  0.15862
      21     H     0.42041  0.42041  0.00000  0.15919
      22     H     0.42256  0.42256  0.00000  0.15488
      23     H     0.40875  0.40875  0.00000  0.18250
      24     H     0.39646  0.39646  0.00000  0.20707
      25     H     0.40871  0.40871  0.00000  0.18258

   Total alpha = 36.00000, Total beta = 36.00000, Total charge = -0.00000
