  ==> Input File <==

--------------------------------------------------------------------------
set {
	reference rhf
	basis 6-31G*
}

set_num_threads( 4 )
memory 2 gb

molecule MOL {
0 1

H	 -1.641753	 -1.508945	 -0.102345
O	 -2.310168	 -0.871793	 -0.309793
C	 -2.026376	 0.340750	 0.341611
C	 -0.673256	 0.843270	 -0.132153
H	 -2.792215	 1.080697	 0.115987
H	 -2.013526	 0.200402	 1.421792
C	 0.486613	 -0.083066	 0.235839
H	 -0.715586	 0.970948	 -1.210718
H	 -0.508072	 1.829858	 0.297090
C	 1.840406	 0.433480	 -0.254303
H	 0.300215	 -1.068318	 -0.178947
H	 0.519509	 -0.203625	 1.318070
C	 3.000220	 -0.489290	 0.118523
H	 1.809207	 0.553576	 -1.335192
H	 2.021860	 1.424500	 0.157276
H	 2.864959	 -1.479103	 -0.307933
H	 3.946603	 -0.099227	 -0.243630
H	 3.080049	 -0.602997	 1.196117

	symmetry c1
}
set optking {
	frozen_dihedral = ("
		1 2 3 4
	")
}

ee = optimize('scf')
oeprop('DIPOLE', 'QUADRUPOLE', 'MULLIKEN_CHARGES')
f=open( 'psi4out.xyz', 'w' )
f.write( "18  " )
f.write( str(ee) + "\n" )
f.write( MOL.save_string_xyz() )
f.close()
--------------------------------------------------------------------------

    Molecular point group: c1
  Charge       = 0
  Multiplicity = 1
  Basis Set: 6-31G*
  Basis Set:
  @DF-RHF Final Energy:  -271.17662319949807
    Total Energy =                       -271.1766231994979535
    Molecular point group: c1
  Basis Set: 6-31G*
  Basis Set:
  Basis Set: 6-31G*
  Basis Set:
  @DF-RHF Final Energy:  -271.17837633160445
    Total Energy =                       -271.1783763316045111
  Basis Set: 6-31G*
  Basis Set:
  Basis Set: 6-31G*
  Basis Set:
  @DF-RHF Final Energy:  -271.17911475119985
    Total Energy =                       -271.1791147512000180
  Basis Set: 6-31G*
  Basis Set:
  Basis Set: 6-31G*
  Basis Set:
  @DF-RHF Final Energy:  -271.17913680620472
    Total Energy =                       -271.1791368062047809
  Basis Set: 6-31G*
  Basis Set:
  Basis Set: 6-31G*
  Basis Set:
  @DF-RHF Final Energy:  -271.17914912422225
    Total Energy =                       -271.1791491242221355
  Basis Set: 6-31G*
  Basis Set:
  Basis Set: 6-31G*
  Basis Set:
  @DF-RHF Final Energy:  -271.17915191673086
    Total Energy =                       -271.1791519167306888
  Basis Set: 6-31G*
  Basis Set:
  Charge       = 0
  Multiplicity = 1
  Basis Set: 6-31G*
  Basis Set:

    Orbital Energies (a.u.)
    -----------------------

    Doubly Occupied:

       1A    -20.551807     2A    -11.267100     3A    -11.223596
       4A    -11.221340     5A    -11.217801     6A    -11.213284
       7A     -1.358965     8A     -1.084591     9A     -1.013451
      10A     -0.922877    11A     -0.831405    12A     -0.794784
      13A     -0.689857    14A     -0.651240    15A     -0.617452
      16A     -0.607196    17A     -0.576654    18A     -0.564990
      19A     -0.527895    20A     -0.511771    21A     -0.494399
      22A     -0.477299    23A     -0.471542    24A     -0.453431
      25A     -0.427149

  @DF-RHF Final Energy:  -271.17915262691076

   => Energetics <=

    Nuclear Repulsion Energy =            248.7240918111390613
    One-Electron Energy =                -860.2627301893400045
    Two-Electron Energy =                 340.3594857512903218
    DFT Exchange-Correlation Energy =       0.0000000000000000
    Empirical Dispersion Energy =           0.0000000000000000
    PCM Polarization Energy =               0.0000000000000000
    EFP Energy =                            0.0000000000000000
    Total Energy =                       -271.1791526269106498
    Molecular point group: c1
  Basis Set: 6-31G*
  Basis Set:

  -Total Gradient:
     Atom            X                  Y                   Z
    ------   -----------------  -----------------  -----------------
       1        0.000619780672     0.000249151284    -0.001048652674
       2       -0.000605248018    -0.000582064574     0.001488298791
       3       -0.000369622061     0.000648446245    -0.001035639069
       4        0.000335847015    -0.000353051264     0.000570799202
       5        0.000044580882     0.000034723579     0.000009020245
       6        0.000010260763     0.000028577240     0.000012296272
       7       -0.000021898220    -0.000060148793     0.000005457283
       8        0.000016998803     0.000003934346    -0.000005503799
       9       -0.000027113954     0.000012270074     0.000002582704
      10       -0.000005671961     0.000005270076    -0.000021747082
      11       -0.000003383681     0.000000253126     0.000000489349
      12        0.000015008536     0.000000407384     0.000021464528
      13       -0.000013472399     0.000007197830     0.000014638652
      14        0.000005074988    -0.000004061867    -0.000007248445
      15        0.000008135941     0.000001252480    -0.000007964073
      16        0.000000451314     0.000005947647    -0.000006586757
      17       -0.000007371139     0.000008301838     0.000005769481
      18       -0.000002357482    -0.000006406651     0.000002525393

  **** Optimization is complete! (in 7 steps) ****
    Final optimized geometry and variables:
    Molecular point group: c1

    Geometry (in Angstrom), charge = 0, multiplicity = 1:

    H           -1.812495141216    -1.544797948827    -0.049062142293
    O           -2.440702003758    -0.864823656817    -0.244871728122
    C           -2.026404740226     0.345047329601     0.334811547799
    C           -0.668399677169     0.827521610021    -0.164442592302
    H           -2.789652833347     1.068001839534     0.078289829343
    H           -2.012239506282     0.260219422024     1.421198945531
    C            0.498077133778    -0.093025766692     0.203412967007
    H           -0.715904491703     0.944319911560    -1.244146964763
    H           -0.488345085628     1.816410241714     0.253362575344
    C            1.855748508262     0.450982235632    -0.245655107277
    H            0.352814730061    -1.073413197232    -0.247730397625
    H            0.512712383892    -0.247252146945     1.281844894262
    C            3.018537961075    -0.472721793137     0.114396812510
    H            1.839775191800     0.610152178132    -1.321401096179
    H            2.016970076719     1.427573132606     0.205334744134
    H            2.905344723450    -1.446742433625    -0.353243470657
    H            3.966043667927    -0.057173600107    -0.213886349413
    H            3.079449742947    -0.627004807941     1.188044169432

  Mulliken Charges: (a.u.)
   Center  Symbol    Alpha    Beta     Spin     Total
       1     H     0.27942  0.27942  0.00000  0.44117
       2     O     4.37230  4.37230  0.00000 -0.74460
       3     C     2.99331  2.99331  0.00000  0.01338
       4     C     3.16564  3.16564  0.00000 -0.33127
       5     H     0.41451  0.41451  0.00000  0.17098
       6     H     0.43220  0.43220  0.00000  0.13560
       7     C     3.16093  3.16093  0.00000 -0.32187
       8     H     0.41479  0.41479  0.00000  0.17042
       9     H     0.42277  0.42277  0.00000  0.15446
      10     C     3.15041  3.15041  0.00000 -0.30083
      11     H     0.42814  0.42814  0.00000  0.14372
      12     H     0.42296  0.42296  0.00000  0.15408
      13     C     3.23987  3.23987  0.00000 -0.47974
      14     H     0.42039  0.42039  0.00000  0.15921
      15     H     0.42165  0.42165  0.00000  0.15670
      16     H     0.42139  0.42139  0.00000  0.15722
      17     H     0.41785  0.41785  0.00000  0.16430
      18     H     0.42146  0.42146  0.00000  0.15708

   Total alpha = 25.00000, Total beta = 25.00000, Total charge =  0.00000
