  ==> Input File <==

--------------------------------------------------------------------------
set {
	reference rhf
	basis 6-31G*
}

set_num_threads( 4 )
memory 2 gb

molecule MOL {
0 1

H	 -0.232351	 -2.656523	 -4.359724
C	 0.193212	 -2.225670	 -3.471843
C	 -0.254919	 -2.614922	 -2.214113
C	 1.192108	 -1.278254	 -3.561640
H	 -1.032893	 -3.352237	 -2.124939
C	 0.288376	 -2.064663	 -1.073393
H	 1.551249	 -0.965018	 -4.525997
C	 1.750869	 -0.713262	 -2.420137
H	 -0.048400	 -2.356242	 -0.095948
C	 1.296871	 -1.108364	 -1.171594
H	 2.526075	 0.021022	 -2.522851
O	 1.765256	 -0.628444	 0.000000
C	 2.778419	 0.335181	 0.000000
H	 2.731280	 0.961222	 -0.884976
H	 3.711703	 -0.207767	 0.000000
H	 2.731280	 0.961222	 0.884976

	symmetry c1
}
set optking {
	frozen_dihedral = ("
		10 12 13 14
	")
}

ee = optimize('scf')
oeprop('DIPOLE', 'QUADRUPOLE', 'MULLIKEN_CHARGES')
f=open( 'psi4out.xyz', 'w' )
f.write( "16  " )
f.write( str(ee) + "\n" )
f.write( MOL.save_string_xyz() )
f.close()
--------------------------------------------------------------------------

    Molecular point group: c1
  Charge       = 0
  Multiplicity = 1
  Basis Set: 6-31G*
  Basis Set:
  @DF-RHF Final Energy:  -344.57744055559169
    Total Energy =                       -344.5774405555918634
    Molecular point group: c1
  Basis Set: 6-31G*
  Basis Set:
  Basis Set: 6-31G*
  Basis Set:
  @DF-RHF Final Energy:  -344.57889316398467
    Total Energy =                       -344.5788931639846169
  Basis Set: 6-31G*
  Basis Set:
  Basis Set: 6-31G*
  Basis Set:
  @DF-RHF Final Energy:  -344.58048330944058
    Total Energy =                       -344.5804833094406376
  Basis Set: 6-31G*
  Basis Set:
  Basis Set: 6-31G*
  Basis Set:
  @DF-RHF Final Energy:  -344.58081190091633
    Total Energy =                       -344.5808119009165011
  Basis Set: 6-31G*
  Basis Set:
  Basis Set: 6-31G*
  Basis Set:
  @DF-RHF Final Energy:  -344.58087128191175
    Total Energy =                       -344.5808712819119819
  Basis Set: 6-31G*
  Basis Set:
  Basis Set: 6-31G*
  Basis Set:
  @DF-RHF Final Energy:  -344.58087524612466
    Total Energy =                       -344.5808752461247195
  Basis Set: 6-31G*
  Basis Set:
  Charge       = 0
  Multiplicity = 1
  Basis Set: 6-31G*
  Basis Set:

    Orbital Energies (a.u.)
    -----------------------

    Doubly Occupied:

       1A    -20.581556     2A    -11.293046     3A    -11.279183
       4A    -11.233036     5A    -11.231470     6A    -11.224147
       7A    -11.220135     8A    -11.219569     9A     -1.410398
      10A     -1.145908    11A     -1.020811    12A     -1.012919
      13A     -0.940344    14A     -0.831041    15A     -0.804791
      16A     -0.719979    17A     -0.663997    18A     -0.661611
      19A     -0.651852    20A     -0.615890    21A     -0.588140
      22A     -0.578836    23A     -0.524661    24A     -0.516577
      25A     -0.508300    26A     -0.478488    27A     -0.455551
      28A     -0.334514    29A     -0.306486

  @DF-RHF Final Energy:  -344.58087689056515

   => Energetics <=

    Nuclear Repulsion Energy =            347.9191632767871170
    One-Electron Energy =               -1156.8936031754496980
    Two-Electron Energy =                 464.3935630080974875
    DFT Exchange-Correlation Energy =       0.0000000000000000
    Empirical Dispersion Energy =           0.0000000000000000
    PCM Polarization Energy =               0.0000000000000000
    EFP Energy =                            0.0000000000000000
    Total Energy =                       -344.5808768905650936
    Molecular point group: c1
  Basis Set: 6-31G*
  Basis Set:

  -Total Gradient:
     Atom            X                  Y                   Z
    ------   -----------------  -----------------  -----------------
       1       -0.000011886902    -0.000029353030     0.000009607034
       2        0.000108228668     0.000105312364    -0.000080501255
       3       -0.000011129042     0.000020034594     0.000190112469
       4       -0.000108509298    -0.000067727467    -0.000059547750
       5        0.000000282184     0.000003823192    -0.000015454914
       6       -0.000069041681    -0.000111508012    -0.000083445276
       7        0.000017237934     0.000002458411     0.000019920049
       8       -0.000007025712    -0.000027212857     0.000144782797
       9       -0.000003580577     0.000001469151     0.000012887587
      10       -0.002127176738     0.001438140746     0.000447652878
      11        0.000016421916     0.000014819050     0.000000913511
      12        0.003873332169    -0.002317197562    -0.001494712061
      13       -0.003540480239     0.002130659625     0.002985363099
      14        0.001902920684    -0.001101494412    -0.002127105402
      15       -0.000038985627    -0.000073084274     0.000020640842
      16       -0.000000607741     0.000010860481     0.000028886388

  **** Optimization is complete! (in 7 steps) ****
    Final optimized geometry and variables:
    Molecular point group: c1

    Geometry (in Angstrom), charge = 0, multiplicity = 1:

    H           -1.571059971822    -1.272015907193    -2.670686226009
    C           -1.079441402986    -0.900967255143    -1.789852546411
    C           -1.530767577256    -1.263414170006    -0.526370170135
    C            0.011400532627    -0.060904141322    -1.897180262674
    H           -2.378203453532    -1.918129884842    -0.425919811942
    C           -0.905529618023    -0.786274970336     0.607118962451
    H            0.379012534624     0.222854338833    -2.867411692976
    C            0.654832574664     0.422433804630    -0.764476084809
    H           -1.246041829230    -1.054991052323     1.589791117992
    C            0.189690798645     0.064211946565     0.491345298152
    H            1.513802208308     1.057631465859    -0.871873909527
    O            0.761273083639     0.465159775567     1.648213894043
    C            1.496290293586     1.658078072440     1.690790624900
    H            1.125844481676     2.381760261272     0.974976489837
    H            2.544314882661     1.470460771221     1.479492031125
    H            1.404260552822     2.051283051281     2.692854570399

  Mulliken Charges: (a.u.)
   Center  Symbol    Alpha    Beta     Spin     Total
       1     H     0.40109  0.40109  0.00000  0.19782
       2     C     3.11144  3.11144  0.00000 -0.22288
       3     C     3.09249  3.09249  0.00000 -0.18498
       4     C     3.09171  3.09171  0.00000 -0.18343
       5     H     0.39875  0.39875  0.00000  0.20251
       6     C     3.12517  3.12517  0.00000 -0.25034
       7     H     0.39948  0.39948  0.00000  0.20103
       8     C     3.14038  3.14038  0.00000 -0.28077
       9     H     0.39308  0.39308  0.00000  0.21385
      10     C     2.78534  2.78534  0.00000  0.42932
      11     H     0.39746  0.39746  0.00000  0.20507
      12     O     4.32849  4.32849  0.00000 -0.65697
      13     C     3.08937  3.08937  0.00000 -0.17874
      14     H     0.41936  0.41936  0.00000  0.16128
      15     H     0.41938  0.41938  0.00000  0.16124
      16     H     0.40701  0.40701  0.00000  0.18599

   Total alpha = 29.00000, Total beta = 29.00000, Total charge =  0.00000
