                              Psi4 1.0.54 Driver

  ==> Input File <==

--------------------------------------------------------------------------
set {
	reference rhf
	basis cc-pvtz
}

set_num_threads( 4 )
memory 2 gb

molecule MOL {
0 1

H	 2.614283	 2.028610	 0.296620
O	 3.358864	 1.662087	 -0.142800
C	 3.565468	 0.338079	 0.273842
C	 4.758185	 -0.329017	 -0.394810
H	 3.729875	 0.386743	 1.341823
H	 2.667184	 -0.254918	 0.112932
C	 4.600764	 -0.532164	 -1.900067
H	 5.643523	 0.267760	 -0.196843
H	 4.913581	 -1.292913	 0.083889
C	 5.802767	 -1.233791	 -2.530737
H	 4.452384	 0.430305	 -2.378231
H	 3.704054	 -1.118831	 -2.092470
C	 5.667349	 -1.529711	 -4.025511
H	 6.694333	 -0.634467	 -2.362963
H	 5.967427	 -2.172291	 -2.008652
C	 5.639557	 -0.297877	 -4.928592
H	 6.500888	 -2.158894	 -4.325295
H	 4.769161	 -2.119580	 -4.194238
C	 5.603826	 -0.647087	 -6.414252
H	 6.516050	 0.313939	 -4.726334
H	 4.777293	 0.318650	 -4.693226
C	 5.572227	 0.580494	 -7.318652
H	 6.470891	 -1.253576	 -6.661123
H	 4.733274	 -1.265407	 -6.616446
H	 6.446750	 1.203644	 -7.163311
H	 5.550022	 0.297507	 -8.364851
H	 4.695662	 1.189191	 -7.122503

	symmetry c1
}
set optking {
	frozen_dihedral = ("
		4 3 2 1
	")
}

ee,wfn = optimize('scf', return_wfn=True)
oeprop( wfn, 'DIPOLE', 'QUADRUPOLE', 'MULLIKEN_CHARGES')
f=open( 'psi4out.xyz', 'w' )
f.write( "27  " )
f.write( str(ee) + "\n" )
f.write( MOL.save_string_xyz() )
f.close()
--------------------------------------------------------------------------

    Molecular point group: c1
  Charge       = 0
  Multiplicity = 1
  Basis Set: CC-PVTZ
  Basis Set:
  @DF-RHF Final Energy:  -388.42675030055216
    Total Energy =                       -388.4267503005520439
    Molecular point group: c1
  Basis Set: CC-PVTZ
  Basis Set:
  Basis Set: CC-PVTZ
  Basis Set:
  @DF-RHF Final Energy:  -388.34447971316661
    Total Energy =                       -388.3444797131662654
  Basis Set: CC-PVTZ
  Basis Set:
  Basis Set: CC-PVTZ
  Basis Set:
  @DF-RHF Final Energy:  -388.41856277796427
    Total Energy =                       -388.4185627779645529
  Basis Set: CC-PVTZ
  Basis Set:
  Basis Set: CC-PVTZ
  Basis Set:
  @DF-RHF Final Energy:  -388.42834948144559
    Total Energy =                       -388.4283494814457072
  Basis Set: CC-PVTZ
  Basis Set:
  Basis Set: CC-PVTZ
  Basis Set:
  @DF-RHF Final Energy:  -388.42852647596123
    Total Energy =                       -388.4285264759610072
  Basis Set: CC-PVTZ
  Basis Set:
  Basis Set: CC-PVTZ
  Basis Set:
  @DF-RHF Final Energy:  -388.42857514622114
    Total Energy =                       -388.4285751462211920
  Basis Set: CC-PVTZ
  Basis Set:
  Charge       = 0
  Multiplicity = 1
  Basis Set: CC-PVTZ
  Basis Set:

    Orbital Energies (a.u.)
    -----------------------

    Doubly Occupied:

       1A    -20.546315     2A    -11.265763     3A    -11.210149
       4A    -11.208579     5A    -11.207074     6A    -11.206468
       7A    -11.204976     8A    -11.204094     9A    -11.202584
      10A     -1.364093    11A     -1.089243    12A     -1.057490
      13A     -1.008902    14A     -0.943876    15A     -0.880043
      16A     -0.811278    17A     -0.794489    18A     -0.771399
      19A     -0.708251    20A     -0.645221    21A     -0.637807
      22A     -0.618148    23A     -0.588725    24A     -0.579778
      25A     -0.572278    26A     -0.547978    27A     -0.537439
      28A     -0.516541    29A     -0.507187    30A     -0.492476
      31A     -0.476858    32A     -0.472824    33A     -0.460118
      34A     -0.453275    35A     -0.442719    36A     -0.439952
      37A     -0.426601

  @DF-RHF Final Energy:  -388.42857492806951

   => Energetics <=

    Nuclear Repulsion Energy =            460.4925973368747805
    One-Electron Energy =               -1439.6403614055129765
    Two-Electron Energy =                 590.7191891405684601
    DFT Exchange-Correlation Energy =       0.0000000000000000
    Empirical Dispersion Energy =           0.0000000000000000
    PCM Polarization Energy =               0.0000000000000000
    EFP Energy =                            0.0000000000000000
    Total Energy =                       -388.4285749280697928
    Molecular point group: c1
  Basis Set: CC-PVTZ
  Basis Set:

  -Total Gradient:
     Atom            X                  Y                   Z
    ------   -----------------  -----------------  -----------------
       1        0.000028975163     0.000029159765     0.000130428221
       2        0.000031914314    -0.000045187420    -0.000107826011
       3       -0.000100697376    -0.000152976604    -0.000098198937
       4        0.000016989314     0.000095784559     0.000037514232
       5       -0.000001455698     0.000016706277     0.000000757395
       6        0.000007068096     0.000040745001    -0.000006035192
       7       -0.000020809832     0.000041042366    -0.000003771017
       8        0.000012617744     0.000028216994    -0.000005879737
       9        0.000042956116    -0.000029751668     0.000041644399
      10       -0.000030305455     0.000028886461     0.000031063422
      11        0.000040591474    -0.000031427144     0.000061704455
      12       -0.000015256387     0.000005872078    -0.000027109725
      13       -0.000091894066    -0.000011587348     0.000021860594
      14       -0.000030699195     0.000022157858     0.000003582601
      15        0.000058582535     0.000003151865    -0.000000386011
      16       -0.000011799454    -0.000001616342    -0.000005755069
      17        0.000035111261    -0.000043498263    -0.000015168729
      18       -0.000033405556    -0.000019636616    -0.000003401963
      19        0.000027919607     0.000007643598    -0.000002739721
      20       -0.000010575441     0.000012388212     0.000008704565
      21        0.000012452080     0.000004997513    -0.000043196267
      22        0.000038899733    -0.000000650631    -0.000009652308
      23        0.000030489845    -0.000016991251    -0.000032007058
      24        0.000003358217     0.000002209943     0.000011428451
      25       -0.000003312294     0.000009590101     0.000012522533
      26       -0.000011687780    -0.000006848285    -0.000010137064
      27       -0.000026026963     0.000011618980     0.000010053948

  **** Optimization is complete! (in 7 steps) ****
    Final optimized geometry and variables:
    Molecular point group: c1

    Geometry (in Angstrom), charge = 0, multiplicity = 1:

    H           -2.351758893704     0.511023436159     3.769812542532
    O           -1.580834069528     0.482165769399     3.234241206106
    C           -0.943212582552    -0.761481719173     3.371442000315
    C            0.296190150411    -0.781857055273     2.498051051306
    H           -0.659883127807    -0.926946419617     4.407802933282
    H           -1.615189743231    -1.566602120296     3.080775704232
    C           -0.001035613790    -0.687689909357     1.003774641251
    H            0.939043403740     0.040261844107     2.798012229822
    H            0.839989333563    -1.699541036377     2.707271318424
    C            1.266570265430    -0.695234808573     0.151535692511
    H           -0.575269689549     0.210431733610     0.818506491862
    H           -0.631674493143    -1.525598803788     0.712637506213
    C            1.026186352964    -0.699267593441    -1.359341857497
    H            1.879629144025     0.163967777506     0.413694097664
    H            1.853871059833    -1.573523127770     0.407188014771
    C            0.400454448407     0.578261041541    -1.915918493713
    H            1.978099822360    -0.863339523060    -1.857403962655
    H            0.399550690177    -1.549375789767    -1.619974288005
    C            0.266675453932     0.564772140100    -3.436474902710
    H            1.005988308247     1.431625445086    -1.618326135787
    H           -0.580443622909     0.734359392280    -1.478200901551
    C           -0.358991853241     1.838530286894    -3.995080664479
    H            1.247044297006     0.420067020665    -3.882467597471
    H           -0.332335244454    -0.291120506577    -3.736019543578
    H            0.235052978851     2.710191252692    -3.740896880328
    H           -0.438866986254     1.796753519798    -5.075469676048
    H           -1.355954470490     1.992657342749    -3.595604383475

  Mulliken Charges: (a.u.)
   Center  Symbol    Alpha    Beta     Spin     Total
       1     H     0.39600  0.39600  0.00000  0.20801
       2     O     4.19775  4.19775  0.00000 -0.39551
       3     C     2.97406  2.97406  0.00000  0.05188
       4     C     3.09214  3.09214  0.00000 -0.18429
       5     H     0.46514  0.46514  0.00000  0.06972
       6     H     0.47366  0.47366  0.00000  0.05267
       7     C     3.09233  3.09233  0.00000 -0.18465
       8     H     0.45205  0.45205  0.00000  0.09589
       9     H     0.45353  0.45353  0.00000  0.09294
      10     C     3.09895  3.09895  0.00000 -0.19789
      11     H     0.44153  0.44153  0.00000  0.11693
      12     H     0.45896  0.45896  0.00000  0.08208
      13     C     3.09767  3.09767  0.00000 -0.19534
      14     H     0.45327  0.45327  0.00000  0.09345
      15     H     0.45036  0.45036  0.00000  0.09927
      16     C     3.08766  3.08766  0.00000 -0.17531
      17     H     0.44942  0.44942  0.00000  0.10116
      18     H     0.45474  0.45474  0.00000  0.09051
      19     C     3.08379  3.08379  0.00000 -0.16757
      20     H     0.45522  0.45522  0.00000  0.08956
      21     H     0.45218  0.45218  0.00000  0.09563
      22     C     3.14969  3.14969  0.00000 -0.29937
      23     H     0.45479  0.45479  0.00000  0.09043
      24     H     0.45529  0.45529  0.00000  0.08942
      25     H     0.45531  0.45531  0.00000  0.08938
      26     H     0.44923  0.44923  0.00000  0.10154
      27     H     0.45527  0.45527  0.00000  0.08946

   Total alpha = 37.00000, Total beta = 37.00000, Total charge = -0.00000

*** Psi4 exiting successfully. Buy a developer a beer!
