  ==> Input File <==

--------------------------------------------------------------------------
set {
	reference rhf
	basis 6-31G*
}

set_num_threads( 4 )
memory 2 gb

molecule MOL {
0 1

H	 2.334800	 4.457286	 1.920440
C	 2.447602	 3.803067	 2.793879
C	 1.239024	 2.963758	 3.121764
O	 3.466663	 3.792829	 3.404749
C	 0.731756	 2.164856	 1.913173
H	 1.488867	 2.314103	 3.952568
H	 0.456989	 3.645300	 3.454296
C	 1.704201	 1.077850	 1.448341
H	 -0.218771	 1.710162	 2.175923
H	 0.523523	 2.847339	 1.090609
C	 1.180775	 0.282413	 0.250794
H	 1.902342	 0.399983	 2.276038
H	 2.662137	 1.525424	 1.190317
C	 2.148627	 -0.814315	 -0.201312
H	 0.219436	 -0.153478	 0.510714
H	 0.994727	 0.961968	 -0.579854
C	 3.580890	 -0.659131	 0.322722
H	 2.166869	 -0.852443	 -1.289387
H	 1.762857	 -1.776509	 0.128956
C	 4.324889	 0.564933	 -0.213704
H	 4.142010	 -1.551473	 0.056605
H	 3.564836	 -0.624694	 1.410140
H	 4.342616	 0.565491	 -1.300421
H	 3.866655	 1.493402	 0.110242
H	 5.353900	 0.572371	 0.132816

	symmetry c1
}
set optking {
	frozen_dihedral = ("
		8 11 14 18
	")
}

ee = optimize('scf')
oeprop('DIPOLE', 'QUADRUPOLE', 'MULLIKEN_CHARGES')
f=open( 'psi4out.xyz', 'w' )
f.write( "25  " )
f.write( str(ee) + "\n" )
f.write( MOL.save_string_xyz() )
f.close()
--------------------------------------------------------------------------

    Molecular point group: c1
  Charge       = 0
  Multiplicity = 1
  Basis Set: 6-31G*
  Basis Set:
  @DF-RHF Final Energy:  -387.10319960514397
    Total Energy =                       -387.1031996051443684
    Molecular point group: c1
  Basis Set: 6-31G*
  Basis Set:
  Basis Set: 6-31G*
  Basis Set:
  @DF-RHF Final Energy:  -387.11107294165237
    Total Energy =                       -387.1110729416529921
  Basis Set: 6-31G*
  Basis Set:
  Basis Set: 6-31G*
  Basis Set:
  @DF-RHF Final Energy:  -387.11256875676480
    Total Energy =                       -387.1125687567650857
  Basis Set: 6-31G*
  Basis Set:
  Basis Set: 6-31G*
  Basis Set:
  @DF-RHF Final Energy:  -387.11185369740383
    Total Energy =                       -387.1118536974040580
  Basis Set: 6-31G*
  Basis Set:
  @DF-RHF Final Energy:  -387.11210260906580
    Total Energy =                       -387.1121026090654595
  @DF-RHF Final Energy:  -387.11284871568199
    Total Energy =                       -387.1128487156818210
  @DF-RHF Final Energy:  -387.11291949655930
    Total Energy =                       -387.1129194965599254
  Basis Set: 6-31G*
  Basis Set:
  @DF-RHF Final Energy:  -387.11292524288456
    Total Energy =                       -387.1129252428846712
  Basis Set: 6-31G*
  Basis Set:
  Basis Set: 6-31G*
  Basis Set:
  @DF-RHF Final Energy:  -387.11291431079445
    Total Energy =                       -387.1129143107947357
  Basis Set: 6-31G*
  Basis Set:
  Basis Set: 6-31G*
  Basis Set:
  @DF-RHF Final Energy:  -387.11293098288246
    Total Energy =                       -387.1129309828822898
  Basis Set: 6-31G*
  Basis Set:
  Charge       = 0
  Multiplicity = 1
  Basis Set: 6-31G*
  Basis Set:

    Orbital Energies (a.u.)
    -----------------------

    Doubly Occupied:

       1A    -20.562291     2A    -11.326375     3A    -11.235407
       4A    -11.234742     5A    -11.223571     6A    -11.220821
       7A    -11.217546     8A    -11.215867     9A    -11.209077
      10A     -1.402208    11A     -1.102843    12A     -1.066358
      13A     -1.009368    14A     -0.944774    15A     -0.873722
      16A     -0.830990    17A     -0.789050    18A     -0.766694
      19A     -0.665760    20A     -0.661565    21A     -0.630898
      22A     -0.625405    23A     -0.609350    24A     -0.591433
      25A     -0.561153    26A     -0.558833    27A     -0.537427
      28A     -0.519005    29A     -0.513501    30A     -0.499762
      31A     -0.489340    32A     -0.481549    33A     -0.452498
      34A     -0.449688    35A     -0.445836    36A     -0.409735

  @DF-RHF Final Energy:  -387.11293133461834

   => Energetics <=

    Nuclear Repulsion Energy =            452.0789406502155998
    One-Electron Energy =               -1420.5148564283713313
    Two-Electron Energy =                 581.3229844435369387
    DFT Exchange-Correlation Energy =       0.0000000000000000
    Empirical Dispersion Energy =           0.0000000000000000
    PCM Polarization Energy =               0.0000000000000000
    EFP Energy =                            0.0000000000000000
    Total Energy =                       -387.1129313346187928
    Molecular point group: c1
  Basis Set: 6-31G*
  Basis Set:

  -Total Gradient:
     Atom            X                  Y                   Z
    ------   -----------------  -----------------  -----------------
       1       -0.000000591085    -0.000001242897    -0.000002201501
       2       -0.000006341441     0.000009591525     0.000000844027
       3        0.000001231608    -0.000000964955    -0.000000606259
       4       -0.000001394839    -0.000003707723     0.000002101923
       5        0.000002651130     0.000005530610    -0.000000113458
       6        0.000002195643    -0.000001159901     0.000000041945
       7        0.000001826332     0.000001712877     0.000002132812
       8        0.002551445567     0.003524983860    -0.003263829694
       9        0.000001465179     0.000003194891     0.000002032341
      10        0.000001370891    -0.000000588205    -0.000001293680
      11       -0.002525848032    -0.004174968039     0.004767554282
      12       -0.000006256828     0.000004579520    -0.000003222469
      13        0.000045823145    -0.000000673171    -0.000019937742
      14       -0.005639993226    -0.003901167358    -0.001652010994
      15        0.000002284611    -0.000004149239     0.000004915895
      16       -0.000003415055     0.000008748511     0.000011535847
      17        0.000005432376    -0.000007201513     0.000014636636
      18        0.005597365537     0.004534408004     0.000119264981
      19        0.000018415006    -0.000002023035    -0.000003218517
      20       -0.000016721529    -0.000010178753    -0.000002904159
      21       -0.000006739502    -0.000006955658     0.000006352438
      22        0.000000897959     0.000015084663     0.000000771984
      23        0.000002934935    -0.000003328162    -0.000002063031
      24       -0.000021238300     0.000015022768     0.000017932822
      25       -0.000006800081    -0.000004548625     0.000001283561

  **** Optimization is complete! (in 11 steps) ****
    Final optimized geometry and variables:
    Molecular point group: c1

    Geometry (in Angstrom), charge = 0, multiplicity = 1:

    H           -0.112955908564     3.064941171678     0.612898358122
    C           -0.024233332250     2.400341802996     1.481407400877
    C           -1.223465822296     1.523693477837     1.737918701136
    O            0.962466511462     2.411841363850     2.143390673468
    C           -1.636020396352     0.714539827963     0.500082104923
    H           -1.001444192591     0.878179414284     2.579812912747
    H           -2.043861482456     2.179444544737     2.026677458060
    C           -0.607531524315    -0.345215579783     0.093488788221
    H           -2.588714159626     0.234932181741     0.704544716187
    H           -1.812227497665     1.393670890403    -0.332570117783
    C           -1.063766032297    -1.138454255014    -1.135601300450
    H           -0.446804722650    -1.015187656554     0.935453452953
    H            0.347593912779     0.131460068492    -0.099674247188
    C           -0.133288271756    -2.273635936135    -1.640149107791
    H           -2.045067441806    -1.559858938147    -0.934554937019
    H           -1.214875600831    -0.425155710386    -1.943048032760
    C            1.345148488329    -2.219021550562    -1.217271153061
    H           -0.128453360453    -2.250948316434    -2.726676016252
    H           -0.542084708609    -3.231776357857    -1.335708919655
    C            2.163923584189    -1.159816210367    -1.959146187287
    H            1.785055185936    -3.191620610865    -1.423504404797
    H            1.435739135934    -2.074454646783    -0.145374371171
    H            2.166397305598    -1.356069236788    -3.027912477738
    H            1.771782297910    -0.158594975216    -1.813580039826
    H            3.195808217003    -1.158515157507    -1.622018372931

  Mulliken Charges: (a.u.)
   Center  Symbol    Alpha    Beta     Spin     Total
       1     H     0.43261  0.43261  0.00000  0.13478
       2     C     2.83107  2.83107  0.00000  0.33787
       3     C     3.20779  3.20779  0.00000 -0.41557
       4     O     4.23777  4.23777  0.00000 -0.47554
       5     C     3.16651  3.16651  0.00000 -0.33302
       6     H     0.39980  0.39980  0.00000  0.20040
       7     H     0.40670  0.40670  0.00000  0.18659
       8     C     3.15948  3.15948  0.00000 -0.31896
       9     H     0.41279  0.41279  0.00000  0.17443
      10     H     0.41979  0.41979  0.00000  0.16043
      11     C     3.15621  3.15621  0.00000 -0.31241
      12     H     0.41804  0.41804  0.00000  0.16393
      13     H     0.41480  0.41480  0.00000  0.17039
      14     C     3.15602  3.15602  0.00000 -0.31205
      15     H     0.41984  0.41984  0.00000  0.16032
      16     H     0.42247  0.42247  0.00000  0.15507
      17     C     3.15777  3.15777  0.00000 -0.31553
      18     H     0.42096  0.42096  0.00000  0.15808
      19     H     0.41919  0.41919  0.00000  0.16161
      20     C     3.24062  3.24062  0.00000 -0.48123
      21     H     0.41988  0.41988  0.00000  0.16024
      22     H     0.41857  0.41857  0.00000  0.16285
      23     H     0.42222  0.42222  0.00000  0.15557
      24     H     0.42185  0.42185  0.00000  0.15630
      25     H     0.41727  0.41727  0.00000  0.16546

   Total alpha = 36.00000, Total beta = 36.00000, Total charge =  0.00000
