  ==> Input File <==

--------------------------------------------------------------------------
set {
	reference rhf
	basis 6-31G*
}

set_num_threads( 1 )
memory 2 gb

molecule MOL {
0 1

H	 1.384172	 -1.792249	 0.840284
O	 0.711448	 -1.216678	 0.505844
C	 1.135793	 0.118896	 0.612333
C	 0.031547	 1.023609	 0.088541
H	 2.038831	 0.279348	 0.026102
H	 1.373562	 0.362499	 1.645398
C	 -1.134819	 0.293262	 -0.585751
H	 0.474374	 1.714721	 -0.623187
H	 -0.338529	 1.620940	 0.920081
C	 -1.917817	 -0.639439	 0.339494
H	 -0.758119	 -0.268455	 -1.433105
H	 -1.813832	 1.041889	 -0.986690
H	 -2.777680	 -1.057197	 -0.174994
H	 -1.310268	 -1.471279	 0.680599
H	 -2.283753	 -0.111424	 1.216626

	symmetry c1
}
set optking {
	frozen_dihedral = ("
		8 4 7 11,
		1 2 3 4
	")
}

ee = energy('scf')
oeprop('DIPOLE', 'QUADRUPOLE', 'MULLIKEN_CHARGES')
f=open( 'psi4out.xyz', 'w' )
f.write( "15  " )
f.write( str(ee) + "\n" )
f.write( MOL.save_string_xyz() )
f.close()
--------------------------------------------------------------------------

    Molecular point group: c1

    Geometry (in Angstrom), charge = 0, multiplicity = 1:

       Center              X                  Y                   Z               Mass
    ------------   -----------------  -----------------  -----------------  -----------------
           H          1.590544065962    -1.662871010390     0.628682819759     1.007825032070
           O          0.917820065962    -1.087300010390     0.294242819759    15.994914619560
           C          1.342165065962     0.248273989610     0.400731819759    12.000000000000
           C          0.237919065962     1.152986989610    -0.123060180241    12.000000000000
           H          2.245203065962     0.408725989610    -0.185499180241     1.007825032070
           H          1.579934065962     0.491876989610     1.433796819759     1.007825032070
           C         -0.928446934038     0.422639989610    -0.797352180241    12.000000000000
           H          0.680746065962     1.844098989610    -0.834788180241     1.007825032070
           H         -0.132156934038     1.750317989610     0.708479819759     1.007825032070
           C         -1.711444934038    -0.510061010390     0.127892819759    12.000000000000
           H         -0.551746934038    -0.139077010390    -1.644706180241     1.007825032070
           H         -1.607459934038     1.171266989610    -1.198291180241     1.007825032070
           H         -2.571307934038    -0.927819010390    -0.386595180241     1.007825032070
           H         -1.103895934038    -1.341901010390     0.468997819759     1.007825032070
           H         -2.077380934038     0.017953989610     1.005024819759     1.007825032070

  Charge       = 0
  Multiplicity = 1
  Basis Set: 6-31G*
  Basis Set:

    Orbital Energies (a.u.)
    -----------------------

    Doubly Occupied:

       1A    -20.554698     2A    -11.268522     3A    -11.210621
       4A    -11.204752     5A    -11.183344     6A     -1.364868
       7A     -1.057170     8A     -0.967596     9A     -0.858083
      10A     -0.771844    11A     -0.710520    12A     -0.651735
      13A     -0.606655    14A     -0.566723    15A     -0.543123
      16A     -0.528985    17A     -0.510328    18A     -0.472134
      19A     -0.460150    20A     -0.441604    21A     -0.420499

  @DF-RHF Final Energy:  -232.12864504169951

   => Energetics <=

    Nuclear Repulsion Energy =            196.5470333608651288
    One-Electron Energy =                -704.6433468629219306
    Two-Electron Energy =                 275.9676684603575723
    DFT Exchange-Correlation Energy =       0.0000000000000000
    Empirical Dispersion Energy =           0.0000000000000000
    PCM Polarization Energy =               0.0000000000000000
    EFP Energy =                            0.0000000000000000
    Total Energy =                       -232.1286450416992011

  Mulliken Charges: (a.u.)
   Center  Symbol    Alpha    Beta     Spin     Total
       1     H     0.28076  0.28076  0.00000  0.43847
       2     O     4.37135  4.37135  0.00000 -0.74271
       3     C     2.98943  2.98943  0.00000  0.02113
       4     C     3.17662  3.17662  0.00000 -0.35323
       5     H     0.43002  0.43002  0.00000  0.13997
       6     H     0.42877  0.42877  0.00000  0.14245
       7     C     3.14387  3.14387  0.00000 -0.28774
       8     H     0.41911  0.41911  0.00000  0.16178
       9     H     0.42051  0.42051  0.00000  0.15899
      10     C     3.24331  3.24331  0.00000 -0.48662
      11     H     0.41781  0.41781  0.00000  0.16437
      12     H     0.42480  0.42480  0.00000  0.15040
      13     H     0.42835  0.42835  0.00000  0.14329
      14     H     0.39345  0.39345  0.00000  0.21311
      15     H     0.43184  0.43184  0.00000  0.13632

   Total alpha = 21.00000, Total beta = 21.00000, Total charge =  0.00000
