  ==> Input File <==

--------------------------------------------------------------------------
set {
	reference rhf
	basis 6-31G*
}

set_num_threads( 1 )
memory 2 gb

molecule MOL {
0 1

H	 1.347645	 -1.546860	 -0.309906
O	 1.586534	 -0.678666	 -0.000226
C	 0.489431	 0.077273	 0.000046
C	 -0.764129	 -0.759190	 0.000191
O	 0.537743	 1.263962	 0.000257
C	 -2.038368	 0.075731	 -0.000248
H	 -0.717284	 -1.412404	 -0.866059
H	 -0.717458	 -1.411724	 0.866967
H	 -2.086483	 0.712501	 -0.875098
H	 -2.908485	 -0.571682	 -0.000042
H	 -2.086576	 0.713280	 0.874068

	symmetry c1
}
set optking {
	frozen_dihedral = ("
		2 3 4 7
	")
}

ee = energy('scf')
oeprop('DIPOLE', 'QUADRUPOLE', 'MULLIKEN_CHARGES')
f=open( 'psi4out.xyz', 'w' )
f.write( "11  " )
f.write( str(ee) + "\n" )
f.write( MOL.save_string_xyz() )
f.close()
--------------------------------------------------------------------------

    Molecular point group: c1

    Geometry (in Angstrom), charge = 0, multiplicity = 1:

       Center              X                  Y                   Z               Mass
    ------------   -----------------  -----------------  -----------------  -----------------
           H          1.361204458017    -1.527182196168    -0.305690089101     1.007825032070
           O          1.600093458017    -0.658988196168     0.003989910899    15.994914619560
           C          0.502990458017     0.096950803832     0.004261910899    12.000000000000
           C         -0.750569541983    -0.739512196168     0.004406910899    12.000000000000
           O          0.551302458017     1.283639803832     0.004472910899    15.994914619560
           C         -2.024808541983     0.095408803832     0.003967910899    12.000000000000
           H         -0.703724541983    -1.392726196168    -0.861843089101     1.007825032070
           H         -0.703898541983    -1.392046196168     0.871182910899     1.007825032070
           H         -2.072923541983     0.732178803832    -0.870882089101     1.007825032070
           H         -2.894925541983    -0.552004196168     0.004173910899     1.007825032070
           H         -2.073016541983     0.732957803832     0.878283910899     1.007825032070

  Charge       = 0
  Multiplicity = 1
  Basis Set: 6-31G*
  Basis Set:

    Orbital Energies (a.u.)
    -----------------------

    Doubly Occupied:

       1A    -20.615193     2A    -20.551556     3A    -11.382097
       4A    -11.256081     5A    -11.227458     6A     -1.472083
       7A     -1.372104     8A     -1.072213     9A     -0.911136
      10A     -0.827407    11A     -0.719517    12A     -0.671773
      13A     -0.660823    14A     -0.614979    15A     -0.593707
      16A     -0.536829    17A     -0.527972    18A     -0.514850
      19A     -0.477967    20A     -0.443119

  @DF-RHF Final Energy:  -266.83208744277931

   => Energetics <=

    Nuclear Repulsion Energy =            180.0722265163227860
    One-Electron Energy =                -720.9108844533317324
    Two-Electron Energy =                 274.0065704942295497
    DFT Exchange-Correlation Energy =       0.0000000000000000
    Empirical Dispersion Energy =           0.0000000000000000
    PCM Polarization Energy =               0.0000000000000000
    EFP Energy =                            0.0000000000000000
    Total Energy =                       -266.8320874427794251

  Mulliken Charges: (a.u.)
   Center  Symbol    Alpha    Beta     Spin     Total
       1     H     0.26799  0.26799  0.00000  0.46402
       2     O     4.34779  4.34779  0.00000 -0.69557
       3     C     2.60802  2.60802  0.00000  0.78396
       4     C     3.23695  3.23695  0.00000 -0.47390
       5     O     4.26634  4.26634  0.00000 -0.53267
       6     C     3.23780  3.23780  0.00000 -0.47560
       7     H     0.40855  0.40855  0.00000  0.18291
       8     H     0.39814  0.39814  0.00000  0.20371
       9     H     0.40638  0.40638  0.00000  0.18725
      10     H     0.41690  0.41690  0.00000  0.16620
      11     H     0.40515  0.40515  0.00000  0.18970

   Total alpha = 20.00000, Total beta = 20.00000, Total charge =  0.00000
