                              Psi4 1.0.54 Driver

  ==> Input File <==

--------------------------------------------------------------------------
set {
	reference rhf
	basis cc-pvtz
}

set_num_threads( 4 )
memory 2 gb

molecule MOL {
0 1

H	 3.889604	 0.356866	 -0.089510
N	 3.091268	 -0.241216	 -0.065538
C	 1.860978	 0.530248	 0.016256
H	 3.192566	 -0.835836	 0.730398
C	 0.644130	 -0.381765	 -0.031064
H	 1.835721	 1.204666	 -0.833114
H	 1.808789	 1.151975	 0.911067
C	 -0.678115	 0.376691	 0.025731
H	 0.693998	 -0.977147	 -0.936845
H	 0.693309	 -1.082142	 0.800523
C	 -1.597699	 0.077515	 -1.154973
H	 -0.478422	 1.445298	 0.059740
H	 -1.196281	 0.135347	 0.951004
C	 -2.915725	 0.842509	 -1.097816
H	 -1.081697	 0.317505	 -2.080412
H	 -1.801898	 -0.989217	 -1.188977
H	 -2.746531	 1.914242	 -1.097824
H	 -3.543896	 0.607551	 -1.949404
H	 -3.472157	 0.597473	 -0.199107

	symmetry c1
}
set optking {
	frozen_dihedral = ("
		12 8 5 9
	")
}

ee,wfn = optimize('scf', return_wfn=True)
oeprop( wfn, 'DIPOLE', 'QUADRUPOLE', 'MULLIKEN_CHARGES')
f=open( 'psi4out.xyz', 'w' )
f.write( "19  " )
f.write( str(ee) + "\n" )
f.write( MOL.save_string_xyz() )
f.close()
--------------------------------------------------------------------------

    Molecular point group: c1
  Charge       = 0
  Multiplicity = 1
  Basis Set: CC-PVTZ
  Basis Set:
  @DF-RHF Final Energy:  -251.44296696760708
    Total Energy =                       -251.4429669676068215
    Molecular point group: c1
  Basis Set: CC-PVTZ
  Basis Set:
  Basis Set: CC-PVTZ
  Basis Set:
  @DF-RHF Final Energy:  -251.44317132828408
    Total Energy =                       -251.4431713282841088
  Basis Set: CC-PVTZ
  Basis Set:
  Basis Set: CC-PVTZ
  Basis Set:
  @DF-RHF Final Energy:  -251.44321977780533
    Total Energy =                       -251.4432197778054388
  Basis Set: CC-PVTZ
  Basis Set:
  Charge       = 0
  Multiplicity = 1
  Basis Set: CC-PVTZ
  Basis Set:

    Orbital Energies (a.u.)
    -----------------------

    Doubly Occupied:

       1A    -15.526477     2A    -11.238560     3A    -11.211855
       4A    -11.210308     5A    -11.207424     6A    -11.205033
       7A     -1.178443     8A     -1.072306     9A     -0.998150
      10A     -0.900781    11A     -0.816953    12A     -0.788440
      13A     -0.661953    14A     -0.636637    15A     -0.625278
      16A     -0.587088    17A     -0.570552    18A     -0.549648
      19A     -0.526565    20A     -0.500362    21A     -0.483150
      22A     -0.465824    23A     -0.453119    24A     -0.450549
      25A     -0.383974

  @DF-RHF Final Energy:  -251.44322016583484

   => Energetics <=

    Nuclear Repulsion Energy =            246.6576555674002691
    One-Electron Energy =                -827.7028895428363739
    Two-Electron Energy =                 329.6020138096014307
    DFT Exchange-Correlation Energy =       0.0000000000000000
    Empirical Dispersion Energy =           0.0000000000000000
    PCM Polarization Energy =               0.0000000000000000
    EFP Energy =                            0.0000000000000000
    Total Energy =                       -251.4432201658346457
    Molecular point group: c1
  Basis Set: CC-PVTZ
  Basis Set:

  -Total Gradient:
     Atom            X                  Y                   Z
    ------   -----------------  -----------------  -----------------
       1        0.000035666370    -0.000006071898    -0.000001613559
       2        0.000059607394    -0.000018889592    -0.000030089712
       3       -0.000041202304    -0.000001514254     0.000047927270
       4       -0.000002475243     0.000007814762     0.000004158094
       5        0.000423992060     0.000891889377    -0.000324456701
       6       -0.000006369249    -0.000010456445     0.000006612547
       7       -0.000008474853     0.000004066912    -0.000008342513
       8       -0.000087777163    -0.000166393053    -0.001032004427
       9       -0.000388427685    -0.000699879844     0.000446026208
      10        0.000017326233     0.000012722113    -0.000002903109
      11       -0.000001426549     0.000016972514    -0.000006264733
      12        0.000024007710    -0.000031810267     0.000897333248
      13       -0.000003951378     0.000001815429    -0.000007968705
      14       -0.000023799038    -0.000006294743     0.000006293002
      15        0.000005712012     0.000006551648     0.000011317368
      16        0.000010167638     0.000000807580    -0.000003070527
      17        0.000001838806    -0.000008581393    -0.000000839460
      18       -0.000012155214     0.000000408948    -0.000000963460
      19       -0.000002259549     0.000006842206    -0.000001150832

  **** Optimization is complete! (in 4 steps) ****
    Final optimized geometry and variables:
    Molecular point group: c1

    Geometry (in Angstrom), charge = 0, multiplicity = 1:

    H            3.798121733124     0.150198148029     0.296598730981
    N            2.999121799337    -0.447313846064     0.313359528378
    C            1.769130465909     0.322550332141     0.397087899377
    H            3.097610294324    -1.049351031443     1.104088133067
    C            0.550936427708    -0.588363709276     0.345613131359
    H            1.741750246497     1.000405168590    -0.449940000086
    H            1.713984855831     0.941433688861     1.293907351126
    C           -0.784825596731     0.177519297358     0.395436227622
    H            0.610311693723    -1.188376320971    -0.555293403686
    H            0.606602428141    -1.290364297079     1.173001313389
    C           -1.709478215772    -0.125665735476    -0.781065738464
    H           -0.593106115989     1.247017304489     0.426775741753
    H           -1.307553492534    -0.049867160301     1.319331977515
    C           -3.028260583963     0.636796539348    -0.720758940978
    H           -1.195630902020     0.112092751173    -1.708602993121
    H           -1.910176148181    -1.193076874616    -0.811159324364
    H           -2.861142690074     1.708944758607    -0.723919367570
    H           -3.659474877174     0.398462649973    -1.569213227724
    H           -3.580556676660     0.392972036802     0.180861838792

  Mulliken Charges: (a.u.)
   Center  Symbol    Alpha    Beta     Spin     Total
       1     H     0.43027  0.43027  0.00000  0.13946
       2     N     3.69015  3.69015  0.00000 -0.38029
       3     C     3.02464  3.02464  0.00000 -0.04928
       4     H     0.43086  0.43086  0.00000  0.13829
       5     C     3.08882  3.08882  0.00000 -0.17764
       6     H     0.45682  0.45682  0.00000  0.08636
       7     H     0.46741  0.46741  0.00000  0.06517
       8     C     3.10014  3.10014  0.00000 -0.20028
       9     H     0.44885  0.44885  0.00000  0.10229
      10     H     0.45572  0.45572  0.00000  0.08856
      11     C     3.08194  3.08194  0.00000 -0.16389
      12     H     0.45633  0.45633  0.00000  0.08735
      13     H     0.45115  0.45115  0.00000  0.09770
      14     C     3.15022  3.15022  0.00000 -0.30043
      15     H     0.45375  0.45375  0.00000  0.09250
      16     H     0.45329  0.45329  0.00000  0.09342
      17     H     0.45550  0.45550  0.00000  0.08899
      18     H     0.44862  0.44862  0.00000  0.10277
      19     H     0.45553  0.45553  0.00000  0.08893

   Total alpha = 25.00000, Total beta = 25.00000, Total charge =  0.00000

*** Psi4 exiting successfully. Buy a developer a beer!
