  ==> Input File <==

--------------------------------------------------------------------------
set {
	reference rhf
	basis 6-31G*
}

set_num_threads( 1 )
memory 2 gb

molecule MOL {
0 1

H	 -1.010156	 -0.943943	 0.874177
N	 -0.626943	 -0.667432	 -0.000092
C	 -1.270011	 -1.135152	 -1.206913
C	 0.469286	 0.129090	 0.000148
H	 -1.265628	 -2.219004	 -1.254357
H	 -0.725382	 -0.745676	 -2.051552
H	 -2.296734	 -0.788641	 -1.259839
C	 1.788933	 -0.616240	 -0.000037
O	 0.411098	 1.327768	 -0.000049
H	 1.872803	 -1.245775	 -0.880381
H	 2.595421	 0.101576	 0.003713
H	 1.870096	 -1.252171	 0.875943

	symmetry c1
}
set optking {
	frozen_dihedral = ("
		4 2 3 5
	")
}

ee = energy('scf')
oeprop('DIPOLE', 'QUADRUPOLE', 'MULLIKEN_CHARGES')
f=open( 'psi4out.xyz', 'w' )
f.write( "12  " )
f.write( str(ee) + "\n" )
f.write( MOL.save_string_xyz() )
f.close()
--------------------------------------------------------------------------

    Molecular point group: c1

    Geometry (in Angstrom), charge = 0, multiplicity = 1:

       Center              X                  Y                   Z               Mass
    ------------   -----------------  -----------------  -----------------  -----------------
           H         -1.156672092485    -0.742371847421     1.123378856427     1.007825032070
           N         -0.773459092485    -0.465860847421     0.249109856427    14.003074004780
           C         -1.416527092485    -0.933580847421    -0.957711143573    12.000000000000
           C          0.322769907515     0.330661152579     0.249349856427    12.000000000000
           H         -1.412144092485    -2.017432847421    -1.005155143573     1.007825032070
           H         -0.871898092485    -0.544104847421    -1.802350143573     1.007825032070
           H         -2.443250092485    -0.587069847421    -1.010637143573     1.007825032070
           C          1.642416907515    -0.414668847421     0.249164856427    12.000000000000
           O          0.264581907515     1.529339152579     0.249152856427    15.994914619560
           H          1.726286907515    -1.044203847421    -0.631179143573     1.007825032070
           H          2.448904907515     0.303147152579     0.252914856427     1.007825032070
           H          1.723579907515    -1.050599847421     1.125144856427     1.007825032070

  Charge       = 0
  Multiplicity = 1
  Basis Set: 6-31G*
  Basis Set:

    Orbital Energies (a.u.)
    -----------------------

    Doubly Occupied:

       1A    -20.548548     2A    -15.543011     3A    -11.348226
       4A    -11.261905     5A    -11.223772     6A     -1.398423
       7A     -1.218816     8A     -1.004404     9A     -0.937845
      10A     -0.781261    11A     -0.683234    12A     -0.647672
      13A     -0.643608    14A     -0.590293    15A     -0.579596
      16A     -0.565935    17A     -0.549504    18A     -0.486809
      19A     -0.426493    20A     -0.368118

  @DF-RHF Final Energy:  -246.96293472796015

   => Energetics <=

    Nuclear Repulsion Energy =            180.9777550008923868
    One-Electron Energy =                -694.2664469625038919
    Two-Electron Energy =                 266.3257572336518137
    DFT Exchange-Correlation Energy =       0.0000000000000000
    Empirical Dispersion Energy =           0.0000000000000000
    PCM Polarization Energy =               0.0000000000000000
    EFP Energy =                            0.0000000000000000
    Total Energy =                       -246.9629347279596345

  Mulliken Charges: (a.u.)
   Center  Symbol    Alpha    Beta     Spin     Total
       1     H     0.30922  0.30922  0.00000  0.38156
       2     N     3.90634  3.90634  0.00000 -0.81268
       3     C     3.12992  3.12992  0.00000 -0.25984
       4     C     2.66503  2.66503  0.00000  0.66994
       5     H     0.41975  0.41975  0.00000  0.16051
       6     H     0.41161  0.41161  0.00000  0.17678
       7     H     0.41209  0.41209  0.00000  0.17581
       8     C     3.27619  3.27619  0.00000 -0.55238
       9     O     4.24752  4.24752  0.00000 -0.49505
      10     H     0.40950  0.40950  0.00000  0.18100
      11     H     0.40281  0.40281  0.00000  0.19438
      12     H     0.41001  0.41001  0.00000  0.17998

   Total alpha = 20.00000, Total beta = 20.00000, Total charge = -0.00000
