  ==> Input File <==

--------------------------------------------------------------------------
set {
	reference rhf
	basis 6-31G*
}

set_num_threads( 4 )
memory 2 gb

molecule MOL {
0 1

H	 -3.042581	 -0.665861	 0.004336
O	 -2.245037	 -1.176175	 0.000806
C	 -1.162163	 -0.365336	 0.001020
C	 -1.224187	 0.957122	 0.401755
C	 0.040888	 -0.913773	 -0.426434
H	 -2.156510	 1.384337	 0.730745
C	 -0.069160	 1.725790	 0.370593
H	 0.052374	 -1.943842	 -0.732933
C	 1.192400	 -0.146789	 -0.455902
H	 -0.114278	 2.755218	 0.679273
C	 1.128987	 1.187203	 -0.052894
C	 2.506100	 -0.748553	 -0.897687
H	 2.015251	 1.796654	 -0.073757
H	 3.045710	 -0.072172	 -1.551996
H	 2.355572	 -1.681221	 -1.428096
H	 3.143207	 -0.952841	 -0.041704

	symmetry c1
}
set optking {
	frozen_dihedral = ("
		5 3 2 1
	")
}

ee = optimize('scf')
oeprop('DIPOLE', 'QUADRUPOLE', 'MULLIKEN_CHARGES')
f=open( 'psi4out.xyz', 'w' )
f.write( "16  " )
f.write( str(ee) + "\n" )
f.write( MOL.save_string_xyz() )
f.close()
--------------------------------------------------------------------------

    Molecular point group: c1
  Charge       = 0
  Multiplicity = 1
  Basis Set: 6-31G*
  Basis Set:
  @DF-RHF Final Energy:  -344.59455931663132
    Total Energy =                       -344.5945593166310346
    Molecular point group: c1
  Basis Set: 6-31G*
  Basis Set:
  Basis Set: 6-31G*
  Basis Set:
  @DF-RHF Final Energy:  -344.59457559479767
    Total Energy =                       -344.5945755947975044
  Basis Set: 6-31G*
  Basis Set:
  Basis Set: 6-31G*
  Basis Set:
  @DF-RHF Final Energy:  -344.59457962622122
    Total Energy =                       -344.5945796262211047
  Basis Set: 6-31G*
  Basis Set:
  Charge       = 0
  Multiplicity = 1
  Basis Set: 6-31G*
  Basis Set:

    Orbital Energies (a.u.)
    -----------------------

    Doubly Occupied:

       1A    -20.587275     2A    -11.294964     3A    -11.241489
       4A    -11.234702     5A    -11.222655     6A    -11.220188
       7A    -11.216465     8A    -11.216297     9A     -1.405464
      10A     -1.149408    11A     -1.042849    12A     -1.004558
      13A     -0.936058    14A     -0.822865    15A     -0.822278
      16A     -0.713024    17A     -0.680181    18A     -0.652733
      19A     -0.609990    20A     -0.590170    21A     -0.572355
      22A     -0.568642    23A     -0.560960    24A     -0.529662
      25A     -0.504253    26A     -0.481735    27A     -0.466899
      28A     -0.328778    29A     -0.306934

  @DF-RHF Final Energy:  -344.59457990699156

   => Energetics <=

    Nuclear Repulsion Energy =            345.4962809722975976
    One-Electron Energy =               -1152.2140578754301714
    Two-Electron Energy =                 462.1231969961409050
    DFT Exchange-Correlation Energy =       0.0000000000000000
    Empirical Dispersion Energy =           0.0000000000000000
    PCM Polarization Energy =               0.0000000000000000
    EFP Energy =                            0.0000000000000000
    Total Energy =                       -344.5945799069916120
    Molecular point group: c1
  Basis Set: 6-31G*
  Basis Set:

  -Total Gradient:
     Atom            X                  Y                   Z
    ------   -----------------  -----------------  -----------------
       1        0.000002696896     0.000010782513    -0.001957539804
       2       -0.000124692146     0.000155130193     0.001811585635
       3        0.000390118806    -0.000501435248     0.001466531094
       4       -0.000023983105    -0.000065005396    -0.000007188188
       5       -0.000222462730     0.000410156370    -0.001318496787
       6        0.000003404095     0.000002374674     0.000003441617
       7        0.000090439037     0.000009365333     0.000003253053
       8       -0.000008621158    -0.000006595189    -0.000012824724
       9       -0.000028070565    -0.000107920927     0.000028526793
      10       -0.000009784057     0.000003968729    -0.000010134956
      11       -0.000060132046     0.000076554108     0.000005035120
      12       -0.000005282876     0.000013077229    -0.000010718942
      13        0.000003357056    -0.000002784523     0.000002522214
      14        0.000003435808     0.000000706079    -0.000005337072
      15       -0.000000889199    -0.000004465647     0.000000632531
      16       -0.000009533814     0.000006091705     0.000000712414

  **** Optimization is complete! (in 4 steps) ****
    Final optimized geometry and variables:
    Molecular point group: c1

    Geometry (in Angstrom), charge = 0, multiplicity = 1:

    H           -3.028434004655    -0.684427835400     0.152039197501
    O           -2.232047952806    -1.196501568244     0.146355401526
    C           -1.146367304035    -0.385510222288     0.139663799711
    C           -1.209457320957     0.937174954692     0.539504843181
    C            0.055393033234    -0.932635582498    -0.290777513119
    H           -2.140951052005     1.360423527572     0.875244462906
    C           -0.055370802520     1.706772554351     0.506677054600
    H            0.065402805246    -1.960873236204    -0.603458370650
    C            1.208903399476    -0.167430838182    -0.313799784892
    H           -0.100664544824     2.736652341400     0.813848447587
    C            1.143980181785     1.166585859510     0.087441795626
    C            2.522796129966    -0.768789365048    -0.755504300724
    H            2.030310754327     1.776092346584     0.067802029129
    H            3.064112656933    -0.091457088554    -1.407484623634
    H            2.372276008696    -1.700235616515    -1.288258204510
    H            3.158420627747    -0.975844436111     0.100943178291

  Mulliken Charges: (a.u.)
   Center  Symbol    Alpha    Beta     Spin     Total
       1     H     0.27214  0.27214  0.00000  0.45573
       2     O     4.38019  4.38019  0.00000 -0.76038
       3     C     2.79178  2.79178  0.00000  0.41644
       4     C     3.14711  3.14711  0.00000 -0.29421
       5     C     3.13990  3.13990  0.00000 -0.27980
       6     H     0.40454  0.40454  0.00000  0.19092
       7     C     3.08770  3.08770  0.00000 -0.17540
       8     H     0.39438  0.39438  0.00000  0.21124
       9     C     2.96957  2.96957  0.00000  0.06086
      10     H     0.39889  0.39889  0.00000  0.20221
      11     C     3.12333  3.12333  0.00000 -0.24667
      12     C     3.25461  3.25461  0.00000 -0.50921
      13     H     0.40334  0.40334  0.00000  0.19332
      14     H     0.41203  0.41203  0.00000  0.17594
      15     H     0.41164  0.41164  0.00000  0.17673
      16     H     0.40886  0.40886  0.00000  0.18229

   Total alpha = 29.00000, Total beta = 29.00000, Total charge =  0.00000
