  ==> Input File <==

--------------------------------------------------------------------------
set {
	reference rhf
	basis 6-31G*
}

set_num_threads( 1 )
memory 2 gb

molecule MOL {
0 1

H	 1.136379	 0.211822	 1.465562
C	 1.135357	 0.094285	 0.374742
C	 0.065331	 0.871482	 -0.349150
O	 1.941633	 -0.601957	 -0.151457
C	 -0.917403	 1.552177	 0.614369
H	 -0.446449	 0.198490	 -1.027439
H	 0.567340	 1.631689	 -0.946003
C	 -1.774860	 0.561519	 1.402905
H	 -1.561109	 2.211328	 0.040633
H	 -0.366054	 2.189978	 1.302020
H	 -2.360634	 -0.062498	 0.735075
H	 -2.462257	 1.083801	 2.060191
H	 -1.167671	 -0.096854	 2.017117

	symmetry c1
}
set optking {
	frozen_dihedral = ("
		6 3 5 9
	")
}

ee = energy('scf')
oeprop('DIPOLE', 'QUADRUPOLE', 'MULLIKEN_CHARGES')
f=open( 'psi4out.xyz', 'w' )
f.write( "13  " )
f.write( str(ee) + "\n" )
f.write( MOL.save_string_xyz() )
f.close()
--------------------------------------------------------------------------

    Molecular point group: c1

    Geometry (in Angstrom), charge = 0, multiplicity = 1:

       Center              X                  Y                   Z               Mass
    ------------   -----------------  -----------------  -----------------  -----------------
           H          1.046939601561    -0.270441566362     1.079992286126     1.007825032070
           C          1.045917601561    -0.387978566362    -0.010827713874    12.000000000000
           C         -0.024108398439     0.389218433638    -0.734719713874    12.000000000000
           O          1.852193601561    -1.084220566362    -0.537026713874    15.994914619560
           C         -1.006842398439     1.069913433638     0.228799286126    12.000000000000
           H         -0.535888398439    -0.283773566362    -1.413008713874     1.007825032070
           H          0.477900601561     1.149425433638    -1.331572713874     1.007825032070
           C         -1.864299398439     0.079255433638     1.017335286126    12.000000000000
           H         -1.650548398439     1.729064433638    -0.344936713874     1.007825032070
           H         -0.455493398439     1.707714433638     0.916450286126     1.007825032070
           H         -2.450073398439    -0.544761566362     0.349505286126     1.007825032070
           H         -2.551696398439     0.601537433638     1.674621286126     1.007825032070
           H         -1.257110398439    -0.579117566362     1.631547286126     1.007825032070

  Charge       = 0
  Multiplicity = 1
  Basis Set: 6-31G*
  Basis Set:

    Orbital Energies (a.u.)
    -----------------------

    Doubly Occupied:

       1A    -20.561965     2A    -11.327517     3A    -11.237292
       4A    -11.236483     5A    -11.224947     6A     -1.402424
       7A     -1.088791     8A     -0.973122     9A     -0.849407
      10A     -0.791604    11A     -0.660079    12A     -0.650343
      13A     -0.630806    14A     -0.592036    15A     -0.574929
      16A     -0.526033    17A     -0.508481    18A     -0.493306
      19A     -0.483431    20A     -0.409750

  @DF-RHF Final Energy:  -230.98272003350047

   => Energetics <=

    Nuclear Repulsion Energy =            172.8012573336976629
    One-Electron Energy =                -655.1225846696115696
    Two-Electron Energy =                 251.3386073024132656
    DFT Exchange-Correlation Energy =       0.0000000000000000
    Empirical Dispersion Energy =           0.0000000000000000
    PCM Polarization Energy =               0.0000000000000000
    EFP Energy =                            0.0000000000000000
    Total Energy =                       -230.9827200335006410

  Mulliken Charges: (a.u.)
   Center  Symbol    Alpha    Beta     Spin     Total
       1     H     0.43004  0.43004  0.00000  0.13993
       2     C     2.83529  2.83529  0.00000  0.32943
       3     C     3.20538  3.20538  0.00000 -0.41076
       4     O     4.24085  4.24085  0.00000 -0.48170
       5     C     3.16845  3.16845  0.00000 -0.33690
       6     H     0.39837  0.39837  0.00000  0.20325
       7     H     0.39796  0.39796  0.00000  0.20408
       8     C     3.24421  3.24421  0.00000 -0.48842
       9     H     0.41195  0.41195  0.00000  0.17611
      10     H     0.41798  0.41798  0.00000  0.16403
      11     H     0.41678  0.41678  0.00000  0.16643
      12     H     0.41354  0.41354  0.00000  0.17291
      13     H     0.41919  0.41919  0.00000  0.16161

   Total alpha = 20.00000, Total beta = 20.00000, Total charge = -0.00000
