  ==> Input File <==

--------------------------------------------------------------------------
set {
	reference rhf
	basis 6-31G*
}

set_num_threads( 4 )
memory 2 gb

molecule MOL {
0 1

O	 -1.253850	 -0.824740	 2.172577
C	 -1.837637	 -1.001285	 1.151479
C	 -3.062427	 -1.870115	 1.023841
O	 -1.481751	 -0.454642	 0.000584
H	 -3.828108	 -1.492217	 1.690765
H	 -3.436377	 -1.893129	 0.010889
H	 -2.812399	 -2.873541	 1.347110
C	 -0.334255	 0.388708	 0.000906
C	 0.891947	 -0.504646	 0.000751
H	 -0.365390	 1.025305	 -0.873475
H	 -0.365484	 1.024911	 0.875569
C	 2.191998	 0.301789	 0.000897
H	 0.855148	 -1.151283	 -0.871571
H	 0.855132	 -1.151660	 0.872805
C	 3.441114	 -0.581407	 0.000108
H	 2.215074	 0.954890	 -0.869742
H	 2.215465	 0.953923	 0.872248
C	 4.739576	 0.224112	 -0.001102
H	 3.419457	 -1.233487	 -0.870178
H	 3.420834	 -1.233096	 0.870717
H	 4.804918	 0.861552	 -0.878265
H	 5.606527	 -0.429058	 -0.001824
H	 4.806469	 0.861674	 0.875853

	symmetry c1
}
set optking {
	frozen_dihedral = ("
		2 4 8 10
	")
}

ee = optimize('scf')
oeprop('DIPOLE', 'QUADRUPOLE', 'MULLIKEN_CHARGES')
f=open( 'psi4out.xyz', 'w' )
f.write( "23  " )
f.write( str(ee) + "\n" )
f.write( MOL.save_string_xyz() )
f.close()
--------------------------------------------------------------------------

    Molecular point group: c1
  Charge       = 0
  Multiplicity = 1
  Basis Set: 6-31G*
  Basis Set:
  @DF-RHF Final Energy:  -422.97666608104726
    Total Energy =                       -422.9766660810472558
    Molecular point group: c1
  Basis Set: 6-31G*
  Basis Set:
  Basis Set: 6-31G*
  Basis Set:
  @DF-RHF Final Energy:  -422.97850967850724
    Total Energy =                       -422.9785096785075211
  Basis Set: 6-31G*
  Basis Set:
  Basis Set: 6-31G*
  Basis Set:
  @DF-RHF Final Energy:  -422.97796360501178
    Total Energy =                       -422.9779636050116096
  Basis Set: 6-31G*
  Basis Set:
  Basis Set: 6-31G*
  Basis Set:
  @DF-RHF Final Energy:  -422.97877418910343
    Total Energy =                       -422.9787741891021824
  Basis Set: 6-31G*
  Basis Set:
  Basis Set: 6-31G*
  Basis Set:
  @DF-RHF Final Energy:  -422.97878798047441
    Total Energy =                       -422.9787879804746353
  Basis Set: 6-31G*
  Basis Set:
  Charge       = 0
  Multiplicity = 1
  Basis Set: 6-31G*
  Basis Set:

    Orbital Energies (a.u.)
    -----------------------

    Doubly Occupied:

       1A    -20.603028     2A    -20.540937     3A    -11.375394
       4A    -11.281825     5A    -11.232417     6A    -11.221573
       7A    -11.219434     8A    -11.219133     9A    -11.211014
      10A     -1.467277    11A     -1.361198    12A     -1.090870
      13A     -1.040491    14A     -1.002084    15A     -0.930997
      16A     -0.851213    17A     -0.798516    18A     -0.763705
      19A     -0.699710    20A     -0.677984    21A     -0.656153
      22A     -0.649008    23A     -0.603634    24A     -0.589749
      25A     -0.583578    26A     -0.572440    27A     -0.550095
      28A     -0.538709    29A     -0.521852    30A     -0.513145
      31A     -0.485472    32A     -0.475909    33A     -0.474058
      34A     -0.468347    35A     -0.437683    36A     -0.435436

  @DF-RHF Final Energy:  -422.97878873399617

   => Energetics <=

    Nuclear Repulsion Energy =            457.1085104510341921
    One-Electron Energy =               -1481.8864605989028860
    Two-Electron Energy =                 601.7991614138724117
    DFT Exchange-Correlation Energy =       0.0000000000000000
    Empirical Dispersion Energy =           0.0000000000000000
    PCM Polarization Energy =               0.0000000000000000
    EFP Energy =                            0.0000000000000000
    Total Energy =                       -422.9787887339963390
    Molecular point group: c1
  Basis Set: 6-31G*
  Basis Set:

  -Total Gradient:
     Atom            X                  Y                   Z
    ------   -----------------  -----------------  -----------------
       1        0.000011642401    -0.000021645112    -0.000042774674
       2        0.000520349770    -0.000719997810    -0.000141592763
       3        0.000032503304    -0.000028620199    -0.000016297802
       4       -0.000678116179     0.000917510455     0.000082780483
       5       -0.000016609091     0.000013494226    -0.000004011144
       6        0.000001145354     0.000003397606     0.000003642118
       7       -0.000002769160     0.000015224391     0.000012413323
       8       -0.000369864492     0.000570784822     0.000585713431
       9       -0.000075620233     0.000001161955    -0.000002988551
      10        0.000462933389    -0.000749242507    -0.000507648574
      11        0.000031061282     0.000009958299    -0.000012390914
      12        0.000037653344    -0.000003039431     0.000004461320
      13        0.000020065326     0.000000216564     0.000030430149
      14        0.000001142556    -0.000006634104     0.000014808683
      15        0.000035325330     0.000007333333    -0.000026245276
      16       -0.000020809513    -0.000009135814     0.000017422324
      17        0.000014288936    -0.000002851236     0.000012059671
      18        0.000003572240    -0.000007669562     0.000000699319
      19        0.000000537658    -0.000003863032    -0.000008716557
      20       -0.000007597289     0.000010379657    -0.000004822518
      21        0.000002822762    -0.000002272950    -0.000003941123
      22       -0.000002562032     0.000000620028     0.000004446186
      23       -0.000001095656     0.000004890423     0.000002552885

  **** Optimization is complete! (in 6 steps) ****
    Final optimized geometry and variables:
    Molecular point group: c1

    Geometry (in Angstrom), charge = 0, multiplicity = 1:

    O           -1.730332957866    -0.377974963419     1.718660137463
    C           -2.263354477679    -0.522112739835     0.664743178342
    C           -3.516664514879    -1.335204225190     0.466499246967
    O           -1.829571540445     0.017234839212    -0.463101499888
    H           -4.296838580742    -0.931087847577     1.100435033085
    H           -3.840862370809    -1.331519720699    -0.563611010097
    H           -3.326140093538    -2.351810015978     0.789278865426
    C           -0.639334500199     0.801561593080    -0.425910832920
    C            0.611775255749    -0.063677706256    -0.436535351448
    H           -0.688535018587     1.405338066894    -1.321297886962
    H           -0.665345224633     1.446445713274     0.440352550017
    C            1.886392556759     0.781097867418    -0.494860496298
    H            0.567194597112    -0.727299170955    -1.296454138643
    H            0.622578382796    -0.685085975386     0.451900834935
    C            3.161032604657    -0.064496468712    -0.520734008143
    H            1.862506542400     1.418593824383    -1.377489848242
    H            1.917880394189     1.448267021156     0.364601943186
    C            4.434092048891     0.778944785732    -0.574352840392
    H            3.132645114496    -0.731182758777    -1.379798817275
    H            3.186103314318    -0.701461074809     0.360287499325
    H            4.454411895714     1.403086126659    -1.463348825549
    H            5.319901933219     0.151755926658    -0.590674739680
    H            4.507804911882     1.432853117329     0.289911685025

  Mulliken Charges: (a.u.)
   Center  Symbol    Alpha    Beta     Spin     Total
       1     O     4.28534  4.28534  0.00000 -0.57069
       2     C     2.61520  2.61520  0.00000  0.76960
       3     C     3.28786  3.28786  0.00000 -0.57572
       4     O     4.31320  4.31320  0.00000 -0.62639
       5     H     0.39738  0.39738  0.00000  0.20524
       6     H     0.39951  0.39951  0.00000  0.20099
       7     H     0.39782  0.39782  0.00000  0.20437
       8     C     2.99947  2.99947  0.00000  0.00106
       9     C     3.17180  3.17180  0.00000 -0.34360
      10     H     0.41058  0.41058  0.00000  0.17885
      11     H     0.40433  0.40433  0.00000  0.19133
      12     C     3.16086  3.16086  0.00000 -0.32172
      13     H     0.41720  0.41720  0.00000  0.16559
      14     H     0.40315  0.40315  0.00000  0.19369
      15     C     3.15135  3.15135  0.00000 -0.30269
      16     H     0.42354  0.42354  0.00000  0.15292
      17     H     0.41909  0.41909  0.00000  0.16183
      18     C     3.23986  3.23986  0.00000 -0.47972
      19     H     0.42216  0.42216  0.00000  0.15569
      20     H     0.41973  0.41973  0.00000  0.16054
      21     H     0.42178  0.42178  0.00000  0.15643
      22     H     0.41820  0.41820  0.00000  0.16361
      23     H     0.42060  0.42060  0.00000  0.15880

   Total alpha = 36.00000, Total beta = 36.00000, Total charge = -0.00000
