  ==> Input File <==

--------------------------------------------------------------------------
set {
	reference rhf
	basis cc-pvtz
}

set_num_threads( 4 )
memory 2 gb

molecule MOL {
0 1

H	 -1.967559	 -1.305940	 -1.201527
N	 -1.258999	 -0.604297	 -1.236358
C	 -0.561396	 -0.500007	 0.035200
H	 -1.708255	 0.256962	 -1.468172
C	 0.575129	 0.507849	 -0.048832
H	 -0.154259	 -1.477475	 0.271872
H	 -1.220507	 -0.227534	 0.860879
C	 1.951750	 -0.141983	 0.035101
H	 0.478254	 1.061643	 -0.975981
H	 0.467676	 1.231891	 0.755499
H	 2.101550	 -0.848142	 -0.774949
H	 2.738260	 0.600794	 -0.026526
H	 2.078939	 -0.679792	 0.968824

	symmetry c1
}
set optking {
	frozen_dihedral = ("
		6 3 5 9
	")
}

ee = optimize('scf')
oeprop('DIPOLE', 'QUADRUPOLE', 'MULLIKEN_CHARGES')
f=open( 'psi4out.xyz', 'w' )
f.write( "13  " )
f.write( str(ee) + "\n" )
f.write( MOL.save_string_xyz() )
f.close()
--------------------------------------------------------------------------

    Molecular point group: c1
  Charge       = 0
  Multiplicity = 1
  Basis Set: CC-PVTZ
  Basis Set:
  @DF-RHF Final Energy:  -173.34643219386263
    Total Energy =                       -173.3464321938625687
    Molecular point group: c1
  Basis Set: CC-PVTZ
  Basis Set:
  Basis Set: CC-PVTZ
  Basis Set:
  @DF-RHF Final Energy:  -173.34683894383548
    Total Energy =                       -173.3468389438354507
  Basis Set: CC-PVTZ
  Basis Set:
  Basis Set: CC-PVTZ
  Basis Set:
  @DF-RHF Final Energy:  -173.34695138258698
    Total Energy =                       -173.3469513825868944
  Basis Set: CC-PVTZ
  Basis Set:
  Basis Set: CC-PVTZ
  Basis Set:
  @DF-RHF Final Energy:  -173.34695425972683
    Total Energy =                       -173.3469542597268287
  Basis Set: CC-PVTZ
  Basis Set:
  Charge       = 0
  Multiplicity = 1
  Basis Set: CC-PVTZ
  Basis Set:

    Orbital Energies (a.u.)
    -----------------------

    Doubly Occupied:

       1A    -15.527173     2A    -11.238518     3A    -11.210212
       4A    -11.203690     5A     -1.177387     6A     -1.032013
       7A     -0.898294     8A     -0.799656     9A     -0.657087
      10A     -0.638787    11A     -0.595987    12A     -0.565180
      13A     -0.531787    14A     -0.486655    15A     -0.476672
      16A     -0.469055    17A     -0.382785

  @DF-RHF Final Energy:  -173.34695447265841

   => Energetics <=

    Nuclear Repulsion Energy =            132.3885044569909155
    One-Electron Energy =                -495.6890447981751322
    Two-Electron Energy =                 189.9535858685258063
    DFT Exchange-Correlation Energy =       0.0000000000000000
    Empirical Dispersion Energy =           0.0000000000000000
    PCM Polarization Energy =               0.0000000000000000
    EFP Energy =                            0.0000000000000000
    Total Energy =                       -173.3469544726584104
    Molecular point group: c1
  Basis Set: CC-PVTZ
  Basis Set:

  -Total Gradient:
     Atom            X                  Y                   Z
    ------   -----------------  -----------------  -----------------
       1       -0.000013587866    -0.000003689621    -0.000020149639
       2       -0.000007230066    -0.000003754666     0.000036569527
       3       -0.000023050959     0.000211318505     0.002798352888
       4       -0.000000497929    -0.000002426638     0.000002086042
       5       -0.001698136574     0.002033824313     0.000845265938
       6        0.000294668216    -0.000491740034    -0.002493404143
       7        0.000005664769     0.000019205284    -0.000019567122
       8       -0.000003933751    -0.000006117025    -0.000002775827
       9        0.001451873486    -0.001740891488    -0.001157001908
      10       -0.000007943973    -0.000024015375     0.000008203068
      11       -0.000010861423    -0.000006814697     0.000011600343
      12        0.000006448371     0.000003987835    -0.000005200990
      13        0.000006587698     0.000011113609    -0.000003978177

  **** Optimization is complete! (in 5 steps) ****
    Final optimized geometry and variables:
    Molecular point group: c1

    Geometry (in Angstrom), charge = 0, multiplicity = 1:

    H           -2.088415580178    -1.136421492090    -0.910461386965
    N           -1.390285058026    -0.423218601870    -0.931856991285
    C           -0.730049172661    -0.299406044279     0.362141060253
    H           -1.848871380942     0.428650900755    -1.179863096072
    C            0.426792791387     0.711895128579     0.293808958595
    H           -0.339063246553    -1.280804912001     0.603440052414
    H           -1.419340606484    -0.024404930210     1.158510632247
    C            1.803377918017     0.053478841230     0.333408988556
    H            0.343444551200     1.264672314997    -0.635097394771
    H            0.346762019181     1.428715467159     1.103664296167
    H            1.911066885085    -0.655573648997    -0.479911480892
    H            2.594397883956     0.789363934100     0.242292721220
    H            1.955436901057    -0.482050400631     1.264844885721

  Mulliken Charges: (a.u.)
   Center  Symbol    Alpha    Beta     Spin     Total
       1     H     0.42927  0.42927  0.00000  0.14146
       2     N     3.69163  3.69163  0.00000 -0.38326
       3     C     3.02929  3.02929  0.00000 -0.05857
       4     H     0.43058  0.43058  0.00000  0.13884
       5     C     3.07918  3.07918  0.00000 -0.15837
       6     H     0.45928  0.45928  0.00000  0.08145
       7     H     0.46253  0.46253  0.00000  0.07494
       8     C     3.14972  3.14972  0.00000 -0.29943
       9     H     0.45626  0.45626  0.00000  0.08749
      10     H     0.45322  0.45322  0.00000  0.09355
      11     H     0.45039  0.45039  0.00000  0.09921
      12     H     0.45155  0.45155  0.00000  0.09691
      13     H     0.45711  0.45711  0.00000  0.08579

   Total alpha = 17.00000, Total beta = 17.00000, Total charge = -0.00000
