  ==> Input File <==

--------------------------------------------------------------------------
set {
	reference rhf
	basis 6-31G*
}

set_num_threads( 4 )
memory 2 gb

molecule MOL {
0 1

H	 -0.000158	 1.970498	 0.756846
O	 -0.000074	 1.880206	 -0.189275
C	 -0.000015	 0.544847	 -0.545111
C	 -1.278788	 -0.123820	 -0.051541
C	 1.278802	 -0.123718	 -0.051505
H	 -0.000001	 0.490777	 -1.623619
F	 -1.870375	 -0.739857	 -1.052574
F	 -1.045564	 -1.011096	 0.892232
F	 -2.124979	 0.774504	 0.426553
F	 2.323327	 0.466644	 -0.591854
F	 1.326242	 -1.401483	 -0.363667
F	 1.388946	 -0.015632	 1.262939

	symmetry c1
}
set optking {
	frozen_dihedral = ("
		7 4 3 6
	")
}

ee = optimize('scf')
oeprop('DIPOLE', 'QUADRUPOLE', 'MULLIKEN_CHARGES')
f=open( 'psi4out.xyz', 'w' )
f.write( "12  " )
f.write( str(ee) + "\n" )
f.write( MOL.save_string_xyz() )
f.close()
--------------------------------------------------------------------------

    Molecular point group: c1
  Charge       = 0
  Multiplicity = 1
  Basis Set: 6-31G*
  Basis Set:
  @DF-RHF Final Energy:  -786.27096755962828
    Total Energy =                       -786.2709675596283887
    Molecular point group: c1
  Basis Set: 6-31G*
  Basis Set:
  Basis Set: 6-31G*
  Basis Set:
  @DF-RHF Final Energy:  -786.27165945437605
    Total Energy =                       -786.2716594543767314
  Basis Set: 6-31G*
  Basis Set:
  Basis Set: 6-31G*
  Basis Set:
  @DF-RHF Final Energy:  -786.27232215382116
    Total Energy =                       -786.2723221538210510
  Basis Set: 6-31G*
  Basis Set:
  Basis Set: 6-31G*
  Basis Set:
  @DF-RHF Final Energy:  -786.27235589502072
    Total Energy =                       -786.2723558950210645
  Basis Set: 6-31G*
  Basis Set:
  Basis Set: 6-31G*
  Basis Set:
  @DF-RHF Final Energy:  -786.27236155357014
    Total Energy =                       -786.2723615535702493
  Basis Set: 6-31G*
  Basis Set:
  Charge       = 0
  Multiplicity = 1
  Basis Set: 6-31G*
  Basis Set:

    Orbital Energies (a.u.)
    -----------------------

    Doubly Occupied:

       1A    -26.361416     2A    -26.361064     3A    -26.360996
       4A    -26.360425     5A    -26.359157     6A    -26.356685
       7A    -20.616823     8A    -11.527471     9A    -11.523762
      10A    -11.349367    11A     -1.764301    12A     -1.757685
      13A     -1.659143    14A     -1.658634    15A     -1.656927
      16A     -1.653513    17A     -1.435338    18A     -1.099705
      19A     -0.995294    20A     -0.936954    21A     -0.865005
      22A     -0.859671    23A     -0.849917    24A     -0.845565
      25A     -0.833088    26A     -0.812866    27A     -0.733230
      28A     -0.729831    29A     -0.728254    30A     -0.722374
      31A     -0.687643    32A     -0.684859    33A     -0.682682
      34A     -0.676786    35A     -0.667463    36A     -0.661766
      37A     -0.655741    38A     -0.650733    39A     -0.617294
      40A     -0.549014    41A     -0.505298

  @DF-RHF Final Energy:  -786.27236231472875

   => Energetics <=

    Nuclear Repulsion Energy =            669.3943854473757256
    One-Electron Energy =               -2425.7060199233892490
    Two-Electron Energy =                 970.0392721612853393
    DFT Exchange-Correlation Energy =       0.0000000000000000
    Empirical Dispersion Energy =           0.0000000000000000
    PCM Polarization Energy =               0.0000000000000000
    EFP Energy =                            0.0000000000000000
    Total Energy =                       -786.2723623147281842
    Molecular point group: c1
  Basis Set: 6-31G*
  Basis Set:

  -Total Gradient:
     Atom            X                  Y                   Z
    ------   -----------------  -----------------  -----------------
       1       -0.000005201316     0.000028240882    -0.000007016336
       2       -0.000017265772    -0.000120271051     0.000005471171
       3       -0.001624484863     0.002828147730    -0.000234432215
       4        0.001474961701    -0.002352049196     0.000597352354
       5       -0.000015041824     0.000067328552    -0.000019283722
       6        0.001111083626    -0.001936093549     0.000088014435
       7       -0.000972961919     0.001551094760    -0.000404523967
       8        0.000099696259    -0.000042426530     0.000004634883
       9       -0.000024371718     0.000043306192    -0.000045177129
      10        0.000006986988    -0.000022914395     0.000007548561
      11       -0.000007896387     0.000010765411     0.000034700511
      12       -0.000025504769    -0.000055128809    -0.000027288540

  **** Optimization is complete! (in 6 steps) ****
    Final optimized geometry and variables:
    Molecular point group: c1

    Geometry (in Angstrom), charge = 0, multiplicity = 1:

    H           -0.017449548189     2.026195181987     0.770841474327
    O            0.038827089756     1.918734101692    -0.170956970506
    C            0.007244189184     0.585897460973    -0.520425833068
    C           -1.279855477629    -0.128425807599    -0.046412267946
    C            1.276824900625    -0.109613405991    -0.043648718887
    H            0.018777100581     0.530857446662    -1.598058413492
    F           -1.847990412862    -0.761697445719    -1.054313425115
    F           -1.060131111292    -1.010842041869     0.910136962056
    F           -2.147760358671     0.745615624519     0.420128137944
    F            2.327408376134     0.437928249488    -0.616718296104
    F            1.268143164100    -1.391554245413    -0.350669261690
    F            1.424909614631     0.009786931772     1.264851121836

  Mulliken Charges: (a.u.)
   Center  Symbol    Alpha    Beta     Spin     Total
       1     H     0.26716  0.26716  0.00000  0.46568
       2     O     4.35899  4.35899  0.00000 -0.71798
       3     C     3.06434  3.06434  0.00000 -0.12869
       4     C     2.43837  2.43837  0.00000  1.12326
       5     C     2.43745  2.43745  0.00000  1.12510
       6     H     0.37154  0.37154  0.00000  0.25692
       7     F     4.67681  4.67681  0.00000 -0.35362
       8     F     4.67538  4.67538  0.00000 -0.35077
       9     F     4.67561  4.67561  0.00000 -0.35123
      10     F     4.67538  4.67538  0.00000 -0.35076
      11     F     4.67715  4.67715  0.00000 -0.35430
      12     F     4.68181  4.68181  0.00000 -0.36362

   Total alpha = 41.00000, Total beta = 41.00000, Total charge =  0.00000
