                              Psi4 1.0.54 Driver

  ==> Input File <==

--------------------------------------------------------------------------
set {
	reference rhf
	basis cc-pvtz
}

set_num_threads( 4 )
memory 2 gb

molecule MOL {
0 1

H	 3.472443	 -0.970352	 0.794585
O	 2.824271	 -1.154299	 0.131461
C	 2.076458	 -0.067370	 -0.038225
C	 0.626018	 -0.337582	 0.258241
O	 2.538288	 0.965419	 -0.381593
C	 -0.267326	 0.883135	 0.076490
H	 0.325620	 -1.161483	 -0.378003
H	 0.574537	 -0.713685	 1.275261
C	 -1.726822	 0.642622	 0.463839
H	 -0.210803	 1.217591	 -0.953497
H	 0.129920	 1.693110	 0.675679
C	 -2.480891	 -0.340606	 -0.429852
H	 -2.243098	 1.597649	 0.438609
H	 -1.776542	 0.301208	 1.495542
C	 -3.955933	 -0.460128	 -0.060472
H	 -2.393755	 -0.020485	 -1.464726
H	 -2.024244	 -1.323637	 -0.374360
H	 -4.467673	 -1.160944	 -0.709827
H	 -4.458917	 0.497287	 -0.144505
H	 -4.076458	 -0.806900	 0.960497

	symmetry c1
}
set optking {
	frozen_dihedral = ("
		1 2 3 5
	")
}

ee,wfn = optimize('scf', return_wfn=True)
oeprop( wfn, 'DIPOLE', 'QUADRUPOLE', 'MULLIKEN_CHARGES')
f=open( 'psi4out.xyz', 'w' )
f.write( "20  " )
f.write( str(ee) + "\n" )
f.write( MOL.save_string_xyz() )
f.close()
--------------------------------------------------------------------------

    Molecular point group: c1
  Charge       = 0
  Multiplicity = 1
  Basis Set: CC-PVTZ
  Basis Set:
  @DF-RHF Final Energy:  -384.07978922883802
    Total Energy =                       -384.0797892288386493
    Molecular point group: c1
  Basis Set: CC-PVTZ
  Basis Set:
  Basis Set: CC-PVTZ
  Basis Set:
  @DF-RHF Final Energy:  -384.07785234201401
    Total Energy =                       -384.0778523420140118
  Basis Set: CC-PVTZ
  Basis Set:
  Basis Set: CC-PVTZ
  Basis Set:
  @DF-RHF Final Energy:  -384.08096127715345
    Total Energy =                       -384.0809612771536194
  Basis Set: CC-PVTZ
  Basis Set:
  Basis Set: CC-PVTZ
  Basis Set:
  @DF-RHF Final Energy:  -384.08111154679744
    Total Energy =                       -384.0811115467971035
  Basis Set: CC-PVTZ
  Basis Set:
  Basis Set: CC-PVTZ
  Basis Set:
  @DF-RHF Final Energy:  -384.08111846749375
    Total Energy =                       -384.0811184674931837
  Basis Set: CC-PVTZ
  Basis Set:
  Basis Set: CC-PVTZ
  Basis Set:
  @DF-RHF Final Energy:  -384.08111995852835
    Total Energy =                       -384.0811199585285749
  Basis Set: CC-PVTZ
  Basis Set:
  Charge       = 0
  Multiplicity = 1
  Basis Set: CC-PVTZ
  Basis Set:

    Orbital Energies (a.u.)
    -----------------------

    Doubly Occupied:

       1A    -20.590830     2A    -20.547563     3A    -11.373882
       4A    -11.238734     5A    -11.221210     6A    -11.219136
       7A    -11.218438     8A    -11.210768     9A     -1.466345
      10A     -1.370091    11A     -1.097420    12A     -1.041447
      13A     -0.960785    14A     -0.868007    15A     -0.816918
      16A     -0.780756    17A     -0.709363    18A     -0.685303
      19A     -0.660826    20A     -0.640696    21A     -0.611952
      22A     -0.587461    23A     -0.568318    24A     -0.557078
      25A     -0.529383    26A     -0.516985    27A     -0.495903
      28A     -0.494057    29A     -0.471127    30A     -0.466839
      31A     -0.458750    32A     -0.445893

  @DF-RHF Final Energy:  -384.08112002879091

   => Energetics <=

    Nuclear Repulsion Energy =            376.0070637414487464
    One-Electron Energy =               -1268.3318387374285976
    Two-Electron Energy =                 508.2436549671886041
    DFT Exchange-Correlation Energy =       0.0000000000000000
    Empirical Dispersion Energy =           0.0000000000000000
    PCM Polarization Energy =               0.0000000000000000
    EFP Energy =                            0.0000000000000000
    Total Energy =                       -384.0811200287912470
    Molecular point group: c1
  Basis Set: CC-PVTZ
  Basis Set:

  -Total Gradient:
     Atom            X                  Y                   Z
    ------   -----------------  -----------------  -----------------
       1       -0.005875339698    -0.003487203068     0.007598275313
       2        0.006269271826     0.003480669563    -0.013462937651
       3        0.001860507671     0.001888198100     0.014456450134
       4       -0.000000884295    -0.000003379297    -0.000032328430
       5       -0.002325922898    -0.001888037983    -0.008549207822
       6       -0.000030623050    -0.000015572125    -0.000030049230
       7        0.000051461345     0.000037736805     0.000003629769
       8        0.000030326257    -0.000007800598     0.000011223847
       9        0.000021389135    -0.000035986346     0.000029017589
      10        0.000004469068    -0.000004830814    -0.000027420962
      11       -0.000000741899     0.000020842282     0.000010447477
      12       -0.000003265707     0.000002396197    -0.000009602199
      13        0.000022124383     0.000003400635     0.000003609131
      14        0.000006505233    -0.000009797542     0.000012828687
      15       -0.000001831501     0.000010245680    -0.000003722667
      16        0.000001555471    -0.000005316449    -0.000013319347
      17       -0.000026122281     0.000012248826     0.000005257265
      18       -0.000000660115     0.000000761937    -0.000001839599
      19       -0.000005065946     0.000001599190     0.000000601212
      20        0.000002846998    -0.000000174992    -0.000000912518

  **** Optimization is complete! (in 7 steps) ****
    Final optimized geometry and variables:
    Molecular point group: c1

    Geometry (in Angstrom), charge = 0, multiplicity = 1:

    H            3.540397735592    -1.109087496498     0.624253924063
    O            2.818276266280    -1.198686012941     0.023960875532
    C            2.081963604601    -0.065241459263    -0.023997050381
    C            0.629417009258    -0.324560162592     0.269964619528
    O            2.541674469443     0.966135663206    -0.354315476676
    C           -0.264773517683     0.893685270565     0.080497882639
    H            0.333068414628    -1.154963178348    -0.360022781937
    H            0.574417929883    -0.697748148211     1.289119743430
    C           -1.724968645801     0.655612827821     0.467138169530
    H           -0.206726820664     1.221613999779    -0.951692634260
    H            0.131121340992     1.708091136514     0.674922506443
    C           -2.479638325590    -0.327585958097    -0.426189591315
    H           -2.240059026482     1.611241345154     0.440623515906
    H           -1.775987041077     0.315427934594     1.499322981954
    C           -3.953839490836    -0.449516726578    -0.053951134205
    H           -2.394882182471    -0.006274487413    -1.460862239552
    H           -2.021456149432    -1.309998678916    -0.372897851267
    H           -4.465260597420    -1.152338362554    -0.701360960186
    H           -4.459019090613     0.506707480328    -0.138553178134
    H           -4.072029508935    -0.795026105848     0.967765227194

  Mulliken Charges: (a.u.)
   Center  Symbol    Alpha    Beta     Spin     Total
       1     H     0.38284  0.38284  0.00000  0.23433
       2     O     4.17527  4.17527  0.00000 -0.35054
       3     C     2.80161  2.80161  0.00000  0.39678
       4     C     3.11249  3.11249  0.00000 -0.22498
       5     O     4.17067  4.17067  0.00000 -0.34134
       6     C     3.09487  3.09487  0.00000 -0.18974
       7     H     0.43606  0.43606  0.00000  0.12787
       8     H     0.44374  0.44374  0.00000  0.11252
       9     C     3.09894  3.09894  0.00000 -0.19788
      10     H     0.44498  0.44498  0.00000  0.11004
      11     H     0.43978  0.43978  0.00000  0.12043
      12     C     3.08672  3.08672  0.00000 -0.17343
      13     H     0.44552  0.44552  0.00000  0.10895
      14     H     0.45450  0.45450  0.00000  0.09100
      15     C     3.14952  3.14952  0.00000 -0.29904
      16     H     0.45216  0.45216  0.00000  0.09569
      17     H     0.45407  0.45407  0.00000  0.09185
      18     H     0.44755  0.44755  0.00000  0.10489
      19     H     0.45362  0.45362  0.00000  0.09275
      20     H     0.45508  0.45508  0.00000  0.08983

   Total alpha = 32.00000, Total beta = 32.00000, Total charge = -0.00000

*** Psi4 exiting successfully. Buy a developer a beer!
