                              Psi4 1.0.54 Driver

  ==> Input File <==

--------------------------------------------------------------------------
set {
	reference rhf
	basis cc-pvtz
}

set_num_threads( 4 )
memory 2 gb

molecule MOL {
0 1

O	 0.714607	 0.658426	 -0.974930
C	 1.121787	 0.124983	 0.000110
C	 0.539878	 0.266447	 1.383162
O	 2.167739	 -0.685178	 -0.000678
C	 -0.668836	 1.188750	 1.448673
H	 0.292230	 -0.731310	 1.730484
H	 1.336375	 0.615662	 2.032087
C	 -1.232555	 1.308656	 2.861526
H	 -1.436503	 0.821327	 0.776938
H	 -0.391317	 2.169682	 1.079485
C	 -2.445794	 2.229012	 2.938256
H	 -1.505698	 0.322314	 3.227262
H	 -0.458830	 1.677054	 3.530008
H	 -3.250339	 1.868141	 2.306540
H	 -2.824400	 2.295001	 3.951656
H	 -2.195879	 3.232721	 2.611619
C	 3.449556	 -0.089977	 -0.000570
H	 3.585694	 0.522473	 -0.879546
H	 4.155805	 -0.904274	 -0.001389
H	 3.586173	 0.521118	 0.879272

	symmetry c1
}
set optking {
	frozen_dihedral = ("
		1 2 4 17
	")
}

ee,wfn = optimize('scf', return_wfn=True)
oeprop( wfn, 'DIPOLE', 'QUADRUPOLE', 'MULLIKEN_CHARGES')
f=open( 'psi4out.xyz', 'w' )
f.write( "20  " )
f.write( str(ee) + "\n" )
f.write( MOL.save_string_xyz() )
f.close()
--------------------------------------------------------------------------

    Molecular point group: c1
  Charge       = 0
  Multiplicity = 1
  Basis Set: CC-PVTZ
  Basis Set:
  @DF-RHF Final Energy:  -384.06395773257907
    Total Energy =                       -384.0639577325789560
    Molecular point group: c1
  Basis Set: CC-PVTZ
  Basis Set:
  Basis Set: CC-PVTZ
  Basis Set:
  @DF-RHF Final Energy:  -383.96422779013869
    Total Energy =                       -383.9642277901389775
  Basis Set: CC-PVTZ
  Basis Set:
  Basis Set: CC-PVTZ
  Basis Set:
  @DF-RHF Final Energy:  -384.04776411584101
    Total Energy =                       -384.0477641158408346
  Basis Set: CC-PVTZ
  Basis Set:
  Basis Set: CC-PVTZ
  Basis Set:
  @DF-RHF Final Energy:  -384.06335687749680
    Total Energy =                       -384.0633568774966307
  Basis Set: CC-PVTZ
  Basis Set:
  @DF-RHF Final Energy:  -384.06175357480754
    Total Energy =                       -384.0617535748074260
  @DF-RHF Final Energy:  -384.06470788614359
    Total Energy =                       -384.0647078861437649
  Basis Set: CC-PVTZ
  Basis Set:
  @DF-RHF Final Energy:  -384.06524641422203
    Total Energy =                       -384.0652464142220879
  Basis Set: CC-PVTZ
  Basis Set:
  Basis Set: CC-PVTZ
  Basis Set:
  @DF-RHF Final Energy:  -384.06525526512263
    Total Energy =                       -384.0652552651226870
  Basis Set: CC-PVTZ
  Basis Set:
  Basis Set: CC-PVTZ
  Basis Set:
  @DF-RHF Final Energy:  -384.06525661462348
    Total Energy =                       -384.0652566146234221
  Basis Set: CC-PVTZ
  Basis Set:
  Charge       = 0
  Multiplicity = 1
  Basis Set: CC-PVTZ
  Basis Set:

    Orbital Energies (a.u.)
    -----------------------

    Doubly Occupied:

       1A    -20.578175     2A    -20.545649     3A    -11.367793
       4A    -11.287655     5A    -11.237856     6A    -11.220878
       7A    -11.220003     8A    -11.210594     9A     -1.462124
      10A     -1.369430    11A     -1.091528    12A     -1.021061
      13A     -0.969972    14A     -0.895534    15A     -0.807869
      16A     -0.766952    17A     -0.698031    18A     -0.681592
      19A     -0.676098    20A     -0.644279    21A     -0.616051
      22A     -0.592016    23A     -0.588509    24A     -0.549353
      25A     -0.538090    26A     -0.513366    27A     -0.500851
      28A     -0.490436    29A     -0.479458    30A     -0.472894
      31A     -0.454699    32A     -0.436493

  @DF-RHF Final Energy:  -384.06525670371332

   => Energetics <=

    Nuclear Repulsion Energy =            381.6647998871289929
    One-Electron Energy =               -1279.4895431205736713
    Two-Electron Energy =                 513.7594865297319302
    DFT Exchange-Correlation Energy =       0.0000000000000000
    Empirical Dispersion Energy =           0.0000000000000000
    PCM Polarization Energy =               0.0000000000000000
    EFP Energy =                            0.0000000000000000
    Total Energy =                       -384.0652567037127483
    Molecular point group: c1
  Basis Set: CC-PVTZ
  Basis Set:

  -Total Gradient:
     Atom            X                  Y                   Z
    ------   -----------------  -----------------  -----------------
       1       -0.002409978273    -0.003742622542    -0.002178961022
       2        0.003481108703     0.004892258146     0.004924192132
       3       -0.000027305770    -0.000002548955    -0.000003881122
       4       -0.000972522464     0.000081010633    -0.006486411836
       5        0.000026327110    -0.000006868444    -0.000002676239
       6        0.000005843626    -0.000004431617     0.000000928702
       7        0.000005977913     0.000007091757     0.000003716626
       8       -0.000013287356     0.000010630840     0.000005921585
       9       -0.000005676061     0.000001249656    -0.000002504096
      10       -0.000001816503     0.000006832408     0.000000743329
      11        0.000007414062    -0.000011687307    -0.000004624732
      12        0.000001790325    -0.000005365895     0.000000124973
      13        0.000000185195     0.000000275203    -0.000001001780
      14        0.000000054614     0.000001094809    -0.000000051871
      15       -0.000004822176     0.000001046574     0.000004595462
      16       -0.000000472635     0.000003742266     0.000001671040
      17       -0.000100597995    -0.001233111050     0.003733446799
      18        0.000001477808     0.000004623506    -0.000004197029
      19        0.000005275511    -0.000004899685    -0.000002154877
      20        0.000001024368     0.000001679696     0.000011123958

  **** Optimization is complete! (in 10 steps) ****
    Final optimized geometry and variables:
    Molecular point group: c1

    Geometry (in Angstrom), charge = 0, multiplicity = 1:

    O            0.344187447214     0.695572526072    -1.745528434467
    C            0.776458392280    -0.048164958522    -0.942961128030
    C            0.076240060023    -0.461965768136     0.324302749474
    O            1.949273490174    -0.691252163402    -1.127410829496
    C           -1.266957057434     0.216438351756     0.548512707023
    H           -0.027405482137    -1.541827174005     0.281050106245
    H            0.756677580019    -0.269689895217     1.149422820762
    C           -1.944146225320    -0.240530341300     1.837377476595
    H           -1.913204434302     0.014351946086    -0.298099955877
    H           -1.126518035589     1.291717202064     0.568934516515
    C           -3.292290026947     0.433208658789     2.068559650793
    H           -2.080374500126    -1.318417078871     1.811570808250
    H           -1.290932436665    -0.036927703115     2.681973564024
    H           -3.979727238807     0.219490240230     1.257281527736
    H           -3.749321822562     0.089811871993     2.989309252508
    H           -3.184651897008     1.510620971597     2.133546767775
    C            3.122684104853     0.043732054883    -0.861850555023
    H            3.173422940151     0.925427804602    -1.486873974915
    H            3.953964582022    -0.605097379252    -1.084958827339
    H            3.169772286165     0.334018893888     0.182269532421

  Mulliken Charges: (a.u.)
   Center  Symbol    Alpha    Beta     Spin     Total
       1     O     4.17116  4.17116  0.00000 -0.34233
       2     C     2.78778  2.78778  0.00000  0.42443
       3     C     3.11501  3.11501  0.00000 -0.23003
       4     O     4.17016  4.17016  0.00000 -0.34033
       5     C     3.08257  3.08257  0.00000 -0.16514
       6     H     0.43711  0.43711  0.00000  0.12578
       7     H     0.44439  0.44439  0.00000  0.11123
       8     C     3.08597  3.08597  0.00000 -0.17195
       9     H     0.44459  0.44459  0.00000  0.11081
      10     H     0.44775  0.44775  0.00000  0.10449
      11     C     3.14938  3.14938  0.00000 -0.29876
      12     H     0.45447  0.45447  0.00000  0.09106
      13     H     0.45563  0.45563  0.00000  0.08873
      14     H     0.45328  0.45328  0.00000  0.09344
      15     H     0.44810  0.44810  0.00000  0.10381
      16     H     0.45402  0.45402  0.00000  0.09196
      17     C     3.03512  3.03512  0.00000 -0.07024
      18     H     0.45204  0.45204  0.00000  0.09592
      19     H     0.44369  0.44369  0.00000  0.11262
      20     H     0.46776  0.46776  0.00000  0.06448

   Total alpha = 32.00000, Total beta = 32.00000, Total charge =  0.00000

*** Psi4 exiting successfully. Buy a developer a beer!
