  ==> Input File <==

--------------------------------------------------------------------------
set {
	reference rhf
	basis 6-31G*
}

set_num_threads( 4 )
memory 2 gb

molecule MOL {
0 1

H	 2.332609	 0.878551	 -1.051851
C	 2.357710	 0.000000	 -0.417167
C	 1.175432	 0.000000	 0.532082
H	 3.291263	 0.000000	 0.136880
H	 2.332609	 -0.878551	 -1.051851
O	 0.000000	 0.000000	 -0.221444
H	 1.206604	 0.877321	 1.177902
H	 1.206604	 -0.877321	 1.177902
C	 -1.175432	 0.000000	 0.532082
C	 -2.070336	 -1.116705	 0.031110
H	 -1.679847	 0.961652	 0.439685
H	 -0.944060	 -0.142897	 1.587446
H	 -2.309514	 -0.968295	 -1.015826
H	 -2.996412	 -1.145761	 0.596821
H	 -1.572695	 -2.074393	 0.133545

	symmetry c1
}
set optking {
	frozen_dihedral = ("
		11 9 6 3
	")
}

ee = optimize('scf')
oeprop('DIPOLE', 'QUADRUPOLE', 'MULLIKEN_CHARGES')
f=open( 'psi4out.xyz', 'w' )
f.write( "15  " )
f.write( str(ee) + "\n" )
f.write( MOL.save_string_xyz() )
f.close()
--------------------------------------------------------------------------

    Molecular point group: c1
  Charge       = 0
  Multiplicity = 1
  Basis Set: 6-31G*
  Basis Set:
  @DF-RHF Final Energy:  -232.14080073578887
    Total Energy =                       -232.1408007357889005
    Molecular point group: c1
  Basis Set: 6-31G*
  Basis Set:
  Basis Set: 6-31G*
  Basis Set:
  @DF-RHF Final Energy:  -232.14107954842586
    Total Energy =                       -232.1410795484260916
  Basis Set: 6-31G*
  Basis Set:
  Basis Set: 6-31G*
  Basis Set:
  @DF-RHF Final Energy:  -232.14116659833775
    Total Energy =                       -232.1411665983375769
  Basis Set: 6-31G*
  Basis Set:
  Charge       = 0
  Multiplicity = 1
  Basis Set: 6-31G*
  Basis Set:

    Orbital Energies (a.u.)
    -----------------------

    Doubly Occupied:

       1A    -20.548062     2A    -11.268975     3A    -11.267746
       4A    -11.208495     5A    -11.208385     6A     -1.373101
       7A     -1.042834     8A     -0.982830     9A     -0.850435
      10A     -0.823179    11A     -0.671079    12A     -0.662396
      13A     -0.625735    14A     -0.579539    15A     -0.550033
      16A     -0.535694    17A     -0.522230    18A     -0.499118
      19A     -0.485968    20A     -0.462983    21A     -0.404722

  @DF-RHF Final Energy:  -232.14116763011185

   => Energetics <=

    Nuclear Repulsion Energy =            191.2681884530349521
    One-Electron Energy =                -693.6716350333481387
    Two-Electron Energy =                 270.2622789502013347
    DFT Exchange-Correlation Energy =       0.0000000000000000
    Empirical Dispersion Energy =           0.0000000000000000
    PCM Polarization Energy =               0.0000000000000000
    EFP Energy =                            0.0000000000000000
    Total Energy =                       -232.1411676301118518
    Molecular point group: c1
  Basis Set: 6-31G*
  Basis Set:

  -Total Gradient:
     Atom            X                  Y                   Z
    ------   -----------------  -----------------  -----------------
       1       -0.000009045404    -0.000012324127     0.000016263832
       2        0.000009692361    -0.000014376862     0.000005637512
       3        0.000061467672    -0.001149806178    -0.000035508963
       4        0.000035634999    -0.000001593148    -0.000002460894
       5        0.000001165015     0.000006316220     0.000001658735
       6       -0.000264108914     0.001575464092    -0.000250496649
       7       -0.000011166029    -0.000011302670     0.000001454538
       8       -0.000023541526     0.000010714034    -0.000025866737
       9        0.000973532300     0.000056089402     0.001400462340
      10       -0.000015822290     0.000048518692     0.000011068389
      11       -0.000745378693    -0.000527979064    -0.001159142838
      12       -0.000032268213    -0.000005422026     0.000032413074
      13        0.000001777941    -0.000003019217    -0.000010216273
      14       -0.000000980718     0.000004043204     0.000002232572
      15        0.000019041500     0.000024677648     0.000012501362

  **** Optimization is complete! (in 4 steps) ****
    Final optimized geometry and variables:
    Molecular point group: c1

    Geometry (in Angstrom), charge = 0, multiplicity = 1:

    H            2.266684641595     1.106618814036    -1.161880349761
    C            2.301540003961     0.230932641093    -0.523735001080
    C            1.135531560948     0.237144632822     0.445085038601
    H            3.244563185313     0.232048817882     0.014430688159
    H            2.263766346789    -0.650361262048    -1.154049717452
    O           -0.051397249989     0.231301597378    -0.292808693779
    H            1.181054068178     1.118213401749     1.084099338744
    H            1.178405874639    -0.636400414703     1.094450877532
    C           -1.242526238179     0.210787655814     0.447289568126
    C           -2.146655065094    -0.894041567557    -0.071659827987
    H           -1.737441235550     1.172753106196     0.343642105141
    H           -1.035252608536     0.059979586778     1.503417738338
    H           -2.344098027541    -0.752204048064    -1.128329507756
    H           -3.094888956947    -0.895853715702     0.458206271262
    H           -1.677302773460    -1.863647124592     0.057011676978

  Mulliken Charges: (a.u.)
   Center  Symbol    Alpha    Beta     Spin     Total
       1     H     0.41318  0.41318  0.00000  0.17363
       2     C     3.24452  3.24452  0.00000 -0.48905
       3     C     2.98815  2.98815  0.00000  0.02370
       4     H     0.42277  0.42277  0.00000  0.15445
       5     H     0.41358  0.41358  0.00000  0.17285
       6     O     4.31210  4.31210  0.00000 -0.62421
       7     H     0.43190  0.43190  0.00000  0.13621
       8     H     0.43233  0.43233  0.00000  0.13534
       9     C     2.98879  2.98879  0.00000  0.02242
      10     C     3.24232  3.24232  0.00000 -0.48463
      11     H     0.42445  0.42445  0.00000  0.15111
      12     H     0.43075  0.43075  0.00000  0.13849
      13     H     0.41266  0.41266  0.00000  0.17469
      14     H     0.42433  0.42433  0.00000  0.15135
      15     H     0.41817  0.41817  0.00000  0.16365

   Total alpha = 21.00000, Total beta = 21.00000, Total charge =  0.00000
