  ==> Input File <==

--------------------------------------------------------------------------
set {
	reference rhf
	basis 6-31G*
}

set_num_threads( 4 )
memory 2 gb

molecule MOL {
0 1

H	 3.759537	 -0.230507	 0.749350
O	 2.857837	 -0.426989	 0.984053
C	 2.077727	 -0.067559	 -0.035091
C	 0.624473	 -0.343591	 0.253101
O	 2.518352	 0.408664	 -1.030117
C	 -0.265902	 0.883932	 0.072916
H	 0.324016	 -1.163849	 -0.390541
H	 0.565024	 -0.726111	 1.268924
C	 -1.728698	 0.646073	 0.462102
H	 -0.209144	 1.219470	 -0.958188
H	 0.135059	 1.692851	 0.673903
C	 -2.482460	 -0.343073	 -0.431425
H	 -2.245265	 1.602650	 0.432430
H	 -1.779332	 0.308348	 1.496285
C	 -3.960546	 -0.461025	 -0.060175
H	 -2.395034	 -0.026811	 -1.468912
H	 -2.024850	 -1.327147	 -0.371646
H	 -4.472726	 -1.168004	 -0.705284
H	 -4.465146	 0.496508	 -0.151489
H	 -4.081218	 -0.800940	 0.964585

	symmetry c1
}
set optking {
	frozen_dihedral = ("
		5 3 4 7
	")
}

ee = optimize('scf')
oeprop('DIPOLE', 'QUADRUPOLE', 'MULLIKEN_CHARGES')
f=open( 'psi4out.xyz', 'w' )
f.write( "20  " )
f.write( str(ee) + "\n" )
f.write( MOL.save_string_xyz() )
f.close()
--------------------------------------------------------------------------

    Molecular point group: c1
  Charge       = 0
  Multiplicity = 1
  Basis Set: 6-31G*
  Basis Set:
  @DF-RHF Final Energy:  -383.94658526265727
    Total Energy =                       -383.9465852626570950
    Molecular point group: c1
  Basis Set: 6-31G*
  Basis Set:
  Basis Set: 6-31G*
  Basis Set:
  @DF-RHF Final Energy:  -383.94720077203135
    Total Energy =                       -383.9472007720314650
  Basis Set: 6-31G*
  Basis Set:
  Basis Set: 6-31G*
  Basis Set:
  @DF-RHF Final Energy:  -383.94652835947778
    Total Energy =                       -383.9465283594776679
  Basis Set: 6-31G*
  Basis Set:
  Basis Set: 6-31G*
  Basis Set:
  @DF-RHF Final Energy:  -383.94727979413096
    Total Energy =                       -383.9472797941310205
  Basis Set: 6-31G*
  Basis Set:
  Basis Set: 6-31G*
  Basis Set:
  @DF-RHF Final Energy:  -383.94726938220464
    Total Energy =                       -383.9472693822052634
  Basis Set: 6-31G*
  Basis Set:
  Basis Set: 6-31G*
  Basis Set:
  @DF-RHF Final Energy:  -383.94728550150944
    Total Energy =                       -383.9472855015096684
  Basis Set: 6-31G*
  Basis Set:
  Charge       = 0
  Multiplicity = 1
  Basis Set: 6-31G*
  Basis Set:

    Orbital Energies (a.u.)
    -----------------------

    Doubly Occupied:

       1A    -20.614601     2A    -20.548457     3A    -11.380651
       4A    -11.238916     5A    -11.228168     6A    -11.222213
       7A    -11.220810     8A    -11.212824     9A     -1.474883
      10A     -1.364425    11A     -1.097285    12A     -1.040914
      13A     -0.960731    14A     -0.867655    15A     -0.819744
      16A     -0.781436    17A     -0.700997    18A     -0.688977
      19A     -0.655202    20A     -0.632137    21A     -0.613118
      22A     -0.593762    23A     -0.576362    24A     -0.556630
      25A     -0.538748    26A     -0.516524    27A     -0.496119
      28A     -0.482409    29A     -0.469940    30A     -0.467155
      31A     -0.459003    32A     -0.438989

  @DF-RHF Final Energy:  -383.94728578504663

   => Energetics <=

    Nuclear Repulsion Energy =            376.0503710541725582
    One-Electron Energy =               -1268.0757461038938345
    Two-Electron Energy =                 508.0780892646750999
    DFT Exchange-Correlation Energy =       0.0000000000000000
    Empirical Dispersion Energy =           0.0000000000000000
    PCM Polarization Energy =               0.0000000000000000
    EFP Energy =                            0.0000000000000000
    Total Energy =                       -383.9472857850462333
    Molecular point group: c1
  Basis Set: 6-31G*
  Basis Set:

  -Total Gradient:
     Atom            X                  Y                   Z
    ------   -----------------  -----------------  -----------------
       1        0.000002025611     0.000003826816     0.000002084486
       2       -0.000021484712    -0.000013988116    -0.000011614108
       3       -0.000168252693     0.001321146599     0.000422720616
       4        0.000351431932    -0.001073272705     0.000502621048
       5        0.000072890610    -0.000819029965    -0.000373977449
       6        0.000001417270     0.000034286887     0.000025426812
       7       -0.000260735828     0.000547219267    -0.000554762839
       8        0.000004817194    -0.000006032586     0.000012484281
       9        0.000001691247    -0.000006336219    -0.000021008556
      10        0.000001274288     0.000015896060     0.000005817072
      11       -0.000012548904    -0.000003949807    -0.000011949191
      12        0.000003643254    -0.000004288807     0.000010426113
      13       -0.000003620659    -0.000001330121    -0.000004160116
      14        0.000015361860     0.000000741333    -0.000002680650
      15       -0.000001076705     0.000005161352    -0.000002535892
      16        0.000004617482     0.000001415923     0.000001130980
      17        0.000009911023    -0.000003779572     0.000002359308
      18        0.000000135294     0.000000014276    -0.000000443662
      19       -0.000003174699     0.000000961636    -0.000000400389
      20        0.000001677126     0.000001337752    -0.000001537864

  **** Optimization is complete! (in 7 steps) ****
    Final optimized geometry and variables:
    Molecular point group: c1

    Geometry (in Angstrom), charge = 0, multiplicity = 1:

    H            3.803344114375    -0.280947927984     0.576174175034
    O            2.922479004360    -0.475991153971     0.882002457333
    C            2.065493125531    -0.092434160080    -0.060817714805
    C            0.628718737536    -0.379217189187     0.296536250408
    O            2.426984490494     0.405666575249    -1.078112283062
    C           -0.261601071933     0.851323013325     0.080023963100
    H            0.311179836491    -1.189285922384    -0.352118631269
    H            0.572283494846    -0.730511411802     1.319101940645
    C           -1.732814311398     0.619108067271     0.438849380389
    H           -0.175352532932     1.168969713245    -0.953335133902
    H            0.119758396133     1.668277734932     0.687169211469
    C           -2.466090384329    -0.378712300101    -0.461822804429
    H           -2.246502495222     1.576301714904     0.385890552023
    H           -1.807365986235     0.293502896049     1.475171650485
    C           -3.953691674602    -0.486461038797    -0.127034329325
    H           -2.350194455326    -0.076305984958    -1.500418981078
    H           -2.014313107612    -1.363515564884    -0.377197788360
    H           -4.451263456158    -1.200789749425    -0.775373382033
    H           -4.452477864894     0.471219762969    -0.244903793885
    H           -4.102075252122    -0.811641588772     0.898870208899

  Mulliken Charges: (a.u.)
   Center  Symbol    Alpha    Beta     Spin     Total
       1     H     0.26840  0.26840  0.00000  0.46320
       2     O     4.34862  4.34862  0.00000 -0.69725
       3     C     2.62381  2.62381  0.00000  0.75237
       4     C     3.20994  3.20994  0.00000 -0.41987
       5     O     4.28067  4.28067  0.00000 -0.56134
       6     C     3.16242  3.16242  0.00000 -0.32484
       7     H     0.39688  0.39688  0.00000  0.20625
       8     H     0.39944  0.39944  0.00000  0.20113
       9     C     3.15411  3.15411  0.00000 -0.30822
      10     H     0.40349  0.40349  0.00000  0.19303
      11     H     0.41470  0.41470  0.00000  0.17060
      12     C     3.15514  3.15514  0.00000 -0.31027
      13     H     0.41788  0.41788  0.00000  0.16424
      14     H     0.42268  0.42268  0.00000  0.15464
      15     C     3.23942  3.23942  0.00000 -0.47884
      16     H     0.41992  0.41992  0.00000  0.16016
      17     H     0.42257  0.42257  0.00000  0.15487
      18     H     0.41796  0.41796  0.00000  0.16408
      19     H     0.42066  0.42066  0.00000  0.15869
      20     H     0.42131  0.42131  0.00000  0.15738

   Total alpha = 32.00000, Total beta = 32.00000, Total charge =  0.00000
