                              Psi4 1.0.54 Driver

  ==> Input File <==

--------------------------------------------------------------------------
set {
	reference rhf
	basis cc-pvtz
}

set_num_threads( 4 )
memory 2 gb

molecule MOL {
0 1

H	 -4.340537	 -0.784487	 0.000000
O	 -3.958786	 0.074640	 0.000000
C	 -2.613554	 0.009900	 0.000000
C	 -1.973435	 -0.020906	 1.227792
C	 -1.869944	 -0.025887	 -1.163894
H	 -2.560247	 0.007334	 2.124294
C	 -0.599055	 -0.087049	 1.286108
H	 -2.359395	 -0.002332	 -2.120162
C	 -0.489848	 -0.092305	 -1.103553
H	 -0.105727	 -0.110791	 2.236808
C	 0.140078	 -0.122620	 0.119046
H	 0.082672	 -0.119858	 -2.008631
Br	 2.034334	 -0.213782	 0.204843

	symmetry c1
}
set optking {
	frozen_dihedral = ("
		4 3 2 1
	")
}

ee,wfn = optimize('scf', return_wfn=True)
oeprop( wfn, 'DIPOLE', 'QUADRUPOLE', 'MULLIKEN_CHARGES')
f=open( 'psi4out.xyz', 'w' )
f.write( "13  " )
f.write( str(ee) + "\n" )
f.write( MOL.save_string_xyz() )
f.close()
--------------------------------------------------------------------------

    Molecular point group: c1
  Charge       = 0
  Multiplicity = 1
  Basis Set: CC-PVTZ
  Basis Set:
  @DF-RHF Final Energy: -2877.54182289672644
    Total Energy =                      -2877.5418228967291725
    Molecular point group: c1
  Basis Set: CC-PVTZ
  Basis Set:
  Basis Set: CC-PVTZ
  Basis Set:
  @DF-RHF Final Energy: -2877.54269884597034
    Total Energy =                      -2877.5426988459694257
  Basis Set: CC-PVTZ
  Basis Set:
  Basis Set: CC-PVTZ
  Basis Set:
  @DF-RHF Final Energy: -2877.54275765009834
    Total Energy =                      -2877.5427576500997020
  Basis Set: CC-PVTZ
  Basis Set:
  Basis Set: CC-PVTZ
  Basis Set:
  @DF-RHF Final Energy: -2877.54276410415696
    Total Energy =                      -2877.5427641041587776
  Basis Set: CC-PVTZ
  Basis Set:
  Charge       = 0
  Multiplicity = 1
  Basis Set: CC-PVTZ
  Basis Set:

    Orbital Energies (a.u.)
    -----------------------

    Doubly Occupied:

       1A   -490.021053     2A    -65.161387     3A    -58.516611
       4A    -58.515246     5A    -58.515230     6A    -20.582256
       7A    -11.302691     8A    -11.294285     9A    -11.251892
      10A    -11.251844    11A    -11.242189    12A    -11.242063
      13A     -9.835192    14A     -7.446815    15A     -7.440025
      16A     -7.440007    17A     -3.190508    18A     -3.186965
      19A     -3.186817    20A     -3.178181    21A     -3.178177
      22A     -1.409881    23A     -1.180844    24A     -1.067804
      25A     -1.041841    26A     -0.970627    27A     -0.862193
      28A     -0.826336    29A     -0.752585    30A     -0.677004
      31A     -0.665203    32A     -0.646594    33A     -0.610490
      34A     -0.599738    35A     -0.547088    36A     -0.532865
      37A     -0.502655    38A     -0.486490    39A     -0.435676
      40A     -0.415814    41A     -0.358930    42A     -0.329897

  @DF-RHF Final Energy: -2877.54276535652480

   => Energetics <=

    Nuclear Repulsion Energy =            525.1197768439308220
    One-Electron Energy =               -5041.5251111382694944
    Two-Electron Energy =                1638.8625689378163770
    DFT Exchange-Correlation Energy =       0.0000000000000000
    Empirical Dispersion Energy =           0.0000000000000000
    PCM Polarization Energy =               0.0000000000000000
    EFP Energy =                            0.0000000000000000
    Total Energy =                      -2877.5427653565225228
    Molecular point group: c1
  Basis Set: CC-PVTZ
  Basis Set:

  -Total Gradient:
     Atom            X                  Y                   Z
    ------   -----------------  -----------------  -----------------
       1       -0.000014900831    -0.000010759267    -0.000098832220
       2       -0.000178983094     0.000023393770     0.000140004170
       3        0.000262122167    -0.000044842887    -0.000215938788
       4        0.000001652722     0.000058610095     0.000103693343
       5       -0.000152915320    -0.000027555537     0.000034494366
       6        0.000026433918     0.000007316347    -0.000021856155
       7       -0.000080819668    -0.000040858463     0.000055607736
       8       -0.000030084298     0.000011184972     0.000012226109
       9        0.000148428840    -0.000024007921     0.000097001671
      10        0.000042916365     0.000004707729    -0.000010156507
      11        0.000019709041     0.000047417494    -0.000135657540
      12       -0.000013134809     0.000000974846     0.000009389087
      13       -0.000030425215    -0.000005581217     0.000030024755

  **** Optimization is complete! (in 5 steps) ****
    Final optimized geometry and variables:
    Molecular point group: c1

    Geometry (in Angstrom), charge = 0, multiplicity = 1:

    H           -4.359686109721    -0.650405169741    -0.154130958642
    O           -3.964005841619     0.203767441632    -0.158273683454
    C           -2.603153063554     0.106265850933    -0.103483386323
    C           -1.961037438292     0.084129360218     1.119027524566
    C           -1.866778670856     0.081476273875    -1.270979569377
    H           -2.542083911509     0.121239376559     2.019647819219
    C           -0.582139600610     0.026055113757     1.176642437924
    H           -2.375432213061     0.115922474175    -2.214478713977
    C           -0.487195967605     0.024145934925    -1.219358966645
    H           -0.082569576599     0.009070026362     2.124037901347
    C            0.145408034519    -0.005424916812     0.005385524805
    H            0.085164436332     0.005353788633    -2.124566245956
    BR           2.040208687648    -0.084353956257     0.081058426724

  Mulliken Charges: (a.u.)
   Center  Symbol    Alpha    Beta     Spin     Total
       1     H     0.38735  0.38735  0.00000  0.22530
       2     O     4.18891  4.18891  0.00000 -0.37782
       3     C     2.88203  2.88203  0.00000  0.23595
       4     C     3.09311  3.09311  0.00000 -0.18622
       5     C     3.09241  3.09241  0.00000 -0.18482
       6     H     0.41375  0.41375  0.00000  0.17250
       7     C     3.08918  3.08918  0.00000 -0.17837
       8     H     0.41359  0.41359  0.00000  0.17282
       9     C     3.08918  3.08918  0.00000 -0.17835
      10     H     0.41004  0.41004  0.00000  0.17991
      11     C     2.96648  2.96648  0.00000  0.06704
      12     H     0.41002  0.41002  0.00000  0.17996
      13    BR    17.56395 17.56395  0.00000 -0.12790

   Total alpha = 42.00000, Total beta = 42.00000, Total charge = -0.00000

*** Psi4 exiting successfully. Buy a developer a beer!
