                              Psi4 1.0.54 Driver

  ==> Input File <==

--------------------------------------------------------------------------
set {
	reference rhf
	basis cc-pvtz
}

set_num_threads( 4 )
memory 2 gb

molecule MOL {
0 1

H	 -3.257640	 0.975694	 -1.692250
C	 -2.359072	 1.518906	 -2.015332
C	 -1.556841	 2.135595	 -0.901774
O	 -2.093708	 1.592312	 -3.164898
C	 -1.216901	 1.136108	 0.207794
H	 -0.665579	 2.580537	 -1.324873
H	 -2.165681	 2.936121	 -0.487315
C	 -0.247837	 0.040196	 -0.230469
H	 -0.790062	 1.682108	 1.042080
H	 -2.133947	 0.685622	 0.579657
C	 1.181757	 0.280428	 0.247371
H	 -0.259600	 -0.030819	 -1.314870
H	 -0.591284	 -0.923375	 0.136958
C	 2.151032	 -0.811012	 -0.202643
H	 1.515939	 1.247397	 -0.115449
H	 1.191514	 0.341223	 1.333422
C	 3.580021	 -0.656538	 0.320835
H	 2.170545	 -0.847575	 -1.289412
H	 1.766632	 -1.772905	 0.124928
C	 4.327657	 0.562694	 -0.213579
H	 4.138806	 -1.549270	 0.057813
H	 3.561991	 -0.620783	 1.406976
H	 4.355973	 0.557257	 -1.298551
H	 3.867136	 1.491650	 0.100501
H	 5.351524	 0.571613	 0.142204

	symmetry c1
}
set optking {
	frozen_dihedral = ("
		3 5 8 12
	")
}

ee,wfn = optimize('scf', return_wfn=True)
oeprop( wfn, 'DIPOLE', 'QUADRUPOLE', 'MULLIKEN_CHARGES')
f=open( 'psi4out.xyz', 'w' )
f.write( "25  " )
f.write( str(ee) + "\n" )
f.write( MOL.save_string_xyz() )
f.close()
--------------------------------------------------------------------------

    Molecular point group: c1
  Charge       = 0
  Multiplicity = 1
  Basis Set: CC-PVTZ
  Basis Set:
  @DF-RHF Final Energy:  -387.25580287688257
    Total Energy =                       -387.2558028768825125
    Molecular point group: c1
  Basis Set: CC-PVTZ
  Basis Set:
  Basis Set: CC-PVTZ
  Basis Set:
  @DF-RHF Final Energy:  -387.25603168075520
    Total Energy =                       -387.2560316807549725
  Basis Set: CC-PVTZ
  Basis Set:
  Basis Set: CC-PVTZ
  Basis Set:
  @DF-RHF Final Energy:  -387.25596929524966
    Total Energy =                       -387.2559692952498835
  Basis Set: CC-PVTZ
  Basis Set:
  Basis Set: CC-PVTZ
  Basis Set:
  @DF-RHF Final Energy:  -387.25603023814500
    Total Energy =                       -387.2560302381448309
  Basis Set: CC-PVTZ
  Basis Set:
  Basis Set: CC-PVTZ
  Basis Set:
  @DF-RHF Final Energy:  -387.25611994010245
    Total Energy =                       -387.2561199401023941
  Basis Set: CC-PVTZ
  Basis Set:
  Basis Set: CC-PVTZ
  Basis Set:
  @DF-RHF Final Energy:  -387.25615314795260
    Total Energy =                       -387.2561531479523182
  Basis Set: CC-PVTZ
  Basis Set:
  Basis Set: CC-PVTZ
  Basis Set:
  @DF-RHF Final Energy:  -387.25615418419318
    Total Energy =                       -387.2561541841936332
  Basis Set: CC-PVTZ
  Basis Set:
  Charge       = 0
  Multiplicity = 1
  Basis Set: CC-PVTZ
  Basis Set:

    Orbital Energies (a.u.)
    -----------------------

    Doubly Occupied:

       1A    -20.552300     2A    -11.321283     3A    -11.234150
       4A    -11.232784     5A    -11.220611     6A    -11.216793
       7A    -11.215157     8A    -11.213658     9A    -11.207365
      10A     -1.407075    11A     -1.103617    12A     -1.069484
      13A     -1.012796    14A     -0.942465    15A     -0.876481
      16A     -0.821329    17A     -0.787186    18A     -0.780695
      19A     -0.668998    20A     -0.655662    21A     -0.644806
      22A     -0.619253    23A     -0.608942    24A     -0.592087
      25A     -0.575133    26A     -0.547840    27A     -0.541130
      28A     -0.523658    29A     -0.513062    30A     -0.501114
      31A     -0.485379    32A     -0.475811    33A     -0.463220
      34A     -0.456937    35A     -0.442085    36A     -0.412622

  @DF-RHF Final Energy:  -387.25615514569182

   => Energetics <=

    Nuclear Repulsion Energy =            444.4868366737634346
    One-Electron Energy =               -1405.6000514940947141
    Two-Electron Energy =                 573.8570596746399133
    DFT Exchange-Correlation Energy =       0.0000000000000000
    Empirical Dispersion Energy =           0.0000000000000000
    PCM Polarization Energy =               0.0000000000000000
    EFP Energy =                            0.0000000000000000
    Total Energy =                       -387.2561551456913094
    Molecular point group: c1
  Basis Set: CC-PVTZ
  Basis Set:

  -Total Gradient:
     Atom            X                  Y                   Z
    ------   -----------------  -----------------  -----------------
       1        0.000001151000     0.000007523556    -0.000014250791
       2        0.000051100107    -0.000014827588     0.000006398943
       3       -0.001638699196    -0.001311325427    -0.000573631339
       4       -0.000035364394    -0.000010574557    -0.000103095277
       5        0.002878037569     0.002311972759     0.000958011544
       6       -0.000026151348     0.000005449551    -0.000023922106
       7       -0.000002726007     0.000021136937     0.000004763084
       8       -0.003453771632    -0.003060835465    -0.000207115759
       9       -0.000005338097    -0.000014744619     0.000024773509
      10        0.000005474608    -0.000002420490     0.000012739986
      11        0.000037399094     0.000016215686    -0.000003156492
      12        0.002222930743     0.002026169730    -0.000093348763
      13       -0.000011206514     0.000002443795     0.000003584500
      14       -0.000019160878     0.000007587770    -0.000005566351
      15        0.000016209237     0.000004618409     0.000003898449
      16        0.000008271729    -0.000011393755    -0.000002675385
      17       -0.000004299241     0.000019584672     0.000010427217
      18       -0.000001742099     0.000007158444    -0.000003014683
      19       -0.000012487149     0.000000743147     0.000002325828
      20       -0.000003766724    -0.000005787402     0.000003102506
      21       -0.000010968711     0.000000158529    -0.000004125727
      22        0.000004856479     0.000001540554     0.000004439299
      23       -0.000001190912    -0.000000279280     0.000000285810
      24       -0.000001293801     0.000000094598    -0.000001920097
      25        0.000002736136    -0.000000209552     0.000001072090

  **** Optimization is complete! (in 8 steps) ****
    Final optimized geometry and variables:
    Molecular point group: c1

    Geometry (in Angstrom), charge = 0, multiplicity = 1:

    H           -3.723781674594     0.371846209874    -1.066147414604
    C           -2.787676994092     0.854392853307    -1.377894649198
    C           -1.988505081196     1.468201369814    -0.260723215763
    O           -2.480307973413     0.867170690667    -2.519451546723
    C           -1.678795467954     0.462670356999     0.854408210644
    H           -1.086177552734     1.896299150207    -0.678265525346
    H           -2.588227270356     2.280157976646     0.144647357296
    C           -0.682264632708    -0.636859935419     0.442087793860
    H           -1.298240274274     1.001551912463     1.713857174236
    H           -2.613098271976     0.013102241050     1.177548394289
    C            0.738997000850    -0.371888726946     0.940549658614
    H           -0.647530534216    -0.714065852364    -0.640210730108
    H           -1.015614315583    -1.598734760681     0.815417870973
    C            1.738453462152    -1.428886104368     0.476631819120
    H            1.053799288168     0.610881526818     0.602838966661
    H            0.734273214035    -0.334894109053     2.027577624571
    C            3.154486366848    -1.260911279586     1.030348671823
    H            1.777528446514    -1.433030905131    -0.610073628161
    H            1.368333754855    -2.407792073701     0.769477224233
    C            3.883778298294    -0.009306040216     0.548011159295
    H            3.737207474777    -2.132563292292     0.749073467385
    H            3.117089764517    -1.260351965420     2.116628810255
    H            3.929077809798     0.021472522330    -0.535855999902
    H            3.398132214838     0.898847647237     0.884342777556
    H            4.901445408873     0.009737005477     0.920857200065

  Mulliken Charges: (a.u.)
   Center  Symbol    Alpha    Beta     Spin     Total
       1     H     0.46398  0.46398  0.00000  0.07205
       2     C     2.90433  2.90433  0.00000  0.19133
       3     C     3.08577  3.08577  0.00000 -0.17153
       4     O     4.16612  4.16612  0.00000 -0.33224
       5     C     3.12401  3.12401  0.00000 -0.24801
       6     H     0.44335  0.44335  0.00000  0.11330
       7     H     0.44218  0.44218  0.00000  0.11564
       8     C     3.09991  3.09991  0.00000 -0.19982
       9     H     0.44278  0.44278  0.00000  0.11443
      10     H     0.44248  0.44248  0.00000  0.11505
      11     C     3.09027  3.09027  0.00000 -0.18054
      12     H     0.44697  0.44697  0.00000  0.10605
      13     H     0.44494  0.44494  0.00000  0.11013
      14     C     3.09665  3.09665  0.00000 -0.19331
      15     H     0.45147  0.45147  0.00000  0.09707
      16     H     0.45371  0.45371  0.00000  0.09259
      17     C     3.09040  3.09040  0.00000 -0.18080
      18     H     0.45094  0.45094  0.00000  0.09811
      19     H     0.44967  0.44967  0.00000  0.10065
      20     C     3.15271  3.15271  0.00000 -0.30542
      21     H     0.44797  0.44797  0.00000  0.10406
      22     H     0.45508  0.45508  0.00000  0.08983
      23     H     0.45353  0.45353  0.00000  0.09293
      24     H     0.45463  0.45463  0.00000  0.09074
      25     H     0.44614  0.44614  0.00000  0.10771

   Total alpha = 36.00000, Total beta = 36.00000, Total charge =  0.00000

*** Psi4 exiting successfully. Buy a developer a beer!
