                              Psi4 1.0.54 Driver

  ==> Input File <==

--------------------------------------------------------------------------
set {
	reference rhf
	basis cc-pvtz
}

set_num_threads( 4 )
memory 2 gb

molecule MOL {
0 1

H	 2.867672	 -0.456275	 0.875795
C	 2.403497	 -0.020426	 0.000000
N	 0.989899	 -0.304564	 0.000000
H	 2.867672	 -0.456275	 -0.875795
H	 2.620366	 1.051270	 0.000000
C	 0.187629	 0.878615	 -0.232412
C	 0.561809	 -0.982946	 1.205863
H	 0.345803	 1.628596	 0.548775
H	 0.474879	 1.324167	 -1.177769
C	 -1.282844	 0.509821	 -0.276505
H	 1.123607	 -1.903283	 1.315816
H	 0.748127	 -0.372983	 2.095230
C	 -0.918278	 -1.303909	 1.124815
H	 -1.894300	 1.397617	 -0.357532
H	 -1.473734	 -0.120805	 -1.142513
O	 -1.672421	 -0.151751	 0.890413
H	 -1.266212	 -1.727147	 2.056716
H	 -1.090303	 -2.028391	 0.331321

	symmetry c1
}
set optking {
	frozen_dihedral = ("
		6 3 2 5
	")
}

ee,wfn = optimize('scf', return_wfn=True)
oeprop( wfn, 'DIPOLE', 'QUADRUPOLE', 'MULLIKEN_CHARGES')
f=open( 'psi4out.xyz', 'w' )
f.write( "18  " )
f.write( str(ee) + "\n" )
f.write( MOL.save_string_xyz() )
f.close()
--------------------------------------------------------------------------

    Molecular point group: c1
  Charge       = 0
  Multiplicity = 1
  Basis Set: CC-PVTZ
  Basis Set:
  @DF-RHF Final Energy:  -325.13936964740986
    Total Energy =                       -325.1393696474096942
    Molecular point group: c1
  Basis Set: CC-PVTZ
  Basis Set:
  Basis Set: CC-PVTZ
  Basis Set:
  @DF-RHF Final Energy:  -325.13979097490017
    Total Energy =                       -325.1397909748999950
  Basis Set: CC-PVTZ
  Basis Set:
  Basis Set: CC-PVTZ
  Basis Set:
  @DF-RHF Final Energy:  -325.13988969620203
    Total Energy =                       -325.1398896962021468
  Basis Set: CC-PVTZ
  Basis Set:
  Basis Set: CC-PVTZ
  Basis Set:
  @DF-RHF Final Energy:  -325.13989193297596
    Total Energy =                       -325.1398919329756154
  Basis Set: CC-PVTZ
  Basis Set:
  Charge       = 0
  Multiplicity = 1
  Basis Set: CC-PVTZ
  Basis Set:

    Orbital Energies (a.u.)
    -----------------------

    Doubly Occupied:

       1A    -20.546933     2A    -15.541517     3A    -11.263523
       4A    -11.263480     5A    -11.242378     6A    -11.242352
       7A    -11.238818     8A     -1.385859     9A     -1.229186
      10A     -1.038575    11A     -0.980889    12A     -0.883265
      13A     -0.870495    14A     -0.774066    15A     -0.684319
      16A     -0.645540    17A     -0.644029    18A     -0.631786
      19A     -0.627863    20A     -0.572399    21A     -0.558414
      22A     -0.547051    23A     -0.527216    24A     -0.499995
      25A     -0.484255    26A     -0.453256    27A     -0.409693
      28A     -0.350105

  @DF-RHF Final Energy:  -325.13989221965085

   => Energetics <=

    Nuclear Repulsion Energy =            341.3914912279468581
    One-Electron Energy =               -1118.7882458308936293
    Two-Electron Energy =                 452.2568623832959815
    DFT Exchange-Correlation Energy =       0.0000000000000000
    Empirical Dispersion Energy =           0.0000000000000000
    PCM Polarization Energy =               0.0000000000000000
    EFP Energy =                            0.0000000000000000
    Total Energy =                       -325.1398922196507897
    Molecular point group: c1
  Basis Set: CC-PVTZ
  Basis Set:

  -Total Gradient:
     Atom            X                  Y                   Z
    ------   -----------------  -----------------  -----------------
       1       -0.000010183699    -0.000008642729    -0.000006052099
       2        0.000072544221     0.000150711788     0.002390825219
       3        0.000030147249    -0.000335432539    -0.002028705967
       4       -0.000014034767    -0.000003036834     0.000001682096
       5       -0.000037084616    -0.000029413884    -0.001511204586
       6       -0.000029971970     0.000240652601     0.001135154337
       7       -0.000004770178    -0.000000436793     0.000021202783
       8        0.000007004603    -0.000006530301    -0.000001884947
       9       -0.000002955081    -0.000006533850     0.000002217807
      10       -0.000001094941    -0.000008803343    -0.000010263270
      11       -0.000005724357     0.000003977827    -0.000004243622
      12       -0.000000525300    -0.000002014911    -0.000008156787
      13       -0.000008855554    -0.000004927149     0.000006882034
      14       -0.000006233616    -0.000000727009     0.000004761163
      15        0.000003243651     0.000004036679    -0.000004423998
      16        0.000009640545     0.000006007831     0.000006646577
      17       -0.000010747025    -0.000000541611     0.000002938149
      18        0.000009600835     0.000001654226     0.000002625110

  **** Optimization is complete! (in 5 steps) ****
    Final optimized geometry and variables:
    Molecular point group: c1

    Geometry (in Angstrom), charge = 0, multiplicity = 1:

    H            2.884025053630    -0.199495598070     0.459713518471
    C            2.379823124333     0.203885703756    -0.410400220847
    N            0.954982177233    -0.082535639336    -0.375047143055
    H            2.841806747482    -0.229207233149    -1.291159549008
    H            2.573988701111     1.271984206363    -0.433713712793
    C            0.127891188267     1.082677609223    -0.609283588823
    C            0.530441798962    -0.782267791039     0.820121879272
    H            0.260675597824     1.833712303870     0.175410978810
    H            0.410199188863     1.539228200049    -1.551044501132
    C           -1.333287420454     0.680971345659    -0.670548157382
    H            1.106248640742    -1.694275643723     0.924778400471
    H            0.693571499024    -0.181655125949     1.720300846014
    C           -0.941404094491    -1.134712757820     0.719739429819
    H           -1.963641863381     1.555701549797    -0.751065402787
    H           -1.500964978120     0.053224460707    -1.543539736074
    O           -1.719404311750     0.001635913797     0.487061417355
    H           -1.289544415943    -1.574618529134     1.644005690437
    H           -1.087469031271    -1.855721771734    -0.082230641455

  Mulliken Charges: (a.u.)
   Center  Symbol    Alpha    Beta     Spin     Total
       1     H     0.45874  0.45874  0.00000  0.08252
       2     C     3.08984  3.08984  0.00000 -0.17967
       3     N     3.61989  3.61989  0.00000 -0.23977
       4     H     0.44938  0.44938  0.00000  0.10124
       5     H     0.46142  0.46142  0.00000  0.07717
       6     C     3.04222  3.04222  0.00000 -0.08444
       7     C     3.04176  3.04176  0.00000 -0.08353
       8     H     0.46854  0.46854  0.00000  0.06292
       9     H     0.45349  0.45349  0.00000  0.09302
      10     C     2.98455  2.98455  0.00000  0.03089
      11     H     0.45360  0.45360  0.00000  0.09280
      12     H     0.46866  0.46866  0.00000  0.06268
      13     C     2.98456  2.98456  0.00000  0.03088
      14     H     0.45014  0.45014  0.00000  0.09973
      15     H     0.46833  0.46833  0.00000  0.06333
      16     O     4.18640  4.18640  0.00000 -0.37279
      17     H     0.45010  0.45010  0.00000  0.09980
      18     H     0.46838  0.46838  0.00000  0.06324

   Total alpha = 28.00000, Total beta = 28.00000, Total charge =  0.00000

*** Psi4 exiting successfully. Buy a developer a beer!
