  ==> Input File <==

--------------------------------------------------------------------------
set {
	reference rhf
	basis cc-pvtz
}

set_num_threads( 4 )
memory 2 gb

molecule MOL {
0 1

H	 -3.034039	 -0.667848	 0.004703
O	 -2.240597	 -1.171748	 0.000934
C	 -1.159675	 -0.364500	 0.000370
C	 -0.031049	 -0.638210	 0.745823
C	 -1.218271	 0.774230	 -0.788245
H	 0.015745	 -1.519352	 1.359385
C	 1.037347	 0.240494	 0.694488
H	 -2.111033	 0.958956	 -1.353744
C	 -0.151045	 1.648141	 -0.840090
H	 1.916009	 0.032495	 1.275401
C	 0.985581	 1.373060	 -0.086168
C	 -0.205485	 2.874210	 -1.716124
H	 1.822007	 2.045486	 -0.112538
H	 0.192163	 3.739009	 -1.199576
H	 -1.219465	 3.097606	 -2.018916
H	 0.385739	 2.728769	 -2.613867

	symmetry c1
}
set optking {
	frozen_dihedral = ("
		5 3 2 1
	")
}

ee = optimize('scf')
oeprop('DIPOLE', 'QUADRUPOLE', 'MULLIKEN_CHARGES')
f=open( 'psi4out.xyz', 'w' )
f.write( "16  " )
f.write( str(ee) + "\n" )
f.write( MOL.save_string_xyz() )
f.close()
--------------------------------------------------------------------------

    Molecular point group: c1
  Charge       = 0
  Multiplicity = 1
  Basis Set: CC-PVTZ
  Basis Set:
  @DF-RHF Final Energy:  -344.71710690670284
    Total Energy =                       -344.7171069067030658
    Molecular point group: c1
  Basis Set: CC-PVTZ
  Basis Set:
  Basis Set: CC-PVTZ
  Basis Set:
  @DF-RHF Final Energy:  -344.71864022283836
    Total Energy =                       -344.7186402228381894
  Basis Set: CC-PVTZ
  Basis Set:
  Basis Set: CC-PVTZ
  Basis Set:
  @DF-RHF Final Energy:  -344.71874869092642
    Total Energy =                       -344.7187486909266454
  Basis Set: CC-PVTZ
  Basis Set:
  Basis Set: CC-PVTZ
  Basis Set:
  @DF-RHF Final Energy:  -344.71876085790740
    Total Energy =                       -344.7187608579077960
  Basis Set: CC-PVTZ
  Basis Set:
  Basis Set: CC-PVTZ
  Basis Set:
  @DF-RHF Final Energy:  -344.71876431404638
    Total Energy =                       -344.7187643140467230
  Basis Set: CC-PVTZ
  Basis Set:
  Charge       = 0
  Multiplicity = 1
  Basis Set: CC-PVTZ
  Basis Set:

    Orbital Energies (a.u.)
    -----------------------

    Doubly Occupied:

       1A    -20.577381     2A    -11.291690     3A    -11.241945
       4A    -11.230897     5A    -11.221759     6A    -11.219902
       7A    -11.215554     8A    -11.215151     9A     -1.406402
      10A     -1.154737    11A     -1.047484    12A     -1.006892
      13A     -0.940602    14A     -0.840862    15A     -0.803741
      16A     -0.730112    17A     -0.682144    18A     -0.653639
      19A     -0.613605    20A     -0.596190    21A     -0.579567
      22A     -0.570038    23A     -0.559989    24A     -0.531380
      25A     -0.505581    26A     -0.485118    27A     -0.471091
      28A     -0.334364    29A     -0.314273

  @DF-RHF Final Energy:  -344.71876512868761

   => Energetics <=

    Nuclear Repulsion Energy =            346.1847470473554154
    One-Electron Energy =               -1153.7228482982322930
    Two-Electron Energy =                 462.8193361221889290
    DFT Exchange-Correlation Energy =       0.0000000000000000
    Empirical Dispersion Energy =           0.0000000000000000
    PCM Polarization Energy =               0.0000000000000000
    EFP Energy =                            0.0000000000000000
    Total Energy =                       -344.7187651286880055
    Molecular point group: c1
  Basis Set: CC-PVTZ
  Basis Set:

  -Total Gradient:
     Atom            X                  Y                   Z
    ------   -----------------  -----------------  -----------------
       1        0.000025613211     0.000077633588     0.002639050899
       2        0.000332230360    -0.000669815831    -0.004076967156
       3       -0.001169885862     0.001578850823     0.002938517387
       4        0.000066067674     0.000018532504    -0.000000971825
       5        0.000729131293    -0.001000845799    -0.001474736873
       6       -0.000026616273    -0.000009721489    -0.000008191471
       7       -0.000016796324    -0.000004094044     0.000018007223
       8        0.000026648323    -0.000000930377     0.000008264151
       9        0.000035737488    -0.000005862860    -0.000034974834
      10       -0.000002686218     0.000004058974    -0.000002531744
      11       -0.000002867149    -0.000010179121    -0.000012396582
      12        0.000011027279    -0.000000554180     0.000006277962
      13       -0.000005932840     0.000009189747    -0.000015154399
      14       -0.000011870488     0.000012149789     0.000012432680
      15       -0.000003082596    -0.000001976502    -0.000014606252
      16        0.000013282117     0.000003564773     0.000017980834

  **** Optimization is complete! (in 6 steps) ****
    Final optimized geometry and variables:
    Molecular point group: c1

    Geometry (in Angstrom), charge = 0, multiplicity = 1:

    H           -2.600993724161    -1.351540436742     0.290484814535
    O           -1.775836807350    -1.802135148464     0.301046300793
    C           -0.744901110703    -0.920500315155     0.267648367637
    C            0.383942806487    -1.208628751635     1.006398031208
    C           -0.790239999855     0.211079727336    -0.529187732588
    H            0.405443954257    -2.092466010988     1.612495173131
    C            1.460164230446    -0.344486756709     0.947261858920
    H           -1.670434243620     0.404842710062    -1.115102091351
    C            0.283548348619     1.083016350376    -0.580822352287
    H            2.340639727981    -0.560251945044     1.522514853003
    C            1.414746264668     0.794303234552     0.168758747593
    C            0.239446953155     2.306731692906    -1.461282625363
    H            2.258290973922     1.458062551014     0.141158370502
    H            0.651037957330     3.168246467340    -0.950322712069
    H           -0.773517926059     2.543534046284    -1.758387464038
    H            0.822190886664     2.151613120166    -2.362840780128

  Mulliken Charges: (a.u.)
   Center  Symbol    Alpha    Beta     Spin     Total
       1     H     0.38598  0.38598  0.00000  0.22804
       2     O     4.18263  4.18263  0.00000 -0.36526
       3     C     2.84939  2.84939  0.00000  0.30122
       4     C     3.12397  3.12397  0.00000 -0.24794
       5     C     3.15419  3.15419  0.00000 -0.30839
       6     H     0.41802  0.41802  0.00000  0.16396
       7     C     3.05215  3.05215  0.00000 -0.10431
       8     H     0.43002  0.43002  0.00000  0.13997
       9     C     2.94509  2.94509  0.00000  0.10981
      10     H     0.42282  0.42282  0.00000  0.15435
      11     C     3.11538  3.11538  0.00000 -0.23075
      12     C     3.14688  3.14688  0.00000 -0.29375
      13     H     0.42755  0.42755  0.00000  0.14491
      14     H     0.44761  0.44761  0.00000  0.10479
      15     H     0.45214  0.45214  0.00000  0.09572
      16     H     0.44618  0.44618  0.00000  0.10763

   Total alpha = 29.00000, Total beta = 29.00000, Total charge =  0.00000
