  ==> Input File <==

--------------------------------------------------------------------------
set {
	reference rhf
	basis cc-pvtz
}

set_num_threads( 4 )
memory 2 gb

molecule MOL {
0 1

H	 -3.840641	 -2.092644	 0.607901
C	 -2.771392	 -2.001640	 0.632396
C	 -2.024409	 -2.853106	 1.426539
C	 -2.144899	 -1.033870	 -0.129780
H	 -2.511372	 -3.604041	 2.017864
C	 -0.650467	 -2.735553	 1.457490
H	 -2.725089	 -0.374043	 -0.745312
C	 -0.769235	 -0.914911	 -0.099858
H	 -0.056855	 -3.386390	 2.066665
C	 -0.017808	 -1.766227	 0.694579
H	 -0.280937	 -0.166504	 -0.688910
C	 1.469073	 -1.679962	 0.762854
O	 1.968286	 -0.725612	 -0.000027
O	 2.140903	 -2.391905	 1.431406
C	 3.373556	 -0.568203	 0.000011
H	 3.695416	 -0.031588	 -0.879663
H	 3.782700	 -1.565294	 -0.000152
H	 3.695405	 -0.031851	 0.879862

	symmetry c1
}
set optking {
	frozen_dihedral = ("
		12 13 15 16
	")
}

ee = optimize('scf')
oeprop('DIPOLE', 'QUADRUPOLE', 'MULLIKEN_CHARGES')
f=open( 'psi4out.xyz', 'w' )
f.write( "18  " )
f.write( str(ee) + "\n" )
f.write( MOL.save_string_xyz() )
f.close()
--------------------------------------------------------------------------

    Molecular point group: c1
  Charge       = 0
  Multiplicity = 1
  Basis Set: CC-PVTZ
  Basis Set:
  @DF-RHF Final Energy:  -457.50798866390329
    Total Energy =                       -457.5079886639030065
    Molecular point group: c1
  Basis Set: CC-PVTZ
  Basis Set:
  Basis Set: CC-PVTZ
  Basis Set:
  @DF-RHF Final Energy:  -457.50928727899503
    Total Energy =                       -457.5092872789944067
  Basis Set: CC-PVTZ
  Basis Set:
  Basis Set: CC-PVTZ
  Basis Set:
  @DF-RHF Final Energy:  -457.50958748421357
    Total Energy =                       -457.5095874842136254
  Basis Set: CC-PVTZ
  Basis Set:
  Basis Set: CC-PVTZ
  Basis Set:
  @DF-RHF Final Energy:  -457.50926292589895
    Total Energy =                       -457.5092629258990655
  Basis Set: CC-PVTZ
  Basis Set:
  Basis Set: CC-PVTZ
  Basis Set:
  @DF-RHF Final Energy:  -457.50963741399073
    Total Energy =                       -457.5096374139909585
  Basis Set: CC-PVTZ
  Basis Set:
  Charge       = 0
  Multiplicity = 1
  Basis Set: CC-PVTZ
  Basis Set:

    Orbital Energies (a.u.)
    -----------------------

    Doubly Occupied:

       1A    -20.600741     2A    -20.534277     3A    -11.372134
       4A    -11.280953     5A    -11.244855     6A    -11.243414
       7A    -11.242574     8A    -11.239935     9A    -11.235969
      10A    -11.235208    11A     -1.476352    12A     -1.368713
      13A     -1.170678    14A     -1.051787    15A     -1.028957
      16A     -0.980886    17A     -0.863119    18A     -0.838363
      19A     -0.781115    20A     -0.745024    21A     -0.688016
      22A     -0.681331    23A     -0.676293    24A     -0.634105
      25A     -0.629988    26A     -0.601214    27A     -0.587636
      28A     -0.566821    29A     -0.530067    30A     -0.520225
      31A     -0.509646    32A     -0.502044    33A     -0.463586
      34A     -0.449380    35A     -0.350151    36A     -0.346156

  @DF-RHF Final Energy:  -457.50963772421483

   => Energetics <=

    Nuclear Repulsion Energy =            493.9243491952471459
    One-Electron Energy =               -1602.3245504072906442
    Two-Electron Energy =                 650.8905634878288993
    DFT Exchange-Correlation Energy =       0.0000000000000000
    Empirical Dispersion Energy =           0.0000000000000000
    PCM Polarization Energy =               0.0000000000000000
    EFP Energy =                            0.0000000000000000
    Total Energy =                       -457.5096377242147128
    Molecular point group: c1
  Basis Set: CC-PVTZ
  Basis Set:

  -Total Gradient:
     Atom            X                  Y                   Z
    ------   -----------------  -----------------  -----------------
       1        0.000000644312     0.000000823338    -0.000000228691
       2       -0.000000622984    -0.000011303460     0.000009039051
       3       -0.000006714569     0.000006677232    -0.000001178032
       4        0.000020152927     0.000005097907    -0.000006127193
       5        0.000004687201    -0.000001534891     0.000000160416
       6        0.000028855727     0.000001146865    -0.000004733333
       7        0.000003758861     0.000001901322     0.000000520000
       8        0.000008442545     0.000001370803     0.000008365684
       9        0.000001651124    -0.000004263254     0.000004880167
      10        0.000020474474     0.000002099330    -0.000016878353
      11        0.000012484728     0.000008690097    -0.000008943910
      12        0.000161405685    -0.000861962509    -0.001028299057
      13       -0.000098985662     0.001027741207     0.001292337594
      14       -0.000065931248    -0.000062257823     0.000036573863
      15       -0.000120335994     0.001221510915     0.000506849889
      16        0.000097879793    -0.001330772564    -0.000802603638
      17       -0.000041335143    -0.000006424798    -0.000001139420
      18       -0.000026511779     0.000001460285     0.000011404965

  **** Optimization is complete! (in 6 steps) ****
    Final optimized geometry and variables:
    Molecular point group: c1

    Geometry (in Angstrom), charge = 0, multiplicity = 1:

    H           -4.025005992760    -0.440715425692    -0.025433694518
    C           -2.955755385497    -0.351467784496     0.006055651975
    C           -2.215263277439    -1.205013556260     0.804179270881
    C           -2.322638769959     0.616099263825    -0.750832197102
    H           -2.707243970986    -1.955810456195     1.391613013802
    C           -0.841390013172    -1.089644128265     0.844281972044
    H           -2.897550846316     1.277747934658    -1.369411151882
    C           -0.946881044602     0.732771078048    -0.711852470098
    H           -0.252969673740    -1.742031274121     1.456899085831
    C           -0.202099420174    -0.120642180243     0.086384825098
    H           -0.453745498097     1.481262057276    -1.296815600301
    C            1.285017501154    -0.037726769738     0.164728094563
    O            1.787784571174     0.920589546624    -0.590978900408
    O            1.949059478436    -0.754452981980     0.835668793385
    C            3.193752186348     1.069293511370    -0.621115205496
    H            3.417847599525     1.621061771264    -1.519796706757
    H            3.678843504506     0.107089595574    -0.648093704123
    H            3.530150232618     1.614659815788     0.249072948094

  Mulliken Charges: (a.u.)
   Center  Symbol    Alpha    Beta     Spin     Total
       1     H     0.42031  0.42031  0.00000  0.15939
       2     C     3.06976  3.06976  0.00000 -0.13951
       3     C     3.07552  3.07552  0.00000 -0.15104
       4     C     3.07493  3.07493  0.00000 -0.14987
       5     H     0.42041  0.42041  0.00000  0.15918
       6     C     3.07588  3.07588  0.00000 -0.15176
       7     H     0.42191  0.42191  0.00000  0.15618
       8     C     3.08211  3.08211  0.00000 -0.16422
       9     H     0.40658  0.40658  0.00000  0.18683
      10     C     3.01460  3.01460  0.00000 -0.02921
      11     H     0.41107  0.41107  0.00000  0.17786
      12     C     2.77978  2.77978  0.00000  0.44045
      13     O     4.14891  4.14891  0.00000 -0.29783
      14     O     4.21141  4.21141  0.00000 -0.42281
      15     C     3.03725  3.03725  0.00000 -0.07451
      16     H     0.44646  0.44646  0.00000  0.10708
      17     H     0.44809  0.44809  0.00000  0.10381
      18     H     0.45501  0.45501  0.00000  0.08998

   Total alpha = 36.00000, Total beta = 36.00000, Total charge =  0.00000
