  ==> Input File <==

--------------------------------------------------------------------------
set {
	reference rhf
	basis cc-pvtz
}

set_num_threads( 4 )
memory 2 gb

molecule MOL {
0 1

H	 2.990543	 0.341347	 1.128000
O	 2.291804	 0.884073	 0.812934
C	 1.135873	 0.113391	 0.608264
C	 0.027642	 1.012027	 0.090274
H	 0.815450	 -0.342958	 1.541453
H	 1.335894	 -0.690959	 -0.094213
C	 -1.138737	 0.285728	 -0.581921
H	 0.464661	 1.708096	 -0.618252
H	 -0.340737	 1.603071	 0.925246
C	 -1.933983	 -0.631436	 0.343653
H	 -0.763151	 -0.285569	 -1.422081
H	 -1.808359	 1.035291	 -0.992333
H	 -2.789188	 -1.049673	 -0.174718
H	 -1.335629	 -1.461368	 0.700418
H	 -2.305435	 -0.092167	 1.209725

	symmetry c1
}
set optking {
	frozen_dihedral = ("
		2 3 4 8
	")
}

ee = optimize('scf')
oeprop('DIPOLE', 'QUADRUPOLE', 'MULLIKEN_CHARGES')
f=open( 'psi4out.xyz', 'w' )
f.write( "15  " )
f.write( str(ee) + "\n" )
f.write( MOL.save_string_xyz() )
f.close()
--------------------------------------------------------------------------

    Molecular point group: c1
  Charge       = 0
  Multiplicity = 1
  Basis Set: CC-PVTZ
  Basis Set:
  @DF-RHF Final Energy:  -232.23630624837404
    Total Energy =                       -232.2363062483741487
    Molecular point group: c1
  Basis Set: CC-PVTZ
  Basis Set:
  Basis Set: CC-PVTZ
  Basis Set:
  @DF-RHF Final Energy:  -232.23660791255406
    Total Energy =                       -232.2366079125541205
  Basis Set: CC-PVTZ
  Basis Set:
  Basis Set: CC-PVTZ
  Basis Set:
  @DF-RHF Final Energy:  -232.23664137343133
    Total Energy =                       -232.2366413734314960
  Basis Set: CC-PVTZ
  Basis Set:
  Basis Set: CC-PVTZ
  Basis Set:
  @DF-RHF Final Energy:  -232.23666291071822
    Total Energy =                       -232.2366629107181666
  Basis Set: CC-PVTZ
  Basis Set:
  Basis Set: CC-PVTZ
  Basis Set:
  @DF-RHF Final Energy:  -232.23666671441401
    Total Energy =                       -232.2366667144142411
  Basis Set: CC-PVTZ
  Basis Set:
  Charge       = 0
  Multiplicity = 1
  Basis Set: CC-PVTZ
  Basis Set:

    Orbital Energies (a.u.)
    -----------------------

    Doubly Occupied:

       1A    -20.545667     2A    -11.265184     3A    -11.216286
       4A    -11.209425     5A    -11.209276     6A     -1.363369
       7A     -1.070939     8A     -0.971495     9A     -0.870836
      10A     -0.784688    11A     -0.700947    12A     -0.651012
      13A     -0.614541    14A     -0.589102    15A     -0.558464
      16A     -0.537253    17A     -0.510386    18A     -0.475037
      19A     -0.473400    20A     -0.456582    21A     -0.435990

  @DF-RHF Final Energy:  -232.23666679241214

   => Energetics <=

    Nuclear Repulsion Energy =            188.4514710733883760
    One-Electron Energy =                -688.3565144575293289
    Two-Electron Energy =                 267.6683765917287019
    DFT Exchange-Correlation Energy =       0.0000000000000000
    Empirical Dispersion Energy =           0.0000000000000000
    PCM Polarization Energy =               0.0000000000000000
    EFP Energy =                            0.0000000000000000
    Total Energy =                       -232.2366667924122794
    Molecular point group: c1
  Basis Set: CC-PVTZ
  Basis Set:

  -Total Gradient:
     Atom            X                  Y                   Z
    ------   -----------------  -----------------  -----------------
       1        0.000001367002    -0.000003392639    -0.000002378538
       2        0.000586396775    -0.000374801664    -0.001926686838
       3       -0.000662883434     0.000831064494     0.002910547688
       4       -0.000408868009    -0.002139833404    -0.002967030806
       5        0.000005947386     0.000001402772     0.000003048664
       6        0.000008780066     0.000001349366     0.000003515750
       7        0.000012668734     0.000006537933     0.000008808692
       8        0.000480432082     0.001691453364     0.001978839665
       9       -0.000001309250     0.000002039779    -0.000000592489
      10       -0.000006528196    -0.000009550645    -0.000009274328
      11       -0.000007339658    -0.000000425692     0.000003621233
      12       -0.000003952646    -0.000003542753    -0.000000292148
      13       -0.000008171764    -0.000005552850     0.000004651219
      14       -0.000003221632     0.000001392743    -0.000001904484
      15        0.000006682546     0.000001859193    -0.000004873278

  **** Optimization is complete! (in 6 steps) ****
    Final optimized geometry and variables:
    Molecular point group: c1

    Geometry (in Angstrom), charge = 0, multiplicity = 1:

    H            2.820720058140     0.023885081467     0.920377093105
    O            2.147470055690     0.548639267553     0.528529500663
    C            0.994362807236    -0.224090845073     0.319025486355
    C           -0.104030610980     0.691221890217    -0.196183375157
    H            0.690393343838    -0.711735353113     1.240574698167
    H            1.196060330066    -1.003717101541    -0.413721055655
    C           -1.273015868677    -0.034856272218    -0.858005928653
    H            0.351808286487     1.383508862382    -0.894897289189
    H           -0.468249350528     1.298448119671     0.627934476089
    C           -2.055669304942    -0.955124179675     0.076411984606
    H           -0.907549611209    -0.608419491429    -1.705503472165
    H           -1.950105123419     0.708462410757    -1.265713335411
    H           -2.907321598903    -1.389680838343    -0.434053487035
    H           -1.445592710147    -1.772752954909     0.443359594626
    H           -2.429020616908    -0.409823735187     0.937141276356

  Mulliken Charges: (a.u.)
   Center  Symbol    Alpha    Beta     Spin     Total
       1     H     0.39633  0.39633  0.00000  0.20735
       2     O     4.19688  4.19688  0.00000 -0.39375
       3     C     2.96345  2.96345  0.00000  0.07310
       4     C     3.09075  3.09075  0.00000 -0.18149
       5     H     0.47188  0.47188  0.00000  0.05624
       6     H     0.47551  0.47551  0.00000  0.04899
       7     C     3.09784  3.09784  0.00000 -0.19568
       8     H     0.44404  0.44404  0.00000  0.11193
       9     H     0.45400  0.45400  0.00000  0.09200
      10     C     3.15163  3.15163  0.00000 -0.30325
      11     H     0.45417  0.45417  0.00000  0.09167
      12     H     0.44773  0.44773  0.00000  0.10453
      13     H     0.44628  0.44628  0.00000  0.10743
      14     H     0.45579  0.45579  0.00000  0.08842
      15     H     0.45373  0.45373  0.00000  0.09253

   Total alpha = 21.00000, Total beta = 21.00000, Total charge =  0.00000
