                              Psi4 1.0.54 Driver

  ==> Input File <==

--------------------------------------------------------------------------
set {
	reference rhf
	basis cc-pvtz
}

set_num_threads( 4 )
memory 2 gb

molecule MOL {
0 1

O	 1.507815	 -0.177831	 0.656359
C	 0.576499	 0.134701	 -0.003900
C	 -0.765656	 -0.550508	 -0.002152
O	 0.598425	 1.146127	 -0.856255
C	 -1.945526	 0.411052	 0.000603
H	 -0.794329	 -1.203792	 -0.868145
H	 -0.791555	 -1.205429	 0.862701
C	 -3.282915	 -0.321280	 0.002596
H	 -1.880300	 1.059126	 -0.864925
H	 -1.877207	 1.057892	 0.866807
H	 -3.388495	 -0.952755	 -0.873419
H	 -4.107811	 0.380864	 0.004116
H	 -3.385717	 -0.953283	 0.878571
C	 1.802896	 1.878013	 -0.963976
H	 2.064808	 2.322474	 -0.015340
H	 1.618958	 2.646371	 -1.697107
H	 2.609950	 1.238187	 -1.288519

	symmetry c1
}
set optking {
	frozen_dihedral = ("
		1 2 3 6
	")
}

ee,wfn = optimize('scf', return_wfn=True)
oeprop( wfn, 'DIPOLE', 'QUADRUPOLE', 'MULLIKEN_CHARGES')
f=open( 'psi4out.xyz', 'w' )
f.write( "17  " )
f.write( str(ee) + "\n" )
f.write( MOL.save_string_xyz() )
f.close()
--------------------------------------------------------------------------

    Molecular point group: c1
  Charge       = 0
  Multiplicity = 1
  Basis Set: CC-PVTZ
  Basis Set:
  @DF-RHF Final Energy:  -345.03326138093541
    Total Energy =                       -345.0332613809355280
    Molecular point group: c1
  Basis Set: CC-PVTZ
  Basis Set:
  Basis Set: CC-PVTZ
  Basis Set:
  @DF-RHF Final Energy:  -344.38834921674356
    Total Energy =                       -344.3883492167432792
  Basis Set: CC-PVTZ
  Basis Set:
  Basis Set: CC-PVTZ
  Basis Set:
  @DF-RHF Final Energy:  -344.60252851878607
    Total Energy =                       -344.6025285187858458
  Basis Set: CC-PVTZ
  Basis Set:
  Basis Set: CC-PVTZ
  Basis Set:
  @DF-RHF Final Energy:  -344.90931130755388
    Total Energy =                       -344.9093113075538213
  Basis Set: CC-PVTZ
  Basis Set:
  @DF-RHF Final Energy:  -345.01474398638902
    Total Energy =                       -345.0147439863889645
  @DF-RHF Final Energy:  -345.02980868179588
    Total Energy =                       -345.0298086817959415
  @DF-RHF Final Energy:  -345.03201167717242
    Total Energy =                       -345.0320116771724770
  @DF-RHF Final Energy:  -344.45989418769221
    Total Energy =                       -344.4598941876919866
  @DF-RHF Final Energy:  -344.82405642437811
    Total Energy =                       -344.8240564243789095
  @DF-RHF Final Energy:  -344.98298225256661
    Total Energy =                       -344.9829822525666714
  @DF-RHF Final Energy:  -345.03125243020662
    Total Energy =                       -345.0312524302069050
  @DF-RHF Final Energy:  -345.03239945556913
    Total Energy =                       -345.0323994555693048
  @DF-RHF Final Energy:  -345.03336333461453
    Total Energy =                       -345.0333633346141369
  Basis Set: CC-PVTZ
  Basis Set:
  @DF-RHF Final Energy:  -345.03323446199391
    Total Energy =                       -345.0332344619937430
  Basis Set: CC-PVTZ
  Basis Set:
  Basis Set: CC-PVTZ
  Basis Set:
  @DF-RHF Final Energy:  -345.03371089829119
    Total Energy =                       -345.0337108982907353
  Basis Set: CC-PVTZ
  Basis Set:
  Basis Set: CC-PVTZ
  Basis Set:
  @DF-RHF Final Energy:  -345.03371197124301
    Total Energy =                       -345.0337119712427238
  Basis Set: CC-PVTZ
  Basis Set:
  Charge       = 0
  Multiplicity = 1
  Basis Set: CC-PVTZ
  Basis Set:

    Orbital Energies (a.u.)
    -----------------------

    Doubly Occupied:

       1A    -20.597982     2A    -20.532350     3A    -11.364382
       4A    -11.279229     5A    -11.233867     6A    -11.227252
       7A    -11.215969     8A     -1.472834     9A     -1.364869
      10A     -1.084989    11A     -0.999345    12A     -0.943185
      13A     -0.832371    14A     -0.776696    15A     -0.699067
      16A     -0.684672    17A     -0.676041    18A     -0.639042
      19A     -0.597594    20A     -0.576455    21A     -0.554511
      22A     -0.541238    23A     -0.526263    24A     -0.513709
      25A     -0.490548    26A     -0.482461    27A     -0.459503
      28A     -0.434551

  @DF-RHF Final Energy:  -345.03371214746710

   => Energetics <=

    Nuclear Repulsion Energy =            314.7455549190357260
    One-Electron Energy =               -1093.9565782697836767
    Two-Electron Energy =                 434.1773112032811923
    DFT Exchange-Correlation Energy =       0.0000000000000000
    Empirical Dispersion Energy =           0.0000000000000000
    PCM Polarization Energy =               0.0000000000000000
    EFP Energy =                            0.0000000000000000
    Total Energy =                       -345.0337121474667583
    Molecular point group: c1
  Basis Set: CC-PVTZ
  Basis Set:

  -Total Gradient:
     Atom            X                  Y                   Z
    ------   -----------------  -----------------  -----------------
       1        0.000559997718    -0.000495389291     0.000294722254
       2       -0.000805076032     0.000758911025    -0.000292375215
       3        0.000203548096    -0.000564151598    -0.000706071452
       4       -0.000016305857    -0.000022399359     0.000014250398
       5       -0.000004901381     0.000015099369     0.000001510170
       6        0.000048294312     0.000290474805     0.000700762941
       7       -0.000006553126    -0.000007209876    -0.000002966515
       8       -0.000001516206    -0.000007593765     0.000009307985
       9        0.000006742140     0.000003900224     0.000003850877
      10       -0.000003781670    -0.000001774205    -0.000001723640
      11       -0.000001536256     0.000010441498    -0.000002518347
      12       -0.000000647859    -0.000003249305    -0.000001396437
      13       -0.000004074361    -0.000000934367     0.000000088151
      14        0.000018864459     0.000026438884    -0.000023833249
      15        0.000005542264    -0.000005861275     0.000002805622
      16        0.000000995077     0.000000778517     0.000000539351
      17        0.000000408686     0.000002518724     0.000003047107

  **** Optimization is complete! (in 17 steps) ****
    Final optimized geometry and variables:
    Molecular point group: c1

    Geometry (in Angstrom), charge = 0, multiplicity = 1:

    O            0.948343737129     1.383258550526     1.007622913705
    C            0.545564143437     0.477620419321     0.359544167455
    C           -0.512139733790    -0.492551678004     0.822670317976
    O            1.010577561282     0.188945543390    -0.843878877656
    C           -1.562688606715    -0.859844386009    -0.224270828730
    H            0.009849898401    -1.385977843432     1.154411476568
    H           -0.971862330691    -0.052260763685     1.696365322650
    C           -2.622019042415    -1.800749566095     0.338934463922
    H           -1.079817944063    -1.318172601790    -1.077219628062
    H           -2.039323651858     0.045588758383    -0.587085755329
    H           -2.177728461895    -2.728323422378     0.684228579263
    H           -3.359787765376    -2.048117919037    -0.414884817941
    H           -3.142762263921    -1.351389294647     1.177520249122
    C            2.034814443877     1.016059562382    -1.358732828364
    H            1.694982337489     2.037833961517    -1.438313129129
    H            2.270809531191     0.624588868147    -2.334937415432
    H            2.906569454455     0.983183548118    -0.722328151575

  Mulliken Charges: (a.u.)
   Center  Symbol    Alpha    Beta     Spin     Total
       1     O     4.19976  4.19976  0.00000 -0.39953
       2     C     2.81197  2.81197  0.00000  0.37605
       3     C     3.08029  3.08029  0.00000 -0.16058
       4     O     4.14715  4.14715  0.00000 -0.29431
       5     C     3.08776  3.08776  0.00000 -0.17552
       6     H     0.44746  0.44746  0.00000  0.10508
       7     H     0.43660  0.43660  0.00000  0.12679
       8     C     3.15170  3.15170  0.00000 -0.30341
       9     H     0.44363  0.44363  0.00000  0.11275
      10     H     0.45050  0.45050  0.00000  0.09901
      11     H     0.45459  0.45459  0.00000  0.09081
      12     H     0.44611  0.44611  0.00000  0.10777
      13     H     0.45337  0.45337  0.00000  0.09326
      14     C     3.03596  3.03596  0.00000 -0.07192
      15     H     0.45384  0.45384  0.00000  0.09232
      16     H     0.44601  0.44601  0.00000  0.10798
      17     H     0.45328  0.45328  0.00000  0.09345

   Total alpha = 28.00000, Total beta = 28.00000, Total charge = -0.00000

*** Psi4 exiting successfully. Buy a developer a beer!
