  ==> Input File <==

--------------------------------------------------------------------------
set {
	reference rhf
	basis cc-pvtz
}

set_num_threads( 4 )
memory 2 gb

molecule MOL {
0 1

H	 -2.421535	 -0.633953	 -1.178422
O	 -2.336992	 -0.303500	 -0.302891
C	 -1.180551	 0.477527	 -0.189836
C	 0.069907	 -0.379240	 -0.179904
H	 -1.113654	 1.209408	 -0.988587
H	 -1.254322	 1.017129	 0.743475
O	 1.172093	 0.457955	 -0.054438
H	 0.132042	 -0.957710	 -1.103163
H	 0.019502	 -1.086338	 0.645352
C	 2.395478	 -0.199028	 -0.000366
H	 2.505946	 -0.901710	 -0.823354
H	 3.174616	 0.545641	 -0.071768
H	 2.513730	 -0.742241	 0.934223

	symmetry c1
}
set optking {
	frozen_dihedral = ("
		4 7 10 13
	")
}

ee = optimize('scf')
oeprop('DIPOLE', 'QUADRUPOLE', 'MULLIKEN_CHARGES')
f=open( 'psi4out.xyz', 'w' )
f.write( "13  " )
f.write( str(ee) + "\n" )
f.write( MOL.save_string_xyz() )
f.close()
--------------------------------------------------------------------------

    Molecular point group: c1
  Charge       = 0
  Multiplicity = 1
  Basis Set: CC-PVTZ
  Basis Set:
  @DF-RHF Final Energy:  -268.06209336133259
    Total Energy =                       -268.0620933613328134
    Molecular point group: c1
  Basis Set: CC-PVTZ
  Basis Set:
  Basis Set: CC-PVTZ
  Basis Set:
  @DF-RHF Final Energy:  -268.06210214315803
    Total Energy =                       -268.0621021431578583
  Basis Set: CC-PVTZ
  Basis Set:
  Charge       = 0
  Multiplicity = 1
  Basis Set: CC-PVTZ
  Basis Set:

    Orbital Energies (a.u.)
    -----------------------

    Doubly Occupied:

       1A    -20.555892     2A    -20.552899     3A    -11.269330
       4A    -11.267770     5A    -11.267488     6A     -1.391796
       7A     -1.369249     8A     -1.019773     9A     -0.914054
      10A     -0.842789    11A     -0.711902    12A     -0.676609
      13A     -0.663141    14A     -0.638769    15A     -0.598403
      16A     -0.570540    17A     -0.547613    18A     -0.490910
      19A     -0.483687    20A     -0.441714    21A     -0.424556

  @DF-RHF Final Energy:  -268.06210286057745

   => Energetics <=

    Nuclear Repulsion Energy =            190.4735891083872161
    One-Electron Energy =                -743.6736148536571136
    Two-Electron Energy =                 285.1379228846922160
    DFT Exchange-Correlation Energy =       0.0000000000000000
    Empirical Dispersion Energy =           0.0000000000000000
    PCM Polarization Energy =               0.0000000000000000
    EFP Energy =                            0.0000000000000000
    Total Energy =                       -268.0621028605776246
    Molecular point group: c1
  Basis Set: CC-PVTZ
  Basis Set:

  -Total Gradient:
     Atom            X                  Y                   Z
    ------   -----------------  -----------------  -----------------
       1        0.000009243199     0.000007521662     0.000002494902
       2        0.000004469738    -0.000005884525     0.000024419173
       3        0.000001404218     0.000000987206    -0.000014383765
       4        0.000061791509     0.000051086469    -0.001105478008
       5        0.000010527723     0.000000727380     0.000003440083
       6       -0.000017166626     0.000001783264     0.000001970539
       7        0.000056052504     0.000188991590     0.001634819567
       8       -0.000011787137    -0.000005873980     0.000008572965
       9        0.000001563183     0.000005510469     0.000010809772
      10       -0.000659063441    -0.001313862983    -0.001107681828
      11       -0.000019076475     0.000015307794    -0.000019266412
      12        0.000006670942    -0.000015084583     0.000008885583
      13        0.000555370658     0.001068790238     0.000551397427

  **** Optimization is complete! (in 3 steps) ****
    Final optimized geometry and variables:
    Molecular point group: c1

    Geometry (in Angstrom), charge = 0, multiplicity = 1:

    H           -2.428135850107    -0.627251766807    -1.018298100758
    O           -2.342677819413    -0.297690747735    -0.142511331308
    C           -1.185239833993     0.481883160101    -0.029747053710
    C            0.064297289739    -0.376210035030    -0.022438693572
    H           -1.118080899321     1.214591232687    -0.827750924404
    H           -1.257576894994     1.020531487224     0.904220370387
    O            1.167563464462     0.460435526216     0.098315831838
    H            0.124057106252    -0.955139535105    -0.945270629506
    H            0.014514342054    -1.082772413083     0.803539720373
    C            2.391450668996    -0.195835973244     0.158106576126
    H            2.509240415839    -0.897560773485    -0.664012801425
    H            3.169750878009     0.550583461596     0.091111359765
    H            2.508425892287    -0.732305841674     1.096694490966

  Mulliken Charges: (a.u.)
   Center  Symbol    Alpha    Beta     Spin     Total
       1     H     0.39406  0.39406  0.00000  0.21188
       2     O     4.20212  4.20212  0.00000 -0.40425
       3     C     2.97346  2.97346  0.00000  0.05308
       4     C     2.96508  2.96508  0.00000  0.06983
       5     H     0.46700  0.46700  0.00000  0.06601
       6     H     0.45261  0.45261  0.00000  0.09478
       7     O     4.17571  4.17571  0.00000 -0.35142
       8     H     0.48128  0.48128  0.00000  0.03744
       9     H     0.47033  0.47033  0.00000  0.05935
      10     C     3.03147  3.03147  0.00000 -0.06294
      11     H     0.47244  0.47244  0.00000  0.05513
      12     H     0.44660  0.44660  0.00000  0.10680
      13     H     0.46784  0.46784  0.00000  0.06431

   Total alpha = 21.00000, Total beta = 21.00000, Total charge = -0.00000
