  ==> Input File <==

--------------------------------------------------------------------------
set {
	reference rhf
	basis 6-31G*
}

set_num_threads( 1 )
memory 2 gb

molecule MOL {
0 1

H	 1.086508	 2.040062	 1.235783
O	 1.339530	 1.135473	 1.111079
C	 0.709265	 0.639550	 -0.033818
C	 -0.793441	 0.596080	 0.058728
H	 1.094207	 -0.363188	 -0.180582
H	 0.996393	 1.214667	 -0.913490
C	 -1.530462	 -0.493172	 -0.025500
H	 -1.268471	 1.554324	 0.202247
H	 -1.092586	 -1.461565	 -0.186463
H	 -2.602122	 -0.450675	 0.050101

	symmetry c1
}
set optking {
	frozen_dihedral = ("
		5 3 2 1,
		3 4 7 9
	")
}

ee = energy('scf')
oeprop('DIPOLE', 'QUADRUPOLE', 'MULLIKEN_CHARGES')
f=open( 'psi4out.xyz', 'w' )
f.write( "10  " )
f.write( str(ee) + "\n" )
f.write( MOL.save_string_xyz() )
f.close()
--------------------------------------------------------------------------

    Molecular point group: c1

    Geometry (in Angstrom), charge = 0, multiplicity = 1:

       Center              X                  Y                   Z               Mass
    ------------   -----------------  -----------------  -----------------  -----------------
           H          1.082201368600     1.529659026549     0.926114207583     1.007825032070
           O          1.335223368600     0.625070026549     0.801410207583    15.994914619560
           C          0.704958368600     0.129147026549    -0.343486792417    12.000000000000
           C         -0.797747631400     0.085677026549    -0.250940792417    12.000000000000
           H          1.089900368600    -0.873590973451    -0.490250792417     1.007825032070
           H          0.992086368600     0.704264026549    -1.223158792417     1.007825032070
           C         -1.534768631400    -1.003574973451    -0.335168792417    12.000000000000
           H         -1.272777631400     1.043921026549    -0.107421792417     1.007825032070
           H         -1.096892631400    -1.971967973451    -0.496131792417     1.007825032070
           H         -2.606428631400    -0.961077973451    -0.259567792417     1.007825032070

  Charge       = 0
  Multiplicity = 1
  Basis Set: 6-31G*
  Basis Set:

    Orbital Energies (a.u.)
    -----------------------

    Doubly Occupied:

       1A    -20.559033     2A    -11.275892     3A    -11.231854
       4A    -11.225796     5A     -1.367529     6A     -1.062709
       7A     -0.920553     8A     -0.781030     9A     -0.687163
      10A     -0.655428    11A     -0.618247    12A     -0.570079
      13A     -0.543463    14A     -0.488753    15A     -0.440825
      16A     -0.372028

  @DF-RHF Final Energy:  -191.91454352820602

   => Energetics <=

    Nuclear Repulsion Energy =            117.2930616908209203
    One-Electron Energy =                -492.8144372263629407
    Two-Electron Energy =                 183.6068320073358962
    DFT Exchange-Correlation Energy =       0.0000000000000000
    Empirical Dispersion Energy =           0.0000000000000000
    PCM Polarization Energy =               0.0000000000000000
    EFP Energy =                            0.0000000000000000
    Total Energy =                       -191.9145435282061101

  Mulliken Charges: (a.u.)
   Center  Symbol    Alpha    Beta     Spin     Total
       1     H     0.28279  0.28279  0.00000  0.43442
       2     O     4.36243  4.36243  0.00000 -0.72486
       3     C     3.01222  3.01222  0.00000 -0.02444
       4     C     3.07574  3.07574  0.00000 -0.15148
       5     H     0.41137  0.41137  0.00000  0.17726
       6     H     0.42663  0.42663  0.00000  0.14675
       7     C     3.19447  3.19447  0.00000 -0.38895
       8     H     0.41443  0.41443  0.00000  0.17115
       9     H     0.41039  0.41039  0.00000  0.17922
      10     H     0.40953  0.40953  0.00000  0.18093

   Total alpha = 16.00000, Total beta = 16.00000, Total charge =  0.00000
