                              Psi4 1.0.54 Driver

  ==> Input File <==

--------------------------------------------------------------------------
set {
	reference rhf
	basis cc-pvtz
}

set_num_threads( 4 )
memory 2 gb

molecule MOL {
0 1

H	 2.646708	 0.758099	 0.000000
O	 2.258158	 -0.097743	 0.000000
C	 0.911162	 -0.015915	 0.000000
C	 0.258942	 -0.189971	 1.209593
C	 0.184457	 0.231282	 -1.149441
H	 0.838816	 -0.380891	 2.090952
C	 -1.116238	 -0.114958	 1.257862
H	 0.690485	 0.366381	 -2.088235
C	 -1.195819	 0.303931	 -1.086037
H	 -1.616322	 -0.250660	 2.198022
C	 -1.855385	 0.132207	 0.112885
H	 -1.752534	 0.496285	 -1.983475
H	 -2.925239	 0.189173	 0.158318

	symmetry c1
}
set optking {
	frozen_dihedral = ("
		4 3 2 1
	")
}

ee,wfn = optimize('scf', return_wfn=True)
oeprop( wfn, 'DIPOLE', 'QUADRUPOLE', 'MULLIKEN_CHARGES')
f=open( 'psi4out.xyz', 'w' )
f.write( "13  " )
f.write( str(ee) + "\n" )
f.write( MOL.save_string_xyz() )
f.close()
--------------------------------------------------------------------------

    Molecular point group: c1
  Charge       = 0
  Multiplicity = 1
  Basis Set: CC-PVTZ
  Basis Set:
  @DF-RHF Final Energy:  -305.66562970985370
    Total Energy =                       -305.6656297098537607
    Molecular point group: c1
  Basis Set: CC-PVTZ
  Basis Set:
  Basis Set: CC-PVTZ
  Basis Set:
  @DF-RHF Final Energy:  -305.66628514953283
    Total Energy =                       -305.6662851495329960
  Basis Set: CC-PVTZ
  Basis Set:
  Basis Set: CC-PVTZ
  Basis Set:
  @DF-RHF Final Energy:  -305.66633791594228
    Total Energy =                       -305.6663379159424494
  Basis Set: CC-PVTZ
  Basis Set:
  Basis Set: CC-PVTZ
  Basis Set:
  @DF-RHF Final Energy:  -305.66634342533627
    Total Energy =                       -305.6663434253358105
  Basis Set: CC-PVTZ
  Basis Set:
  Charge       = 0
  Multiplicity = 1
  Basis Set: CC-PVTZ
  Basis Set:

    Orbital Energies (a.u.)
    -----------------------

    Doubly Occupied:

       1A    -20.571148     2A    -11.288877     3A    -11.233527
       4A    -11.233184     5A    -11.225916     6A    -11.225749
       7A    -11.225045     8A     -1.397955     9A     -1.153352
      10A     -1.022395    11A     -1.008346    12A     -0.839885
      13A     -0.828589    14A     -0.738120    15A     -0.684270
      16A     -0.651629    17A     -0.632533    18A     -0.596864
      19A     -0.592094    20A     -0.526281    21A     -0.517845
      22A     -0.498490    23A     -0.471677    24A     -0.341902
      25A     -0.329467

  @DF-RHF Final Energy:  -305.66634443113793

   => Energetics <=

    Nuclear Repulsion Energy =            273.3110488860175451
    One-Electron Energy =                -956.2845106386610041
    Two-Electron Energy =                 377.3071173215054728
    DFT Exchange-Correlation Energy =       0.0000000000000000
    Empirical Dispersion Energy =           0.0000000000000000
    PCM Polarization Energy =               0.0000000000000000
    EFP Energy =                            0.0000000000000000
    Total Energy =                       -305.6663444311380431
    Molecular point group: c1
  Basis Set: CC-PVTZ
  Basis Set:

  -Total Gradient:
     Atom            X                  Y                   Z
    ------   -----------------  -----------------  -----------------
       1        0.000030465667    -0.000019849931     0.000718349801
       2        0.000171385298     0.000290297177    -0.000809569490
       3       -0.000304876897    -0.000779907176    -0.000176387421
       4        0.000038792505     0.000491800946     0.000197028262
       5        0.000160355801     0.000013444015     0.000035514066
       6       -0.000019999571    -0.000003672299    -0.000024365600
       7        0.000071843085     0.000045686022     0.000047588993
       8        0.000023755230    -0.000015290524     0.000003859469
       9       -0.000141331486     0.000011768737     0.000089392038
      10       -0.000035852723    -0.000005347576    -0.000011266732
      11        0.000002335495    -0.000016520824    -0.000121457128
      12        0.000010416022    -0.000006214073     0.000014754524
      13       -0.000007288424    -0.000006194492     0.000036559217

  **** Optimization is complete! (in 5 steps) ****
    Final optimized geometry and variables:
    Molecular point group: c1

    Geometry (in Angstrom), charge = 0, multiplicity = 1:

    H            2.661433826262     0.708350980074    -0.077824430717
    O            2.267008718485    -0.146002063557    -0.081355585675
    C            0.903900277165    -0.044730193212    -0.033470527186
    C            0.250521764802    -0.225822606205     1.169859596846
    C            0.183901231492     0.197391570724    -1.187387430576
    H            0.826649889640    -0.423895950084     2.052583303096
    C           -1.129213520110    -0.160425278050     1.216437860541
    H            0.706501534500     0.319811779075    -2.116479845873
    C           -1.195499164514     0.265594170217    -1.132321970945
    H           -1.635173729901    -0.303744056230     2.152167443180
    C           -1.857158357355     0.087735853023     0.067965292862
    H           -1.752743013442     0.453331137565    -2.030261632525
    H           -2.928105863423     0.137539272423     0.107411506832

  Mulliken Charges: (a.u.)
   Center  Symbol    Alpha    Beta     Spin     Total
       1     H     0.38810  0.38810  0.00000  0.22380
       2     O     4.19244  4.19244  0.00000 -0.38488
       3     C     2.87213  2.87213  0.00000  0.25575
       4     C     3.10844  3.10844  0.00000 -0.21689
       5     C     3.11265  3.11265  0.00000 -0.22530
       6     H     0.41660  0.41660  0.00000  0.16680
       7     C     3.06898  3.06898  0.00000 -0.13797
       8     H     0.41801  0.41801  0.00000  0.16399
       9     C     3.06964  3.06964  0.00000 -0.13928
      10     H     0.42158  0.42158  0.00000  0.15683
      11     C     3.08674  3.08674  0.00000 -0.17349
      12     H     0.42165  0.42165  0.00000  0.15669
      13     H     0.42303  0.42303  0.00000  0.15393

   Total alpha = 25.00000, Total beta = 25.00000, Total charge =  0.00000

*** Psi4 exiting successfully. Buy a developer a beer!
