  ==> Input File <==

--------------------------------------------------------------------------
set {
	reference rhf
	basis 6-31G*
}

set_num_threads( 4 )
memory 2 gb

molecule MOL {
0 1

H	 -4.198650	 -0.208115	 -1.278479
O	 -3.452007	 0.283848	 -0.965577
C	 -3.181085	 -0.079926	 0.364119
C	 -1.765924	 0.277073	 0.805136
H	 -3.327791	 -1.152017	 0.410903
H	 -3.905698	 0.375695	 1.036898
C	 -0.677594	 -0.417312	 -0.014550
H	 -1.637766	 1.358238	 0.744969
H	 -1.659588	 0.017670	 1.857098
C	 0.738335	 -0.034840	 0.421385
H	 -0.814977	 -0.178223	 -1.064632
H	 -0.802730	 -1.495410	 0.071702
C	 1.822265	 -0.738362	 -0.399735
H	 0.853533	 1.043532	 0.342250
H	 0.871597	 -0.279636	 1.474438
C	 3.258060	 -0.455774	 0.057203
H	 1.718003	 -0.459167	 -1.447053
H	 1.651028	 -1.811884	 -0.354513
C	 3.709143	 0.994797	 -0.123830
H	 3.930637	 -1.101717	 -0.501982
H	 3.365259	 -0.739518	 1.102287
H	 3.601178	 1.310569	 -1.158127
H	 4.753787	 1.110486	 0.148516
H	 3.135362	 1.678896	 0.492569

	symmetry c1
}
set optking {
	frozen_dihedral = ("
		1 2 3 5
	")
}

ee = optimize('scf')
oeprop('DIPOLE', 'QUADRUPOLE', 'MULLIKEN_CHARGES')
f=open( 'psi4out.xyz', 'w' )
f.write( "24  " )
f.write( str(ee) + "\n" )
f.write( MOL.save_string_xyz() )
f.close()
--------------------------------------------------------------------------

    Molecular point group: c1
  Charge       = 0
  Multiplicity = 1
  Basis Set: 6-31G*
  Basis Set:
  @DF-RHF Final Energy:  -349.24559626406364
    Total Energy =                       -349.2455962640639768
    Molecular point group: c1
  Basis Set: 6-31G*
  Basis Set:
  Basis Set: 6-31G*
  Basis Set:
  @DF-RHF Final Energy:  -349.24702329019681
    Total Energy =                       -349.2470232901965801
  Basis Set: 6-31G*
  Basis Set:
  Basis Set: 6-31G*
  Basis Set:
  @DF-RHF Final Energy:  -349.24738950648964
    Total Energy =                       -349.2473895064895260
  Basis Set: 6-31G*
  Basis Set:
  Basis Set: 6-31G*
  Basis Set:
  @DF-RHF Final Energy:  -349.24739595706615
    Total Energy =                       -349.2473959570658621
  Basis Set: 6-31G*
  Basis Set:
  Basis Set: 6-31G*
  Basis Set:
  @DF-RHF Final Energy:  -349.24739702227316
    Total Energy =                       -349.2473970222732760
  Basis Set: 6-31G*
  Basis Set:
  Charge       = 0
  Multiplicity = 1
  Basis Set: 6-31G*
  Basis Set:

    Orbital Energies (a.u.)
    -----------------------

    Doubly Occupied:

       1A    -20.552674     2A    -11.267940     3A    -11.211768
       4A    -11.211755     5A    -11.209180     6A    -11.208372
       7A    -11.206777     8A    -11.204783     9A     -1.359244
      10A     -1.085295    11A     -1.045988    12A     -0.984074
      13A     -0.912285    14A     -0.843716    15A     -0.788339
      16A     -0.773381    17A     -0.705680    18A     -0.640029
      19A     -0.634538    20A     -0.608916    21A     -0.589960
      22A     -0.575475    23A     -0.556503    24A     -0.533781
      25A     -0.515428    26A     -0.503774    27A     -0.493948
      28A     -0.474419    29A     -0.465975    30A     -0.456371
      31A     -0.449281    32A     -0.445439    33A     -0.420940

  @DF-RHF Final Energy:  -349.24739641092020

   => Energetics <=

    Nuclear Repulsion Energy =            384.6489152535671678
    One-Electron Energy =               -1235.9205755729713019
    Two-Electron Energy =                 502.0242639084838174
    DFT Exchange-Correlation Energy =       0.0000000000000000
    Empirical Dispersion Energy =           0.0000000000000000
    PCM Polarization Energy =               0.0000000000000000
    EFP Energy =                            0.0000000000000000
    Total Energy =                       -349.2473964109203735
    Molecular point group: c1
  Basis Set: 6-31G*
  Basis Set:

  -Total Gradient:
     Atom            X                  Y                   Z
    ------   -----------------  -----------------  -----------------
       1        0.000781593623    -0.000882660033    -0.000418203374
       2       -0.001238656571     0.001085702354     0.000573937223
       3        0.001561039836    -0.000353279039    -0.000429866334
       4       -0.000037605565    -0.000039130334     0.000116820386
       5       -0.001079215042     0.000193720979     0.000198044610
       6        0.000024503537    -0.000014954601     0.000026266417
       7       -0.000028917660    -0.000045079554    -0.000018530632
       8       -0.000052461931     0.000014423564    -0.000009075354
       9        0.000032857464     0.000017598691    -0.000024313995
      10        0.000000662661    -0.000012048679     0.000001223521
      11        0.000012678342    -0.000000306939    -0.000004277005
      12       -0.000000823049     0.000011567175    -0.000000390351
      13        0.000011165835     0.000033355269    -0.000013339535
      14       -0.000029925549    -0.000034852133    -0.000010244834
      15        0.000005083648     0.000006269553     0.000009509566
      16       -0.000013288087     0.000003882769     0.000032214417
      17        0.000000154314     0.000026555384     0.000000883886
      18        0.000011607789    -0.000000633879    -0.000020632321
      19        0.000020680141     0.000000870102    -0.000013529614
      20       -0.000004091647    -0.000018491081     0.000013953636
      21       -0.000010477770     0.000019218149     0.000009838761
      22       -0.000006480710     0.000008717127    -0.000006392428
      23        0.000001161244    -0.000007336381    -0.000010627780
      24        0.000038755156    -0.000013108464    -0.000003268864

  **** Optimization is complete! (in 6 steps) ****
    Final optimized geometry and variables:
    Molecular point group: c1

    Geometry (in Angstrom), charge = 0, multiplicity = 1:

    H           -4.129335255892    -0.097744035938    -1.322241852266
    O           -3.392667977305     0.357023951226    -0.941000020472
    C           -3.179244445491    -0.096716309020     0.372908978340
    C           -1.769155114647     0.272899472606     0.800245867029
    H           -3.321365400953    -1.174544716599     0.433747347930
    H           -3.899748093041     0.361663625153     1.047888063791
    C           -0.679552262313    -0.426215346795    -0.013685532335
    H           -1.660320218631     1.350977018851     0.713709302596
    H           -1.657717044305     0.028654429808     1.855096786072
    C            0.734028607275    -0.032761711219     0.420220552721
    H           -0.817718679714    -0.192197410897    -1.064258169203
    H           -0.797731590308    -1.504954433792     0.082414499737
    C            1.822640314475    -0.733111195110    -0.397382316477
    H            0.840969903925     1.045607511751     0.334723664900
    H            0.869355164448    -0.271171929125     1.474630245775
    C            3.256668223361    -0.439560871865     0.058295917568
    H            1.716776018390    -0.459118172487    -1.445868530952
    H            1.658514188191    -1.807757944028    -0.347417624185
    C            3.701705510794     1.010886084022    -0.137931404441
    H            3.932925143408    -1.088691498061    -0.492828035960
    H            3.363528549126    -0.711392295838     1.106632141698
    H            3.592671567413     1.315248013763    -1.175480753589
    H            4.745813440769     1.133825313239     0.133553861424
    H            3.124560473602     1.698903768539     0.470724902673

  Mulliken Charges: (a.u.)
   Center  Symbol    Alpha    Beta     Spin     Total
       1     H     0.28030  0.28030  0.00000  0.43941
       2     O     4.37019  4.37019  0.00000 -0.74039
       3     C     2.99754  2.99754  0.00000  0.00493
       4     C     3.15991  3.15991  0.00000 -0.31982
       5     H     0.43308  0.43308  0.00000  0.13384
       6     H     0.42782  0.42782  0.00000  0.14437
       7     C     3.15409  3.15409  0.00000 -0.30818
       8     H     0.41462  0.41462  0.00000  0.17075
       9     H     0.42423  0.42423  0.00000  0.15154
      10     C     3.15397  3.15397  0.00000 -0.30794
      11     H     0.40853  0.40853  0.00000  0.18294
      12     H     0.42820  0.42820  0.00000  0.14360
      13     C     3.15209  3.15209  0.00000 -0.30418
      14     H     0.42090  0.42090  0.00000  0.15821
      15     H     0.42642  0.42642  0.00000  0.14716
      16     C     3.15212  3.15212  0.00000 -0.30424
      17     H     0.42357  0.42357  0.00000  0.15286
      18     H     0.42345  0.42345  0.00000  0.15309
      19     C     3.24092  3.24092  0.00000 -0.48185
      20     H     0.42179  0.42179  0.00000  0.15643
      21     H     0.42413  0.42413  0.00000  0.15174
      22     H     0.42208  0.42208  0.00000  0.15584
      23     H     0.42012  0.42012  0.00000  0.15977
      24     H     0.41994  0.41994  0.00000  0.16013

   Total alpha = 33.00000, Total beta = 33.00000, Total charge = -0.00000
