                              Psi4 1.0.54 Driver

  ==> Input File <==

--------------------------------------------------------------------------
set {
	reference rhf
	basis cc-pvtz
}

set_num_threads( 4 )
memory 2 gb

molecule MOL {
0 1

O	 0.188339	 0.736379	 -1.657333
C	 0.254398	 -0.152094	 -0.877526
C	 1.409811	 -1.112660	 -0.750272
O	 -0.695554	 -0.422406	 0.000602
C	 2.531710	 -0.843464	 -1.740145
H	 1.009697	 -2.113488	 -0.869451
H	 1.763831	 -1.055093	 0.273101
H	 2.177858	 -0.918185	 -2.759666
H	 3.330287	 -1.562083	 -1.601547
H	 2.938860	 0.149843	 -1.606745
C	 -1.852370	 0.402254	 0.000718
C	 -3.063338	 -0.501097	 -0.000437
H	 -1.831732	 1.039442	 -0.872158
H	 -1.832493	 1.038301	 0.874430
H	 -3.071944	 -1.133732	 -0.879113
H	 -3.966302	 0.097976	 -0.000483
H	 -3.072764	 -1.134834	 0.877435

	symmetry c1
}
set optking {
	frozen_dihedral = ("
		2 4 11 13
	")
}

ee,wfn = optimize('scf', return_wfn=True)
oeprop( wfn, 'DIPOLE', 'QUADRUPOLE', 'MULLIKEN_CHARGES')
f=open( 'psi4out.xyz', 'w' )
f.write( "17  " )
f.write( str(ee) + "\n" )
f.write( MOL.save_string_xyz() )
f.close()
--------------------------------------------------------------------------

    Molecular point group: c1
  Charge       = 0
  Multiplicity = 1
  Basis Set: CC-PVTZ
  Basis Set:
  @DF-RHF Final Energy:  -345.03795184210219
    Total Energy =                       -345.0379518421021885
    Molecular point group: c1
  Basis Set: CC-PVTZ
  Basis Set:
  Basis Set: CC-PVTZ
  Basis Set:
  @DF-RHF Final Energy:  -345.03823926191586
    Total Energy =                       -345.0382392619162601
  Basis Set: CC-PVTZ
  Basis Set:
  Basis Set: CC-PVTZ
  Basis Set:
  @DF-RHF Final Energy:  -345.03865697611212
    Total Energy =                       -345.0386569761119517
  Basis Set: CC-PVTZ
  Basis Set:
  Basis Set: CC-PVTZ
  Basis Set:
  @DF-RHF Final Energy:  -345.03791666972597
    Total Energy =                       -345.0379166697258597
  Basis Set: CC-PVTZ
  Basis Set:
  Basis Set: CC-PVTZ
  Basis Set:
  @DF-RHF Final Energy:  -345.03868461543499
    Total Energy =                       -345.0386846154349882
  Basis Set: CC-PVTZ
  Basis Set:
  Charge       = 0
  Multiplicity = 1
  Basis Set: CC-PVTZ
  Basis Set:

    Orbital Energies (a.u.)
    -----------------------

    Doubly Occupied:

       1A    -20.592406     2A    -20.532341     3A    -11.364861
       4A    -11.281239     5A    -11.235306     6A    -11.220219
       7A    -11.213358     8A     -1.468022     9A     -1.365446
      10A     -1.070438    11A     -1.031713    12A     -0.913722
      13A     -0.849818    14A     -0.771224    15A     -0.702796
      16A     -0.686023    17A     -0.664572    18A     -0.628384
      19A     -0.594538    20A     -0.570535    21A     -0.556702
      22A     -0.530719    23A     -0.520961    24A     -0.515718
      25A     -0.498554    26A     -0.494823    27A     -0.451906
      28A     -0.439224

  @DF-RHF Final Energy:  -345.03868866273382

   => Energetics <=

    Nuclear Repulsion Energy =            315.5636904262923395
    One-Electron Energy =               -1095.6736156909985311
    Two-Electron Energy =                 435.0712366019722026
    DFT Exchange-Correlation Energy =       0.0000000000000000
    Empirical Dispersion Energy =           0.0000000000000000
    PCM Polarization Energy =               0.0000000000000000
    EFP Energy =                            0.0000000000000000
    Total Energy =                       -345.0386886627339322
    Molecular point group: c1
  Basis Set: CC-PVTZ
  Basis Set:

  -Total Gradient:
     Atom            X                  Y                   Z
    ------   -----------------  -----------------  -----------------
       1        0.000098642333    -0.000000228602    -0.000065658901
       2       -0.000349368638    -0.000327052793    -0.000464775526
       3       -0.000078603087    -0.000002308138     0.000052412419
       4        0.000583966256     0.000548507727     0.000794613713
       5       -0.000055189156     0.000065028177    -0.000018856278
       6       -0.000020029024    -0.000006741931     0.000002325692
       7       -0.000011749670     0.000007946665     0.000008830665
       8        0.000006064863    -0.000002192962    -0.000009845229
       9       -0.000029568968    -0.000001483112     0.000019976878
      10        0.000012218677     0.000007984832    -0.000003094090
      11       -0.000517040396    -0.000885441801    -0.000666972169
      12        0.000031085862     0.000030550608    -0.000014607848
      13        0.000339404650     0.000522495804     0.000375021601
      14       -0.000036061605     0.000023070740    -0.000003489249
      15        0.000010374148     0.000005151190    -0.000002245889
      16       -0.000002486486     0.000000033283     0.000001991852
      17        0.000018340238     0.000014680318    -0.000005627645

  **** Optimization is complete! (in 6 steps) ****
    Final optimized geometry and variables:
    Molecular point group: c1

    Geometry (in Angstrom), charge = 0, multiplicity = 1:

    O            0.438359093464     1.019373941707    -0.942671034897
    C            0.454672390274     0.124007478426    -0.168673787927
    C            1.578825141480    -0.871204041477    -0.024426948143
    O           -0.517215975260    -0.136112134318     0.690113375453
    C            2.730892864843    -0.626363234714    -0.985435802109
    H            1.152672360938    -1.858830721953    -0.161562968641
    H            1.910050772842    -0.832328680884     1.007389516845
    H            2.399430957289    -0.682370462163    -2.013647878336
    H            3.504715980043    -1.369200424056    -0.834505695564
    H            3.163488990642     0.353439778197    -0.833633688052
    C           -1.685172396899     0.675349063278     0.711905755289
    C           -2.904458300821    -0.219236642528     0.732582967673
    H           -1.682886447235     1.331417329807    -0.141903566049
    H           -1.636220007832     1.281352591260     1.607270690729
    H           -2.961805318460    -0.812543064448    -0.171720012873
    H           -3.801540149929     0.385210065890     0.802075721002
    H           -2.877224994509    -0.890263517801     1.581864110622

  Mulliken Charges: (a.u.)
   Center  Symbol    Alpha    Beta     Spin     Total
       1     O     4.19808  4.19808  0.00000 -0.39616
       2     C     2.80142  2.80142  0.00000  0.39717
       3     C     3.09546  3.09546  0.00000 -0.19092
       4     O     4.15601  4.15601  0.00000 -0.31202
       5     C     3.14027  3.14027  0.00000 -0.28055
       6     H     0.44213  0.44213  0.00000  0.11575
       7     H     0.44156  0.44156  0.00000  0.11688
       8     H     0.44862  0.44862  0.00000  0.10276
       9     H     0.45067  0.45067  0.00000  0.09866
      10     H     0.44841  0.44841  0.00000  0.10318
      11     C     2.99056  2.99056  0.00000  0.01889
      12     C     3.13421  3.13421  0.00000 -0.26842
      13     H     0.44141  0.44141  0.00000  0.11719
      14     H     0.45387  0.45387  0.00000  0.09225
      15     H     0.45182  0.45182  0.00000  0.09636
      16     H     0.45409  0.45409  0.00000  0.09182
      17     H     0.45142  0.45142  0.00000  0.09716

   Total alpha = 28.00000, Total beta = 28.00000, Total charge =  0.00000

*** Psi4 exiting successfully. Buy a developer a beer!
