  ==> Input File <==

--------------------------------------------------------------------------
set {
	reference rhf
	basis 6-31G*
}

set_num_threads( 4 )
memory 2 gb

molecule MOL {
0 1

O	 -2.184205	 1.598921	 -0.235212
C	 -2.055869	 0.412683	 -0.206875
C	 -0.841113	 -0.253961	 -0.828374
C	 -3.070859	 -0.479675	 0.471997
C	 0.379448	 -0.143569	 0.099626
H	 -0.631028	 0.252232	 -1.764290
H	 -1.047984	 -1.297669	 -1.047243
C	 1.631333	 -0.777471	 -0.511575
H	 0.548203	 0.905912	 0.312924
H	 0.161364	 -0.626607	 1.050868
C	 2.915987	 -0.544314	 0.291766
H	 1.766672	 -0.399098	 -1.523130
H	 1.471257	 -1.849544	 -0.605828
C	 3.373361	 0.914346	 0.347591
H	 3.708709	 -1.142521	 -0.150311
H	 2.780642	 -0.921148	 1.303579
H	 3.506512	 1.320010	 -0.651625
H	 4.322697	 0.999599	 0.867103
H	 2.660624	 1.545032	 0.868198
H	 -3.563981	 -1.102290	 -0.269924
H	 -3.809156	 0.121853	 0.983724
H	 -2.584862	 -1.147048	 1.177847

	symmetry c1
}
set optking {
	frozen_dihedral = ("
		3 5 8 12
	")
}

ee = optimize('scf')
oeprop('DIPOLE', 'QUADRUPOLE', 'MULLIKEN_CHARGES')
f=open( 'psi4out.xyz', 'w' )
f.write( "22  " )
f.write( str(ee) + "\n" )
f.write( MOL.save_string_xyz() )
f.close()
--------------------------------------------------------------------------

    Molecular point group: c1
  Charge       = 0
  Multiplicity = 1
  Basis Set: 6-31G*
  Basis Set:
  @DF-RHF Final Energy:  -348.09794722756510
    Total Energy =                       -348.0979472275648732
    Molecular point group: c1
  Basis Set: 6-31G*
  Basis Set:
  Basis Set: 6-31G*
  Basis Set:
  @DF-RHF Final Energy:  -348.09765347003281
    Total Energy =                       -348.0976534700328102
  Basis Set: 6-31G*
  Basis Set:
  Basis Set: 6-31G*
  Basis Set:
  @DF-RHF Final Energy:  -348.09753954687818
    Total Energy =                       -348.0975395468782381
  Basis Set: 6-31G*
  Basis Set:
  Basis Set: 6-31G*
  Basis Set:
  @DF-RHF Final Energy:  -348.09797426661851
    Total Energy =                       -348.0979742666187917
  Basis Set: 6-31G*
  Basis Set:
  Basis Set: 6-31G*
  Basis Set:
  @DF-RHF Final Energy:  -348.09799185669220
    Total Energy =                       -348.0979918566923175
  Basis Set: 6-31G*
  Basis Set:
  Basis Set: 6-31G*
  Basis Set:
  @DF-RHF Final Energy:  -348.09801765388153
    Total Energy =                       -348.0980176538815840
  Basis Set: 6-31G*
  Basis Set:
  Basis Set: 6-31G*
  Basis Set:
  @DF-RHF Final Energy:  -348.09802414597686
    Total Energy =                       -348.0980241459764102
  Basis Set: 6-31G*
  Basis Set:
  Charge       = 0
  Multiplicity = 1
  Basis Set: 6-31G*
  Basis Set:

    Orbital Energies (a.u.)
    -----------------------

    Doubly Occupied:

       1A    -20.547401     2A    -11.324485     3A    -11.229593
       4A    -11.229017     5A    -11.228204     6A    -11.222404
       7A    -11.220648     8A    -11.210840     9A     -1.393145
      10A     -1.095523    11A     -1.044214    12A     -0.999494
      13A     -0.937864    14A     -0.856985    15A     -0.787270
      16A     -0.732876    17A     -0.661887    18A     -0.644464
      19A     -0.625802    20A     -0.620714    21A     -0.597558
      22A     -0.580547    23A     -0.564096    24A     -0.542802
      25A     -0.533712    26A     -0.516923    27A     -0.499644
      28A     -0.487720    29A     -0.470878    30A     -0.463172
      31A     -0.460302    32A     -0.396230

  @DF-RHF Final Energy:  -348.09802372534739

   => Energetics <=

    Nuclear Repulsion Energy =            372.9400711724703115
    One-Electron Energy =               -1210.6233540938983424
    Two-Electron Energy =                 489.5852591960802442
    DFT Exchange-Correlation Energy =       0.0000000000000000
    Empirical Dispersion Energy =           0.0000000000000000
    PCM Polarization Energy =               0.0000000000000000
    EFP Energy =                            0.0000000000000000
    Total Energy =                       -348.0980237253477867
    Molecular point group: c1
  Basis Set: 6-31G*
  Basis Set:

  -Total Gradient:
     Atom            X                  Y                   Z
    ------   -----------------  -----------------  -----------------
       1        0.000015763740     0.000002522716     0.000024496987
       2       -0.000027679438     0.000016400205    -0.000054661450
       3        0.000329527449     0.001093080958    -0.000520502011
       4        0.000000306757     0.000006517078    -0.000004919930
       5       -0.000603019101    -0.001837725297     0.000552013135
       6        0.000010756876    -0.000024883529    -0.000013227934
       7       -0.000028242798    -0.000000470365     0.000016539685
       8        0.001317446528     0.002066218525     0.000672143638
       9       -0.000015172081     0.000037124334     0.000046092546
      10        0.000029179485    -0.000028256102    -0.000013443230
      11       -0.000003464702     0.000022426770    -0.000075777881
      12       -0.000975201484    -0.001279741103    -0.000613559575
      13        0.000029503259    -0.000043275322    -0.000023108631
      14       -0.000023085204    -0.000019804463    -0.000000874376
      15       -0.000002043853    -0.000037120281     0.000004209389
      16       -0.000039756659     0.000043118813    -0.000015939150
      17       -0.000014550362    -0.000013666708    -0.000002140711
      18        0.000009329669    -0.000016691397    -0.000002563841
      19       -0.000025664274     0.000014042561     0.000012186860
      20        0.000012811572     0.000004779987     0.000001898891
      21        0.000001804901     0.000000820566     0.000001645325
      22        0.000001449725    -0.000005417949     0.000009492264

  **** Optimization is complete! (in 8 steps) ****
    Final optimized geometry and variables:
    Molecular point group: c1

    Geometry (in Angstrom), charge = 0, multiplicity = 1:

    O           -2.233305725782     1.488262061103    -0.154393409877
    C           -2.086228042632     0.304017188682    -0.137962429451
    C           -0.863506843546    -0.337413987840    -0.770132820865
    C           -3.087732833919    -0.611459146138     0.530327699413
    C            0.354554641896    -0.229510104206     0.161228686876
    H           -0.656855158535     0.188641907408    -1.695509683935
    H           -1.059521779203    -1.379046718817    -1.009318628257
    C            1.609876044565    -0.858834032270    -0.448662668038
    H            0.517770979618     0.821058177213     0.374393323086
    H            0.139713407353    -0.711681682934     1.113212666176
    C            2.889333594095    -0.645787515541     0.367700182174
    H            1.751071950701    -0.478150960574    -1.458578850825
    H            1.440716220552    -1.928536568166    -0.557236081290
    C            3.394453873116     0.797964169492     0.389802890749
    H            3.668903657436    -1.281306354411    -0.044616854135
    H            2.726690594227    -0.989514198165     1.387261958856
    H            3.568410255170     1.164649363438    -0.618033702317
    H            4.331976723242     0.868180886808     0.932552215304
    H            2.690774506101     1.470068147957     0.869135841423
    H           -3.573579115706    -1.230333652916    -0.219418156241
    H           -3.833248094032    -0.027012350392     1.051267211465
    H           -2.591668283711    -1.281839811353     1.226205561757

  Mulliken Charges: (a.u.)
   Center  Symbol    Alpha    Beta     Spin     Total
       1     O     4.26244  4.26244  0.00000 -0.52488
       2     C     2.73714  2.73714  0.00000  0.52573
       3     C     3.19974  3.19974  0.00000 -0.39948
       4     C     3.28944  3.28944  0.00000 -0.57889
       5     C     3.16405  3.16405  0.00000 -0.32810
       6     H     0.40099  0.40099  0.00000  0.19803
       7     H     0.41707  0.41707  0.00000  0.16587
       8     C     3.15302  3.15302  0.00000 -0.30605
       9     H     0.40414  0.40414  0.00000  0.19173
      10     H     0.42067  0.42067  0.00000  0.15867
      11     C     3.15349  3.15349  0.00000 -0.30697
      12     H     0.42111  0.42111  0.00000  0.15778
      13     H     0.42179  0.42179  0.00000  0.15643
      14     C     3.24169  3.24169  0.00000 -0.48339
      15     H     0.41948  0.41948  0.00000  0.16104
      16     H     0.42274  0.42274  0.00000  0.15452
      17     H     0.42087  0.42087  0.00000  0.15825
      18     H     0.41826  0.41826  0.00000  0.16347
      19     H     0.41815  0.41815  0.00000  0.16369
      20     H     0.40683  0.40683  0.00000  0.18634
      21     H     0.39710  0.39710  0.00000  0.20579
      22     H     0.40979  0.40979  0.00000  0.18043

   Total alpha = 32.00000, Total beta = 32.00000, Total charge = -0.00000
