  ==> Input File <==

--------------------------------------------------------------------------
set {
	reference rhf
	basis 6-31G*
}

set_num_threads( 4 )
memory 2 gb

molecule MOL {
0 1

H	 -2.365627	 -1.312883	 -0.379134
C	 -1.358347	 -1.274295	 0.019669
C	 -0.681945	 0.000119	 -0.470601
H	 -0.826096	 -2.155117	 -0.321105
H	 -1.409554	 -1.292283	 1.100109
C	 -1.357790	 1.274691	 0.020220
N	 0.739525	 -0.000142	 0.006128
H	 -0.594190	 0.000341	 -1.545128
H	 -2.364980	 1.313977	 -0.378631
H	 -0.825080	 2.155361	 -0.320114
H	 -1.409060	 1.292170	 1.100671
O	 0.945181	 0.361227	 1.123133
O	 1.575965	 -0.362961	 -0.764670

	symmetry c1
}
set optking {
	frozen_dihedral = ("
		12 7 3 8
	")
}

ee = optimize('scf')
oeprop('DIPOLE', 'QUADRUPOLE', 'MULLIKEN_CHARGES')
f=open( 'psi4out.xyz', 'w' )
f.write( "13  " )
f.write( str(ee) + "\n" )
f.write( MOL.save_string_xyz() )
f.close()
--------------------------------------------------------------------------

    Molecular point group: c1
  Charge       = 0
  Multiplicity = 1
  Basis Set: 6-31G*
  Basis Set:
  @DF-RHF Final Energy:  -321.73872949997053
    Total Energy =                       -321.7387294999706455
    Molecular point group: c1
  Basis Set: 6-31G*
  Basis Set:
  Basis Set: 6-31G*
  Basis Set:
  @DF-RHF Final Energy:  -321.73464223340528
    Total Energy =                       -321.7346422334053955
  Basis Set: 6-31G*
  Basis Set:
  Basis Set: 6-31G*
  Basis Set:
  @DF-RHF Final Energy:  -321.73872679333618
    Total Energy =                       -321.7387267933360135
  Basis Set: 6-31G*
  Basis Set:
  Basis Set: 6-31G*
  Basis Set:
  @DF-RHF Final Energy:  -321.73899561573637
    Total Energy =                       -321.7389956157361439
  Basis Set: 6-31G*
  Basis Set:
  Basis Set: 6-31G*
  Basis Set:
  @DF-RHF Final Energy:  -321.73899744080279
    Total Energy =                       -321.7389974408027911
  Basis Set: 6-31G*
  Basis Set:
  Charge       = 0
  Multiplicity = 1
  Basis Set: 6-31G*
  Basis Set:

    Orbital Energies (a.u.)
    -----------------------

    Doubly Occupied:

       1A    -20.599785     2A    -20.599069     3A    -15.842967
       4A    -11.306088     5A    -11.248539     6A    -11.243041
       7A     -1.628613     8A     -1.414059     9A     -1.143880
      10A     -0.974202    11A     -0.957925    12A     -0.813871
      13A     -0.751291    14A     -0.727500    15A     -0.722058
      16A     -0.649324    17A     -0.594544    18A     -0.588055
      19A     -0.571943    20A     -0.530173    21A     -0.522743
      22A     -0.482052    23A     -0.469166    24A     -0.447099

  @DF-RHF Final Energy:  -321.73899830276417

   => Energetics <=

    Nuclear Repulsion Energy =            256.8101648362526817
    One-Electron Energy =                -947.4423499553961392
    Two-Electron Energy =                 368.8931868163792842
    DFT Exchange-Correlation Energy =       0.0000000000000000
    Empirical Dispersion Energy =           0.0000000000000000
    PCM Polarization Energy =               0.0000000000000000
    EFP Energy =                            0.0000000000000000
    Total Energy =                       -321.7389983027642302
    Molecular point group: c1
  Basis Set: 6-31G*
  Basis Set:

  -Total Gradient:
     Atom            X                  Y                   Z
    ------   -----------------  -----------------  -----------------
       1       -0.000001303351    -0.000000860951     0.000000773127
       2        0.000019395120     0.000014730235    -0.000017275247
       3        0.000000021424    -0.000461472663    -0.000050665160
       4        0.000000224614    -0.000008615467     0.000004414890
       5       -0.000000487281     0.000004998555     0.000000421016
       6       -0.000008076113     0.000019478594     0.000004778592
       7       -0.000089028403    -0.000589414486     0.000295578181
       8        0.000020671323     0.000536874157     0.000006224027
       9       -0.000003566744     0.000002417330     0.000000236595
      10       -0.000002786253     0.000000720123     0.000003076321
      11        0.000003840935    -0.000002057527    -0.000003901195
      12        0.000043517666     0.000494956839    -0.000212574553
      13        0.000017577061    -0.000011754742    -0.000031086598

  **** Optimization is complete! (in 6 steps) ****
    Final optimized geometry and variables:
    Molecular point group: c1

    Geometry (in Angstrom), charge = 0, multiplicity = 1:

    H           -2.359363359143    -1.300826774304    -0.359478019482
    C           -1.345480677715    -1.258172469269     0.020919287282
    C           -0.682439770034     0.027277808600    -0.467007279304
    H           -0.809638181063    -2.129675681056    -0.335511025193
    H           -1.380300658998    -1.282968836780     1.103343105189
    C           -1.373007646307     1.291980122884     0.019036288088
    N            0.740758228412     0.000295646193     0.005837372012
    H           -0.594866677883     0.022535323551    -1.541919074083
    H           -2.371076258454     1.325213534891    -0.403657226042
    H           -0.840353648623     2.179377874489    -0.302120987070
    H           -1.449529713846     1.306512859922     1.097242408907
    O            0.964123052109     0.359856780033     1.121233690517
    O            1.556684325644    -0.413515967596    -0.759194429094

  Mulliken Charges: (a.u.)
   Center  Symbol    Alpha    Beta     Spin     Total
       1     H     0.40613  0.40613  0.00000  0.18773
       2     C     3.25057  3.25057  0.00000 -0.50114
       3     C     3.02304  3.02304  0.00000 -0.04607
       4     H     0.39871  0.39871  0.00000  0.20259
       5     H     0.39984  0.39984  0.00000  0.20032
       6     C     3.24710  3.24710  0.00000 -0.49419
       7     N     3.21685  3.21685  0.00000  0.56630
       8     H     0.38598  0.38598  0.00000  0.22804
       9     H     0.41063  0.41063  0.00000  0.17874
      10     H     0.40423  0.40423  0.00000  0.19155
      11     H     0.39694  0.39694  0.00000  0.20613
      12     O     4.23056  4.23056  0.00000 -0.46113
      13     O     4.22943  4.22943  0.00000 -0.45885

   Total alpha = 24.00000, Total beta = 24.00000, Total charge = -0.00000
