  ==> Input File <==

--------------------------------------------------------------------------
set {
	reference rhf
	basis 6-31G*
}

set_num_threads( 4 )
memory 2 gb

molecule MOL {
0 1

H	 -0.546505	 4.318054	 1.545152
O	 0.134438	 3.717539	 1.277566
C	 -0.425387	 2.457531	 1.010048
C	 0.692654	 1.522385	 0.584334
H	 -0.923976	 2.064162	 1.894909
H	 -1.171927	 2.529839	 0.220244
C	 0.198102	 0.111031	 0.262842
H	 1.431353	 1.488006	 1.380494
H	 1.187264	 1.952955	 -0.281950
C	 1.331804	 -0.827780	 -0.158768
H	 -0.314612	 -0.294530	 1.131644
H	 -0.541246	 0.157945	 -0.535708
C	 2.723619	 -0.410569	 0.329459
H	 1.342964	 -0.912588	 -1.244120
H	 1.116806	 -1.824343	 0.220779
C	 3.243875	 0.895854	 -0.272975
H	 3.424222	 -1.207124	 0.091250
H	 2.714788	 -0.329854	 1.414619
H	 3.251977	 0.848779	 -1.358681
H	 2.637085	 1.747371	 0.016682
H	 4.259473	 1.094070	 0.055697

	symmetry c1
}
set optking {
	frozen_dihedral = ("
		4 7 10 14
	")
}

ee = optimize('scf')
oeprop('DIPOLE', 'QUADRUPOLE', 'MULLIKEN_CHARGES')
f=open( 'psi4out.xyz', 'w' )
f.write( "21  " )
f.write( str(ee) + "\n" )
f.write( MOL.save_string_xyz() )
f.close()
--------------------------------------------------------------------------

    Molecular point group: c1
  Charge       = 0
  Multiplicity = 1
  Basis Set: 6-31G*
  Basis Set:
  @DF-RHF Final Energy:  -310.17793254093749
    Total Energy =                       -310.1779325409377179
    Molecular point group: c1
  Basis Set: 6-31G*
  Basis Set:
  Basis Set: 6-31G*
  Basis Set:
  @DF-RHF Final Energy:  -310.19618510589862
    Total Energy =                       -310.1961851058990760
  Basis Set: 6-31G*
  Basis Set:
  Basis Set: 6-31G*
  Basis Set:
  @DF-RHF Final Energy:  -310.20103951338825
    Total Energy =                       -310.2010395133883094
  Basis Set: 6-31G*
  Basis Set:
  Basis Set: 6-31G*
  Basis Set:
  @DF-RHF Final Energy:  -310.20236828658540
    Total Energy =                       -310.2023682865853971
  Basis Set: 6-31G*
  Basis Set:
  @DF-RHF Final Energy:  -310.20258490734392
    Total Energy =                       -310.2025849073442032
  @DF-RHF Final Energy:  -310.20296568264791
    Total Energy =                       -310.2029656826480277
  Basis Set: 6-31G*
  Basis Set:
  @DF-RHF Final Energy:  -310.20300193562883
    Total Energy =                       -310.2030019356284924
  Basis Set: 6-31G*
  Basis Set:
  Basis Set: 6-31G*
  Basis Set:
  @DF-RHF Final Energy:  -310.20300641104535
    Total Energy =                       -310.2030064110451804
  Basis Set: 6-31G*
  Basis Set:
  Basis Set: 6-31G*
  Basis Set:
  @DF-RHF Final Energy:  -310.20300745241366
    Total Energy =                       -310.2030074524134875
  Basis Set: 6-31G*
  Basis Set:
  Charge       = 0
  Multiplicity = 1
  Basis Set: 6-31G*
  Basis Set:

    Orbital Energies (a.u.)
    -----------------------

    Doubly Occupied:

       1A    -20.552059     2A    -11.267123     3A    -11.217103
       4A    -11.214622     5A    -11.214048     6A    -11.210369
       7A    -11.204053     8A     -1.358878     9A     -1.082070
      10A     -1.029120    11A     -0.957199    12A     -0.873997
      13A     -0.816559    14A     -0.768456    15A     -0.689376
      16A     -0.659479    17A     -0.623818    18A     -0.608542
      19A     -0.580594    20A     -0.566124    21A     -0.539574
      22A     -0.523392    23A     -0.504449    24A     -0.491319
      25A     -0.483228    26A     -0.451502    27A     -0.446188
      28A     -0.443025    29A     -0.434138

  @DF-RHF Final Energy:  -310.20300781593431

   => Energetics <=

    Nuclear Repulsion Energy =            319.3192570076002426
    One-Electron Energy =               -1053.4237280817885676
    Two-Electron Energy =                 423.9014632582540116
    DFT Exchange-Correlation Energy =       0.0000000000000000
    Empirical Dispersion Energy =           0.0000000000000000
    PCM Polarization Energy =               0.0000000000000000
    EFP Energy =                            0.0000000000000000
    Total Energy =                       -310.2030078159342565
    Molecular point group: c1
  Basis Set: 6-31G*
  Basis Set:

  -Total Gradient:
     Atom            X                  Y                   Z
    ------   -----------------  -----------------  -----------------
       1       -0.000003038971     0.000001617597     0.000001222869
       2       -0.000007217253    -0.000007775521    -0.000003252148
       3        0.000007607861     0.000001745000    -0.000008891792
       4        0.000592963048    -0.001216704296     0.004248269980
       5        0.000010840027     0.000003817968    -0.000003595044
       6        0.000006951750     0.000007243015     0.000003904857
       7       -0.001763490700     0.000693721855    -0.006135575320
       8       -0.000006701546     0.000015283571    -0.000000303252
       9       -0.000012039958    -0.000013170838     0.000012280619
      10        0.004781588636     0.005084863348     0.001596640496
      11       -0.000005295965     0.000015247003     0.000002040573
      12        0.000004214356    -0.000008193748     0.000001951153
      13       -0.000002625972     0.000035727971     0.000032369286
      14       -0.003651033298    -0.004588793353     0.000265989866
      15       -0.000001288601     0.000013128403    -0.000000778587
      16        0.000022035847    -0.000022240265    -0.000010676246
      17        0.000012324373     0.000019576544    -0.000015422543
      18        0.000015518874    -0.000011102470     0.000009863375
      19       -0.000000829410     0.000014644605    -0.000007071738
      20        0.000009068653    -0.000046551781     0.000006475563
      21       -0.000009551751     0.000007915392     0.000004558034

  **** Optimization is complete! (in 10 steps) ****
    Final optimized geometry and variables:
    Molecular point group: c1

    Geometry (in Angstrom), charge = 0, multiplicity = 1:

    H           -2.050127654925     3.106503587195     1.266566040638
    O           -1.308301151776     2.609170951826     0.953047412526
    C           -1.713223976686     1.299765567423     0.646106679832
    C           -0.499170042465     0.534133245075     0.147726926224
    H           -2.127303927306     0.810733165240     1.526833389085
    H           -2.489542048586     1.308072866676    -0.117746666561
    C           -0.850122865661    -0.910750019128    -0.218136893836
    H            0.257779902344     0.564683315410     0.923531044085
    H           -0.098519034763     1.067602463936    -0.708337816759
    C            0.301048129431    -1.852139472216    -0.653878784933
    H           -1.327069904937    -1.354298859915     0.654180231540
    H           -1.607595005443    -0.909891945054    -0.997712361642
    C            1.717989388658    -1.588425717894    -0.121752768625
    H            0.319718201573    -1.931132027611    -1.738663262242
    H            0.013978777840    -2.848690541337    -0.326800003190
    C            2.529754310518    -0.549015304900    -0.898387832124
    H            2.262104878777    -2.528726914575    -0.159627973646
    H            1.675449948483    -1.315558633929     0.929738861052
    H            2.607069026797    -0.828223823348    -1.945653189204
    H            2.092474516067     0.440377879228    -0.852336167906
    H            3.538449880888    -0.479410024424    -0.501986259165

  Mulliken Charges: (a.u.)
   Center  Symbol    Alpha    Beta     Spin     Total
       1     H     0.28113  0.28113  0.00000  0.43774
       2     O     4.37218  4.37218  0.00000 -0.74437
       3     C     2.98871  2.98871  0.00000  0.02259
       4     C     3.16361  3.16361  0.00000 -0.32722
       5     H     0.43288  0.43288  0.00000  0.13423
       6     H     0.43286  0.43286  0.00000  0.13428
       7     C     3.16176  3.16176  0.00000 -0.32353
       8     H     0.41260  0.41260  0.00000  0.17479
       9     H     0.41387  0.41387  0.00000  0.17225
      10     C     3.15497  3.15497  0.00000 -0.30994
      11     H     0.42417  0.42417  0.00000  0.15166
      12     H     0.42078  0.42078  0.00000  0.15844
      13     C     3.15673  3.15673  0.00000 -0.31345
      14     H     0.42178  0.42178  0.00000  0.15645
      15     H     0.42061  0.42061  0.00000  0.15878
      16     C     3.24115  3.24115  0.00000 -0.48231
      17     H     0.42072  0.42072  0.00000  0.15856
      18     H     0.42113  0.42113  0.00000  0.15773
      19     H     0.42297  0.42297  0.00000  0.15407
      20     H     0.41493  0.41493  0.00000  0.17014
      21     H     0.42045  0.42045  0.00000  0.15909

   Total alpha = 29.00000, Total beta = 29.00000, Total charge =  0.00000
