  ==> Input File <==

--------------------------------------------------------------------------
set {
	reference rhf
	basis 6-31G*
}

set_num_threads( 4 )
memory 2 gb

molecule MOL {
0 1

O	 -2.439739	 -0.935931	 -0.423848
C	 -1.921153	 0.064240	 -0.045697
C	 -2.624470	 1.379923	 0.150949
O	 -0.632575	 0.154573	 0.251549
H	 -2.168117	 2.136577	 -0.476876
H	 -3.669540	 1.273223	 -0.098610
H	 -2.519365	 1.700893	 1.180846
C	 0.160891	 -1.019931	 0.106212
C	 1.589627	 -0.672828	 0.480843
H	 0.089836	 -1.367806	 -0.916050
H	 -0.238459	 -1.792301	 0.749618
C	 2.246377	 0.346236	 -0.452210
H	 2.163194	 -1.597435	 0.473358
H	 1.604769	 -0.303424	 1.502885
C	 1.232061	 1.290885	 -1.095485
H	 2.976464	 0.926773	 0.108190
H	 2.796635	 -0.178402	 -1.226374
H	 1.721859	 2.002491	 -1.752559
H	 0.687498	 1.855409	 -0.343792
H	 0.504974	 0.741462	 -1.686719

	symmetry c1
}
set optking {
	frozen_dihedral = ("
		16 12 9 8
	")
}

ee = optimize('scf')
oeprop('DIPOLE', 'QUADRUPOLE', 'MULLIKEN_CHARGES')
f=open( 'psi4out.xyz', 'w' )
f.write( "20  " )
f.write( str(ee) + "\n" )
f.write( MOL.save_string_xyz() )
f.close()
--------------------------------------------------------------------------

    Molecular point group: c1
  Charge       = 0
  Multiplicity = 1
  Basis Set: 6-31G*
  Basis Set:
  @DF-RHF Final Energy:  -383.92937445968721
    Total Energy =                       -383.9293744596868692
    Molecular point group: c1
  Basis Set: 6-31G*
  Basis Set:
  Basis Set: 6-31G*
  Basis Set:
  @DF-RHF Final Energy:  -383.93580223814337
    Total Energy =                       -383.9358022381431965
  Basis Set: 6-31G*
  Basis Set:
  Basis Set: 6-31G*
  Basis Set:
  @DF-RHF Final Energy:  -383.93745809798679
    Total Energy =                       -383.9374580979866778
  Basis Set: 6-31G*
  Basis Set:
  Basis Set: 6-31G*
  Basis Set:
  @DF-RHF Final Energy:  -383.93797670261853
    Total Energy =                       -383.9379767026182435
  Basis Set: 6-31G*
  Basis Set:
  @DF-RHF Final Energy:  -383.93799667019198
    Total Energy =                       -383.9379966701918647
  @DF-RHF Final Energy:  -383.93810180603998
    Total Energy =                       -383.9381018060402084
  @DF-RHF Final Energy:  -383.93818976426979
    Total Energy =                       -383.9381897642698505
  @DF-RHF Final Energy:  -383.93824617854153
    Total Energy =                       -383.9382461785413625
  Basis Set: 6-31G*
  Basis Set:
  @DF-RHF Final Energy:  -383.93825021880224
    Total Energy =                       -383.9382502188019544
  Basis Set: 6-31G*
  Basis Set:
  Basis Set: 6-31G*
  Basis Set:
  @DF-RHF Final Energy:  -383.93825202432208
    Total Energy =                       -383.9382520243221961
  Basis Set: 6-31G*
  Basis Set:
  Basis Set: 6-31G*
  Basis Set:
  @DF-RHF Final Energy:  -383.93825304346171
    Total Energy =                       -383.9382530434612590
  Basis Set: 6-31G*
  Basis Set:
  Charge       = 0
  Multiplicity = 1
  Basis Set: 6-31G*
  Basis Set:

    Orbital Energies (a.u.)
    -----------------------

    Doubly Occupied:

       1A    -20.601750     2A    -20.544206     3A    -11.374579
       4A    -11.282514     5A    -11.233465     6A    -11.226244
       7A    -11.222928     8A    -11.209738     9A     -1.468208
      10A     -1.362395    11A     -1.082277    12A     -1.026211
      13A     -0.979228    14A     -0.891937    15A     -0.797252
      16A     -0.777555    17A     -0.689600    18A     -0.687792
      19A     -0.664479    20A     -0.625559    21A     -0.610036
      22A     -0.582793    23A     -0.570315    24A     -0.554215
      25A     -0.549485    26A     -0.527575    27A     -0.516280
      28A     -0.479704    29A     -0.475427    30A     -0.466203
      31A     -0.446041    32A     -0.437847

  @DF-RHF Final Energy:  -383.93825311502258

   => Energetics <=

    Nuclear Repulsion Energy =            395.0383821577596564
    One-Electron Energy =               -1306.0255920306053667
    Two-Electron Energy =                 527.0489567578227934
    DFT Exchange-Correlation Energy =       0.0000000000000000
    Empirical Dispersion Energy =           0.0000000000000000
    PCM Polarization Energy =               0.0000000000000000
    EFP Energy =                            0.0000000000000000
    Total Energy =                       -383.9382531150229170
    Molecular point group: c1
  Basis Set: 6-31G*
  Basis Set:

  -Total Gradient:
     Atom            X                  Y                   Z
    ------   -----------------  -----------------  -----------------
       1        0.000000189544    -0.000001367649     0.000000510243
       2        0.000004013035     0.000010140361     0.000000988933
       3        0.000002175023    -0.000001883186    -0.000001724156
       4       -0.000017810036    -0.000003693694    -0.000014546302
       5        0.000000437857     0.000000110357     0.000001440086
       6        0.000001939900    -0.000002810293    -0.000000348708
       7       -0.000000863700     0.000001356562     0.000001713040
       8       -0.001379213539     0.003212760410     0.001981497639
       9        0.001245787241    -0.003871512952    -0.002716566255
      10       -0.000005101139     0.000012752429     0.000001363699
      11       -0.000001142243    -0.000005639270    -0.000000747332
      12        0.003757114841    -0.003094613866     0.000177425481
      13        0.000001935291    -0.000000876609    -0.000007757326
      14       -0.000000595469    -0.000007589728     0.000001404071
      15        0.000005785259    -0.000008971310    -0.000004779797
      16       -0.003622466110     0.003755770930     0.000581153723
      17       -0.000001186661     0.000007857375    -0.000003106188
      18        0.000007386052     0.000002366604    -0.000001551945
      19        0.000000627788    -0.000002589405     0.000004461039
      20        0.000000987067    -0.000001567062    -0.000000829947

  **** Optimization is complete! (in 12 steps) ****
    Final optimized geometry and variables:
    Molecular point group: c1

    Geometry (in Angstrom), charge = 0, multiplicity = 1:

    O           -2.158263470028    -1.038200604203    -0.321100595254
    C           -1.684040705500    -0.050849429593     0.140112070045
    C           -2.447162705849     1.207997939400     0.452330997436
    O           -0.399881196753     0.073243590279     0.444146804671
    H           -2.043851328196     2.031896486060    -0.125355656546
    H           -3.490992311674     1.067125874505     0.214757820235
    H           -2.334103814059     1.455719980325     1.501346609197
    C            0.444657875749    -1.047116097148     0.199585053467
    C            1.863155222971    -0.685770983976     0.611831468821
    H            0.372942185444    -1.325497483995    -0.843184842018
    H            0.082547432898    -1.880771856182     0.786118061553
    C            2.666541642770     0.237585703517    -0.331891412847
    H            2.412322826420    -1.613847708793     0.742978465632
    H            1.797490823144    -0.232422246503     1.596492852035
    C            1.860398661047     1.248344106299    -1.154704297699
    H            3.359168078036     0.811026671174     0.276945223895
    H            3.260665094452    -0.367869689544    -1.010208694257
    H            2.534607114611     1.844209015868    -1.762418079610
    H            1.299004559379     1.922214010043    -0.518447079296
    H            1.159105018330     0.765293863862    -1.826732500688

  Mulliken Charges: (a.u.)
   Center  Symbol    Alpha    Beta     Spin     Total
       1     O     4.28333  4.28333  0.00000 -0.56665
       2     C     2.61903  2.61903  0.00000  0.76194
       3     C     3.28205  3.28205  0.00000 -0.56410
       4     O     4.30729  4.30729  0.00000 -0.61459
       5     H     0.40041  0.40041  0.00000  0.19919
       6     H     0.39684  0.39684  0.00000  0.20632
       7     H     0.40073  0.40073  0.00000  0.19854
       8     C     3.00790  3.00790  0.00000 -0.01580
       9     C     3.16611  3.16611  0.00000 -0.33223
      10     H     0.40912  0.40912  0.00000  0.18175
      11     H     0.40829  0.40829  0.00000  0.18342
      12     C     3.15589  3.15589  0.00000 -0.31178
      13     H     0.41525  0.41525  0.00000  0.16950
      14     H     0.41224  0.41224  0.00000  0.17552
      15     C     3.23944  3.23944  0.00000 -0.47889
      16     H     0.41825  0.41825  0.00000  0.16349
      17     H     0.42020  0.42020  0.00000  0.15959
      18     H     0.42081  0.42081  0.00000  0.15838
      19     H     0.41500  0.41500  0.00000  0.17000
      20     H     0.42181  0.42181  0.00000  0.15639

   Total alpha = 32.00000, Total beta = 32.00000, Total charge = -0.00000
