  ==> Input File <==

--------------------------------------------------------------------------
set {
	reference rhf
	basis 6-31G*
}

set_num_threads( 1 )
memory 2 gb

molecule MOL {
0 1

O	 1.214711	 1.306902	 -0.000018
C	 1.122059	 0.121804	 -0.000188
C	 -0.170150	 -0.657997	 -0.000612
O	 2.172624	 -0.688929	 0.000216
C	 -1.412532	 0.227344	 -0.000452
H	 -0.153702	 -1.313099	 -0.867402
H	 -0.153924	 -1.313811	 0.865644
C	 -1.790305	 0.699286	 -1.405416
H	 -1.241176	 1.085228	 0.642336
H	 -2.241365	 -0.318335	 0.439745
C	 -3.034824	 1.585903	 -1.414609
H	 -0.956139	 1.244717	 -1.842166
H	 -1.958336	 -0.164168	 -2.045950
H	 -2.885930	 2.475844	 -0.810051
H	 -3.280676	 1.906866	 -2.421990
H	 -3.895404	 1.056700	 -1.015876
C	 3.452279	 -0.082609	 0.000533
H	 3.583069	 0.529321	 -0.880332
H	 4.163299	 -0.894027	 0.001117
H	 3.582335	 0.529955	 0.881077

	symmetry c1
}
set optking {
	frozen_dihedral = ("
		9 5 8 12,
		1 2 3 6,
		1 2 4 17
	")
}

ee = energy('scf')
oeprop('DIPOLE', 'QUADRUPOLE', 'MULLIKEN_CHARGES')
f=open( 'psi4out.xyz', 'w' )
f.write( "20  " )
f.write( str(ee) + "\n" )
f.write( MOL.save_string_xyz() )
f.close()
--------------------------------------------------------------------------

    Molecular point group: c1

    Geometry (in Angstrom), charge = 0, multiplicity = 1:

       Center              X                  Y                   Z               Mass
    ------------   -----------------  -----------------  -----------------  -----------------
           O          0.984722205929     0.984099262976     0.352786012469    15.994914619560
           C          0.892070205929    -0.200998737024     0.352616012469    12.000000000000
           C         -0.400138794071    -0.980799737024     0.352192012469    12.000000000000
           O          1.942635205929    -1.011731737024     0.353020012469    15.994914619560
           C         -1.642520794071    -0.095458737024     0.352352012469    12.000000000000
           H         -0.383690794071    -1.635901737024    -0.514597987531     1.007825032070
           H         -0.383912794071    -1.636613737024     1.218448012469     1.007825032070
           C         -2.020293794071     0.376483262976    -1.052611987531    12.000000000000
           H         -1.471164794071     0.762425262976     0.995140012469     1.007825032070
           H         -2.471353794071    -0.641137737024     0.792549012469     1.007825032070
           C         -3.264812794071     1.263100262976    -1.061804987531    12.000000000000
           H         -1.186127794071     0.921914262976    -1.489361987531     1.007825032070
           H         -2.188324794071    -0.486970737024    -1.693145987531     1.007825032070
           H         -3.115918794071     2.153041262976    -0.457246987531     1.007825032070
           H         -3.510664794071     1.584063262976    -2.069185987531     1.007825032070
           H         -4.125392794071     0.733897262976    -0.663071987531     1.007825032070
           C          3.222290205929    -0.405411737024     0.353337012469    12.000000000000
           H          3.353080205929     0.206518262976    -0.527527987531     1.007825032070
           H          3.933310205929    -1.216829737024     0.353921012469     1.007825032070
           H          3.352346205929     0.207152262976     1.233881012469     1.007825032070

  Charge       = 0
  Multiplicity = 1
  Basis Set: 6-31G*
  Basis Set:

    Orbital Energies (a.u.)
    -----------------------

    Doubly Occupied:

       1A    -20.604648     2A    -20.546701     3A    -11.373247
       4A    -11.281501     5A    -11.235207     6A    -11.218332
       7A    -11.214325     8A    -11.206509     9A     -1.470413
      10A     -1.364117    11A     -1.087185    12A     -1.021666
      13A     -0.968684    14A     -0.883541    15A     -0.804908
      16A     -0.766712    17A     -0.703495    18A     -0.680887
      19A     -0.672737    20A     -0.628692    21A     -0.607970
      22A     -0.587217    23A     -0.578238    24A     -0.545211
      25A     -0.530455    26A     -0.515670    27A     -0.511913
      28A     -0.476758    29A     -0.470506    30A     -0.460894
      31A     -0.455768    32A     -0.438178

  @DF-RHF Final Energy:  -383.94037273451630

   => Energetics <=

    Nuclear Repulsion Energy =            388.0566723104339530
    One-Electron Energy =               -1292.1695758423179541
    Two-Electron Energy =                 520.1725307973681538
    DFT Exchange-Correlation Energy =       0.0000000000000000
    Empirical Dispersion Energy =           0.0000000000000000
    PCM Polarization Energy =               0.0000000000000000
    EFP Energy =                            0.0000000000000000
    Total Energy =                       -383.9403727345159041

  Mulliken Charges: (a.u.)
   Center  Symbol    Alpha    Beta     Spin     Total
       1     O     4.28617  4.28617  0.00000 -0.57234
       2     C     2.60675  2.60675  0.00000  0.78650
       3     C     3.20996  3.20996  0.00000 -0.41991
       4     O     4.30657  4.30657  0.00000 -0.61313
       5     C     3.15582  3.15582  0.00000 -0.31164
       6     H     0.39982  0.39982  0.00000  0.20035
       7     H     0.39777  0.39777  0.00000  0.20447
       8     C     3.15614  3.15614  0.00000 -0.31228
       9     H     0.40484  0.40484  0.00000  0.19032
      10     H     0.41931  0.41931  0.00000  0.16139
      11     C     3.24034  3.24034  0.00000 -0.48067
      12     H     0.41150  0.41150  0.00000  0.17699
      13     H     0.42566  0.42566  0.00000  0.14867
      14     H     0.41824  0.41824  0.00000  0.16352
      15     H     0.41914  0.41914  0.00000  0.16173
      16     H     0.42325  0.42325  0.00000  0.15350
      17     C     3.09241  3.09241  0.00000 -0.18482
      18     H     0.40906  0.40906  0.00000  0.18188
      19     H     0.40830  0.40830  0.00000  0.18340
      20     H     0.40896  0.40896  0.00000  0.18209

   Total alpha = 32.00000, Total beta = 32.00000, Total charge = -0.00000
