                              Psi4 1.0.54 Driver

  ==> Input File <==

--------------------------------------------------------------------------
set {
	reference rhf
	basis cc-pvtz
}

set_num_threads( 4 )
memory 2 gb

molecule MOL {
0 1

H	 2.614283	 2.028610	 0.296620
O	 3.358864	 1.662087	 -0.142800
C	 3.565468	 0.338079	 0.273842
C	 2.533667	 -0.637565	 -0.272227
H	 4.548038	 0.064914	 -0.086598
H	 3.593945	 0.282242	 1.360360
C	 1.114816	 -0.402372	 0.240993
H	 2.544552	 -0.580764	 -1.356576
H	 2.850574	 -1.642962	 -0.005497
C	 1.056655	 -0.224650	 1.757525
H	 0.485489	 -1.237021	 -0.049373
H	 0.700773	 0.483316	 -0.237975
C	 -0.331715	 0.087717	 2.318871
H	 1.444335	 -1.120239	 2.236953
H	 1.729005	 0.581984	 2.036374
C	 -1.348705	 -1.045619	 2.196304
H	 -0.224936	 0.343715	 3.369391
H	 -0.723950	 0.977133	 1.830766
C	 -2.685813	 -0.722504	 2.858233
H	 -0.936247	 -1.946616	 2.645249
H	 -1.523455	 -1.279410	 1.150452
C	 -3.704778	 -1.850459	 2.734458
H	 -2.521398	 -0.499927	 3.908949
H	 -3.095193	 0.182198	 2.416664
H	 -3.337974	 -2.761554	 3.195541
H	 -4.640130	 -1.589865	 3.216449
H	 -3.919760	 -2.071844	 1.694206

	symmetry c1
}
set optking {
	frozen_dihedral = ("
		10 7 4 8
	")
}

ee,wfn = optimize('scf', return_wfn=True)
oeprop( wfn, 'DIPOLE', 'QUADRUPOLE', 'MULLIKEN_CHARGES')
f=open( 'psi4out.xyz', 'w' )
f.write( "27  " )
f.write( str(ee) + "\n" )
f.write( MOL.save_string_xyz() )
f.close()
--------------------------------------------------------------------------

    Molecular point group: c1
  Charge       = 0
  Multiplicity = 1
  Basis Set: CC-PVTZ
  Basis Set:
  @DF-RHF Final Energy:  -388.42309278315588
    Total Energy =                       -388.4230927831557665
    Molecular point group: c1
  Basis Set: CC-PVTZ
  Basis Set:
  Basis Set: CC-PVTZ
  Basis Set:
  @DF-RHF Final Energy:  -388.37533558723413
    Total Energy =                       -388.3753355872340762
  Basis Set: CC-PVTZ
  Basis Set:
  Basis Set: CC-PVTZ
  Basis Set:
  @DF-RHF Final Energy:  -388.42126657035413
    Total Energy =                       -388.4212665703544189
  Basis Set: CC-PVTZ
  Basis Set:
  Basis Set: CC-PVTZ
  Basis Set:
  @DF-RHF Final Energy:  -388.42458987191407
    Total Energy =                       -388.4245898719136676
  Basis Set: CC-PVTZ
  Basis Set:
  @DF-RHF Final Energy:  -388.42472668795352
    Total Energy =                       -388.4247266879534664
  Basis Set: CC-PVTZ
  Basis Set:
  @DF-RHF Final Energy:  -388.42489059711454
    Total Energy =                       -388.4248905971147678
  Basis Set: CC-PVTZ
  Basis Set:
  Basis Set: CC-PVTZ
  Basis Set:
  @DF-RHF Final Energy:  -388.42488260758165
    Total Energy =                       -388.4248826075815941
  Basis Set: CC-PVTZ
  Basis Set:
  Basis Set: CC-PVTZ
  Basis Set:
  @DF-RHF Final Energy:  -388.42490192279303
    Total Energy =                       -388.4249019227931967
  Basis Set: CC-PVTZ
  Basis Set:
  Charge       = 0
  Multiplicity = 1
  Basis Set: CC-PVTZ
  Basis Set:

    Orbital Energies (a.u.)
    -----------------------

    Doubly Occupied:

       1A    -20.545027     2A    -11.263332     3A    -11.218685
       4A    -11.216833     5A    -11.215871     6A    -11.214880
       7A    -11.213972     8A    -11.213159     9A    -11.207996
      10A     -1.362639    11A     -1.097380    12A     -1.062241
      13A     -1.012386    14A     -0.948548    15A     -0.894665
      16A     -0.828585    17A     -0.798824    18A     -0.774037
      19A     -0.693952    20A     -0.650554    21A     -0.646848
      22A     -0.612662    23A     -0.602201    24A     -0.586035
      25A     -0.573157    26A     -0.567220    27A     -0.544751
      28A     -0.526543    29A     -0.514956    30A     -0.498831
      31A     -0.484906    32A     -0.472855    33A     -0.465656
      34A     -0.461968    35A     -0.455327    36A     -0.442242
      37A     -0.425454

  @DF-RHF Final Energy:  -388.42490216910949

   => Energetics <=

    Nuclear Repulsion Energy =            464.5882008267213905
    One-Electron Energy =               -1447.3958490775730752
    Two-Electron Energy =                 594.3827460817417432
    DFT Exchange-Correlation Energy =       0.0000000000000000
    Empirical Dispersion Energy =           0.0000000000000000
    PCM Polarization Energy =               0.0000000000000000
    EFP Energy =                            0.0000000000000000
    Total Energy =                       -388.4249021691099415
    Molecular point group: c1
  Basis Set: CC-PVTZ
  Basis Set:

  -Total Gradient:
     Atom            X                  Y                   Z
    ------   -----------------  -----------------  -----------------
       1       -0.000004928899     0.000008566274     0.000006432725
       2       -0.000002629297    -0.000018094394     0.000002624298
       3        0.000020854757    -0.000001243029    -0.000014578813
       4        0.000038804737    -0.003190034548    -0.000008580877
       5        0.000003261793    -0.000003629355     0.000001032151
       6       -0.000009213936     0.000006385411    -0.000003039902
       7        0.000456638692    -0.002852180346     0.000671371276
       8       -0.000160718824     0.003501636884    -0.000160139709
       9        0.000007579402     0.000006165119    -0.000002768325
      10       -0.000350483086     0.002536065995    -0.000490686096
      11        0.000004824346     0.000007438684    -0.000001419974
      12       -0.000002837765    -0.000003111730     0.000015235224
      13       -0.000001899893     0.000003337402    -0.000017493087
      14       -0.000003619617    -0.000000635218    -0.000006971177
      15        0.000002981583    -0.000001386250    -0.000001841750
      16        0.000014436162    -0.000004117724     0.000020474985
      17        0.000001050429    -0.000001862889    -0.000007008152
      18       -0.000001813800     0.000000985430     0.000006830391
      19       -0.000014478145    -0.000000089294    -0.000020185235
      20        0.000005896273    -0.000001295936    -0.000004743561
      21       -0.000002112127     0.000002435849     0.000009135908
      22        0.000003667609     0.000005548591     0.000004087203
      23       -0.000000110697    -0.000007203924    -0.000005453630
      24       -0.000006294418    -0.000000862270     0.000007421339
      25       -0.000001353259     0.000001921351    -0.000003265728
      26        0.000000802619     0.000001028513     0.000000842751
      27        0.000001695368     0.000004231412     0.000002687763

  **** Optimization is complete! (in 9 steps) ****
    Final optimized geometry and variables:
    Molecular point group: c1

    Geometry (in Angstrom), charge = 0, multiplicity = 1:

    H            1.338684980033     2.727956999089    -1.532548049902
    O            2.053627070991     2.515698200693    -2.103425382366
    C            2.679114309309     1.331810347717    -1.681951015507
    C            1.819184524316     0.091835392005    -1.891836679009
    H            3.575732937911     1.243539646264    -2.280531728070
    H            2.996552600700     1.416993434676    -0.647067296821
    C            0.485896292112     0.064036580073    -1.134153635272
    H            1.609362040781     0.032973595575    -2.954809540578
    H            2.413599567030    -0.777555396443    -1.623626030719
    C            0.573161845204     0.377448630713     0.360565433509
    H            0.041410107099    -0.912838108359    -1.281735233648
    H           -0.198695699179     0.771442901875    -1.595941342161
    C           -0.759759789054     0.274793857502     1.106756785435
    H            1.298022130558    -0.283219832414     0.831471625784
    H            0.956138101303     1.383726628065     0.498695427078
    C           -1.309282543073    -1.142490210069     1.258215009270
    H           -0.630276624022     0.700620673011     2.097806008471
    H           -1.499292725507     0.895955656370     0.606329190084
    C           -2.594631398127    -1.199054351732     2.079877821909
    H           -0.555641297489    -1.768550306303     1.730890645755
    H           -1.498676627572    -1.577824691869     0.282149191882
    C           -3.146221731630    -2.612455990550     2.233716329367
    H           -2.410988470869    -0.775552971608     3.063488070496
    H           -3.346507051877    -0.568448625097     1.613147251720
    H           -2.429765050706    -3.260595084177     2.727490886935
    H           -4.056256533968    -2.617157994858     2.822586997237
    H           -3.375364366202    -3.050704775195     1.268010611857

  Mulliken Charges: (a.u.)
   Center  Symbol    Alpha    Beta     Spin     Total
       1     H     0.39176  0.39176  0.00000  0.21647
       2     O     4.20849  4.20849  0.00000 -0.41697
       3     C     2.98525  2.98525  0.00000  0.02950
       4     C     3.09491  3.09491  0.00000 -0.18983
       5     H     0.44397  0.44397  0.00000  0.11205
       6     H     0.46679  0.46679  0.00000  0.06642
       7     C     3.11649  3.11649  0.00000 -0.23298
       8     H     0.44715  0.44715  0.00000  0.10570
       9     H     0.45343  0.45343  0.00000  0.09314
      10     C     3.10789  3.10789  0.00000 -0.21578
      11     H     0.44139  0.44139  0.00000  0.11723
      12     H     0.44962  0.44962  0.00000  0.10077
      13     C     3.09625  3.09625  0.00000 -0.19249
      14     H     0.45037  0.45037  0.00000  0.09927
      15     H     0.44816  0.44816  0.00000  0.10368
      16     C     3.08709  3.08709  0.00000 -0.17417
      17     H     0.44764  0.44764  0.00000  0.10473
      18     H     0.45392  0.45392  0.00000  0.09216
      19     C     3.08456  3.08456  0.00000 -0.16912
      20     H     0.45501  0.45501  0.00000  0.08998
      21     H     0.45335  0.45335  0.00000  0.09329
      22     C     3.14968  3.14968  0.00000 -0.29936
      23     H     0.45400  0.45400  0.00000  0.09201
      24     H     0.45424  0.45424  0.00000  0.09152
      25     H     0.45517  0.45517  0.00000  0.08966
      26     H     0.44815  0.44815  0.00000  0.10371
      27     H     0.45529  0.45529  0.00000  0.08943

   Total alpha = 37.00000, Total beta = 37.00000, Total charge = -0.00000

*** Psi4 exiting successfully. Buy a developer a beer!
