                              Psi4 1.0.54 Driver

  ==> Input File <==

--------------------------------------------------------------------------
set {
	reference rhf
	basis cc-pvtz
}

set_num_threads( 4 )
memory 2 gb

molecule MOL {
0 1

H	 2.614283	 2.028610	 0.296620
O	 3.358864	 1.662087	 -0.142800
C	 3.565468	 0.338079	 0.273842
C	 2.533667	 -0.637565	 -0.272227
H	 4.548038	 0.064914	 -0.086598
H	 3.593945	 0.282242	 1.360360
C	 1.114816	 -0.402372	 0.240993
H	 2.544552	 -0.580764	 -1.356576
H	 2.850574	 -1.642962	 -0.005497
C	 0.113298	 -1.420414	 -0.302504
H	 0.796373	 0.598427	 -0.031033
H	 1.113377	 -0.446476	 1.328807
C	 0.458593	 -2.882978	 -0.016265
H	 -0.873093	 -1.199603	 0.098124
H	 0.038110	 -1.289806	 -1.378495
C	 0.396684	 -3.285754	 1.456039
H	 -0.229271	 -3.511305	 -0.575351
H	 1.450133	 -3.100333	 -0.407111
C	 0.651313	 -4.774286	 1.679305
H	 -0.580682	 -3.026334	 1.857194
H	 1.121884	 -2.716772	 2.029927
C	 0.593945	 -5.179150	 3.148552
H	 -0.078865	 -5.351184	 1.118407
H	 1.623842	 -5.036852	 1.271494
H	 -0.378001	 -4.958844	 3.577532
H	 0.776067	 -6.240707	 3.271170
H	 1.338765	 -4.646849	 3.731004

	symmetry c1
}
set optking {
	frozen_dihedral = ("
		14 10 7 4
	")
}

ee,wfn = optimize('scf', return_wfn=True)
oeprop( wfn, 'DIPOLE', 'QUADRUPOLE', 'MULLIKEN_CHARGES')
f=open( 'psi4out.xyz', 'w' )
f.write( "27  " )
f.write( str(ee) + "\n" )
f.write( MOL.save_string_xyz() )
f.close()
--------------------------------------------------------------------------

    Molecular point group: c1
  Charge       = 0
  Multiplicity = 1
  Basis Set: CC-PVTZ
  Basis Set:
  @DF-RHF Final Energy:  -388.42492417999938
    Total Energy =                       -388.4249241799992660
    Molecular point group: c1
  Basis Set: CC-PVTZ
  Basis Set:
  Basis Set: CC-PVTZ
  Basis Set:
  @DF-RHF Final Energy:  -388.13543340855301
    Total Energy =                       -388.1354334085525579
  Basis Set: CC-PVTZ
  Basis Set:
  Basis Set: CC-PVTZ
  Basis Set:
  @DF-RHF Final Energy:  -388.28869920190272
    Total Energy =                       -388.2886992019028867
  Basis Set: CC-PVTZ
  Basis Set:
  Basis Set: CC-PVTZ
  Basis Set:
  @DF-RHF Final Energy:  -388.40334340662497
    Total Energy =                       -388.4033434066240034
  Basis Set: CC-PVTZ
  Basis Set:
  @DF-RHF Final Energy:  -388.42416770192244
    Total Energy =                       -388.4241677019217605
  @DF-RHF Final Energy:  -388.42585205414548
    Total Energy =                       -388.4258520541454800
  @DF-RHF Final Energy:  -388.42604901505302
    Total Energy =                       -388.4260490150531950
  Basis Set: CC-PVTZ
  Basis Set:
  @DF-RHF Final Energy:  -388.42605666348436
    Total Energy =                       -388.4260566634841325
  Basis Set: CC-PVTZ
  Basis Set:
  Basis Set: CC-PVTZ
  Basis Set:
  @DF-RHF Final Energy:  -388.42605747436295
    Total Energy =                       -388.4260574743627785
  Basis Set: CC-PVTZ
  Basis Set:
  Basis Set: CC-PVTZ
  Basis Set:
  @DF-RHF Final Energy:  -388.42606381575695
    Total Energy =                       -388.4260638157569474
  Basis Set: CC-PVTZ
  Basis Set:
  Charge       = 0
  Multiplicity = 1
  Basis Set: CC-PVTZ
  Basis Set:

    Orbital Energies (a.u.)
    -----------------------

    Doubly Occupied:

       1A    -20.545302     2A    -11.265266     3A    -11.217157
       4A    -11.215052     5A    -11.214226     6A    -11.213090
       7A    -11.212655     8A    -11.212045     9A    -11.207678
      10A     -1.363334    11A     -1.096557    12A     -1.061305
      13A     -1.010764    14A     -0.951471    15A     -0.888832
      16A     -0.831728    17A     -0.801645    18A     -0.764377
      19A     -0.696775    20A     -0.656270    21A     -0.637035
      22A     -0.615734    23A     -0.606108    24A     -0.585025
      25A     -0.574894    26A     -0.555366    27A     -0.545732
      28A     -0.528196    29A     -0.513963    30A     -0.497387
      31A     -0.482405    32A     -0.479044    33A     -0.466260
      34A     -0.457411    35A     -0.448901    36A     -0.441043
      37A     -0.428519

  @DF-RHF Final Energy:  -388.42606385379702

   => Energetics <=

    Nuclear Repulsion Energy =            467.1620134260305122
    One-Electron Energy =               -1452.5990556640490468
    Two-Electron Energy =                 597.0109783842220850
    DFT Exchange-Correlation Energy =       0.0000000000000000
    Empirical Dispersion Energy =           0.0000000000000000
    PCM Polarization Energy =               0.0000000000000000
    EFP Energy =                            0.0000000000000000
    Total Energy =                       -388.4260638537964496
    Molecular point group: c1
  Basis Set: CC-PVTZ
  Basis Set:

  -Total Gradient:
     Atom            X                  Y                   Z
    ------   -----------------  -----------------  -----------------
       1       -0.000004995061     0.000003805799     0.000003565965
       2        0.000016635325    -0.000007299489    -0.000010344181
       3       -0.000003419028    -0.000012669647     0.000025738656
       4        0.000164357647    -0.000491426187     0.000689827645
       5       -0.000006398981     0.000002996446     0.000000791380
       6        0.000003287019     0.000006966375    -0.000004085490
       7       -0.000193175686     0.000556638063    -0.000784769755
       8       -0.000005943882    -0.000002863852    -0.000004958775
       9       -0.000002556572    -0.000002576127     0.000001423158
      10       -0.000215863407     0.000628613871    -0.000850830603
      11       -0.000009582846    -0.000003359814    -0.000001240886
      12        0.000002023142     0.000006279479     0.000000865672
      13        0.000003872438    -0.000012542601    -0.000005618868
      14        0.000238267268    -0.000682371760     0.000948012756
      15        0.000002200429    -0.000007822314     0.000007718427
      16        0.000011580646     0.000004416464     0.000004160340
      17        0.000005125896     0.000002518417     0.000002635648
      18        0.000005656652     0.000000667402     0.000001892049
      19       -0.000007342936    -0.000002970011    -0.000011393257
      20        0.000001725023    -0.000002341737    -0.000003287637
      21       -0.000002897088    -0.000001283292    -0.000005263742
      22        0.000000386265     0.000010854382     0.000000774312
      23        0.000002143024    -0.000001849488     0.000001429976
      24        0.000000603811     0.000005235082     0.000003250410
      25        0.000000439484    -0.000000208320     0.000000022124
      26       -0.000000208629     0.000004335413    -0.000006909635
      27       -0.000005919948    -0.000001742552    -0.000003405701

  **** Optimization is complete! (in 11 steps) ****
    Final optimized geometry and variables:
    Molecular point group: c1

    Geometry (in Angstrom), charge = 0, multiplicity = 1:

    H            2.142807231390     3.068071276235    -1.521525475064
    O            2.545662159849     2.404567942759    -2.049653592129
    C            2.485576850911     1.162438838880    -1.400246961436
    C            1.093022321185     0.548237934647    -1.386805646585
    H            3.160718084084     0.513653852092    -1.941740510843
    H            2.865963906398     1.246708341782    -0.384001194018
    C            0.076904221262     1.338310398167    -0.564214982671
    H            0.745952602099     0.458153166279    -2.412200267497
    H            1.184658182835    -0.459834365022    -0.994632676972
    C           -1.352479032186     0.788131401433    -0.607109169728
    H            0.039372601729     2.361019480200    -0.927720588669
    H            0.419371265704     1.394903852140     0.465644391080
    C           -1.543370553151    -0.659329395950    -0.144914398848
    H           -1.979866570093     1.426282706481     0.009351162014
    H           -1.728218386255     0.877500482969    -1.622337463121
    C           -1.163100367475    -0.922698467804     1.310613815365
    H           -2.590435770260    -0.915274085133    -0.281517139812
    H           -0.988249995524    -1.333538578221    -0.789887386827
    C           -1.476453214231    -2.346657120930     1.762616053485
    H           -1.690700860795    -0.220027172156     1.952079398450
    H           -0.104116553187    -0.732688894708     1.459887556655
    C           -1.093335261462    -2.613836375133     3.214347152961
    H           -2.537207921395    -2.540007049167     1.629020853629
    H           -0.956229280199    -3.050103646391     1.118047783926
    H           -1.622587863899    -1.947715071956     3.887706719227
    H           -1.330648344994    -3.631464037250     3.502618187494
    H           -0.030287946102    -2.465110960205     3.372778992882

  Mulliken Charges: (a.u.)
   Center  Symbol    Alpha    Beta     Spin     Total
       1     H     0.39253  0.39253  0.00000  0.21495
       2     O     4.20554  4.20554  0.00000 -0.41108
       3     C     2.97794  2.97794  0.00000  0.04413
       4     C     3.09080  3.09080  0.00000 -0.18161
       5     H     0.44835  0.44835  0.00000  0.10330
       6     H     0.46944  0.46944  0.00000  0.06113
       7     C     3.11970  3.11970  0.00000 -0.23941
       8     H     0.44968  0.44968  0.00000  0.10064
       9     H     0.45527  0.45527  0.00000  0.08947
      10     C     3.10336  3.10336  0.00000 -0.20671
      11     H     0.44676  0.44676  0.00000  0.10648
      12     H     0.44962  0.44962  0.00000  0.10076
      13     C     3.10831  3.10831  0.00000 -0.21662
      14     H     0.44771  0.44771  0.00000  0.10458
      15     H     0.44540  0.44540  0.00000  0.10919
      16     C     3.08762  3.08762  0.00000 -0.17525
      17     H     0.44351  0.44351  0.00000  0.11297
      18     H     0.44922  0.44922  0.00000  0.10155
      19     C     3.08408  3.08408  0.00000 -0.16816
      20     H     0.45359  0.45359  0.00000  0.09283
      21     H     0.45496  0.45496  0.00000  0.09008
      22     C     3.14992  3.14992  0.00000 -0.29983
      23     H     0.45364  0.45364  0.00000  0.09272
      24     H     0.45421  0.45421  0.00000  0.09158
      25     H     0.45514  0.45514  0.00000  0.08972
      26     H     0.44807  0.44807  0.00000  0.10386
      27     H     0.45564  0.45564  0.00000  0.08873

   Total alpha = 37.00000, Total beta = 37.00000, Total charge = -0.00000

*** Psi4 exiting successfully. Buy a developer a beer!
