                              Psi4 1.0.54 Driver

  ==> Input File <==

--------------------------------------------------------------------------
set {
	reference rhf
	basis cc-pvtz
}

set_num_threads( 4 )
memory 2 gb

molecule MOL {
0 1

H	 -3.173111	 0.280216	 -0.984379
O	 -2.376880	 -0.227457	 -1.029113
C	 -1.605397	 0.107680	 0.001145
C	 -0.310616	 -0.658853	 0.000791
O	 -1.935002	 0.918306	 0.796265
C	 0.926581	 0.227233	 0.000178
H	 -0.327628	 -1.313681	 -0.864448
H	 -0.327041	 -1.313334	 0.866298
C	 2.220156	 -0.582071	 -0.000088
H	 0.899945	 0.878221	 -0.866390
H	 0.900542	 0.878581	 0.866486
C	 3.466689	 0.296012	 -0.000457
H	 2.239073	 -1.234095	 -0.869382
H	 2.239505	 -1.233985	 0.869270
H	 3.493549	 0.935857	 -0.875887
H	 4.368821	 -0.304526	 -0.001199
H	 3.494559	 0.935166	 0.875458

	symmetry c1
}
set optking {
	frozen_dihedral = ("
		2 3 4 7
	")
}

ee,wfn = optimize('scf', return_wfn=True)
oeprop( wfn, 'DIPOLE', 'QUADRUPOLE', 'MULLIKEN_CHARGES')
f=open( 'psi4out.xyz', 'w' )
f.write( "17  " )
f.write( str(ee) + "\n" )
f.write( MOL.save_string_xyz() )
f.close()
--------------------------------------------------------------------------

    Molecular point group: c1
  Charge       = 0
  Multiplicity = 1
  Basis Set: CC-PVTZ
  Basis Set:
  @DF-RHF Final Energy:  -345.04671405692864
    Total Energy =                       -345.0467140569286357
    Molecular point group: c1
  Basis Set: CC-PVTZ
  Basis Set:
  Basis Set: CC-PVTZ
  Basis Set:
  @DF-RHF Final Energy:  -345.04728970039008
    Total Energy =                       -345.0472897003900812
  Basis Set: CC-PVTZ
  Basis Set:
  Basis Set: CC-PVTZ
  Basis Set:
  @DF-RHF Final Energy:  -345.04734156858041
    Total Energy =                       -345.0473415685801228
  Basis Set: CC-PVTZ
  Basis Set:
  Basis Set: CC-PVTZ
  Basis Set:
  @DF-RHF Final Energy:  -345.04734623401879
    Total Energy =                       -345.0473462340184483
  Basis Set: CC-PVTZ
  Basis Set:
  Basis Set: CC-PVTZ
  Basis Set:
  @DF-RHF Final Energy:  -345.04734412037476
    Total Energy =                       -345.0473441203747598
  Basis Set: CC-PVTZ
  Basis Set:
  Charge       = 0
  Multiplicity = 1
  Basis Set: CC-PVTZ
  Basis Set:

    Orbital Energies (a.u.)
    -----------------------

    Doubly Occupied:

       1A    -20.606360     2A    -20.537808     3A    -11.373344
       4A    -11.237958     5A    -11.227207     6A    -11.222860
       7A    -11.212491     8A     -1.478138     9A     -1.368185
      10A     -1.094395    11A     -1.019864    12A     -0.913514
      13A     -0.826031    14A     -0.799336    15A     -0.705911
      16A     -0.687217    17A     -0.659275    18A     -0.637961
      19A     -0.592844    20A     -0.584176    21A     -0.581113
      22A     -0.538871    23A     -0.514455    24A     -0.490949
      25A     -0.482714    26A     -0.478296    27A     -0.471548
      28A     -0.442124

  @DF-RHF Final Energy:  -345.04734666001491

   => Energetics <=

    Nuclear Repulsion Energy =            304.9066233917262707
    One-Electron Energy =               -1074.3380461098572596
    Two-Electron Energy =                 424.3840760581161362
    DFT Exchange-Correlation Energy =       0.0000000000000000
    Empirical Dispersion Energy =           0.0000000000000000
    PCM Polarization Energy =               0.0000000000000000
    EFP Energy =                            0.0000000000000000
    Total Energy =                       -345.0473466600148527
    Molecular point group: c1
  Basis Set: CC-PVTZ
  Basis Set:

  -Total Gradient:
     Atom            X                  Y                   Z
    ------   -----------------  -----------------  -----------------
       1        0.000014255851    -0.000001257115     0.000008032935
       2        0.000202116933     0.000184622865    -0.000200300074
       3       -0.000274110864    -0.000350665363     0.000235806023
       4        0.000226133588     0.000398062248    -0.000340219542
       5       -0.000003093040     0.000062320604     0.000114209356
       6        0.000017792918     0.000033377297    -0.000016946090
       7       -0.000160732349    -0.000336854896     0.000190066280
       8        0.000012703190     0.000016667266    -0.000027900116
       9       -0.000023076255    -0.000015190616     0.000018031055
      10       -0.000017764198    -0.000014858339     0.000008228324
      11        0.000017891769     0.000014893201     0.000006942920
      12       -0.000010501374     0.000011690830     0.000003361607
      13       -0.000010602734     0.000003157295    -0.000002696828
      14        0.000003630762    -0.000009611858     0.000003564201
      15       -0.000000180037     0.000004192079    -0.000003003488
      16        0.000002186634    -0.000005295501    -0.000001684758
      17        0.000003349205     0.000004750001     0.000004508194

  **** Optimization is complete! (in 6 steps) ****
    Final optimized geometry and variables:
    Molecular point group: c1

    Geometry (in Angstrom), charge = 0, multiplicity = 1:

    H           -3.201937109053     0.329348223423    -0.884120066554
    O           -2.422788666611    -0.199297342687    -0.974243079949
    C           -1.610369434319     0.078201084546     0.039076401511
    C           -0.330710598641    -0.716345625241     0.007044032750
    O           -1.889302560779     0.874080207823     0.869237053750
    C            0.901950069572     0.189355127530     0.017865502773
    H           -0.330502811152    -1.368471671064    -0.854836527130
    H           -0.333125459530    -1.339328960475     0.894947106859
    C            2.204811304867    -0.603006168746     0.056689022575
    H            0.889906954327     0.821890005239    -0.865379970965
    H            0.844278162360     0.849926214844     0.874376489558
    C            3.439947999954     0.291059815967     0.061629532150
    H            2.247288654075    -1.272371269355    -0.798047020983
    H            2.213101253886    -1.234803720402     0.940558968693
    H            3.477739125355     0.911082576673    -0.827687377888
    H            4.348816207353    -0.298296323985     0.092697202103
    H            3.442012459530     0.949681616204     0.923344681445

  Mulliken Charges: (a.u.)
   Center  Symbol    Alpha    Beta     Spin     Total
       1     H     0.38060  0.38060  0.00000  0.23880
       2     O     4.15802  4.15802  0.00000 -0.31603
       3     C     2.80893  2.80893  0.00000  0.38214
       4     C     3.09097  3.09097  0.00000 -0.18193
       5     O     4.19878  4.19878  0.00000 -0.39757
       6     C     3.09423  3.09423  0.00000 -0.18845
       7     H     0.43811  0.43811  0.00000  0.12379
       8     H     0.44277  0.44277  0.00000  0.11446
       9     C     3.08707  3.08707  0.00000 -0.17413
      10     H     0.45068  0.45068  0.00000  0.09864
      11     H     0.43901  0.43901  0.00000  0.12197
      12     C     3.14918  3.14918  0.00000 -0.29836
      13     H     0.45385  0.45385  0.00000  0.09230
      14     H     0.45298  0.45298  0.00000  0.09403
      15     H     0.45428  0.45428  0.00000  0.09144
      16     H     0.44762  0.44762  0.00000  0.10477
      17     H     0.45294  0.45294  0.00000  0.09412

   Total alpha = 28.00000, Total beta = 28.00000, Total charge =  0.00000

*** Psi4 exiting successfully. Buy a developer a beer!
