                              Psi4 1.0.54 Driver

  ==> Input File <==

--------------------------------------------------------------------------
set {
	reference rhf
	basis cc-pvtz
}

set_num_threads( 4 )
memory 2 gb

molecule MOL {
0 1

H	 -3.260447	 0.495616	 -0.426815
C	 -2.850581	 1.501265	 -0.367125
O	 -1.490671	 1.513365	 -0.646478
H	 -3.344352	 2.121922	 -1.100517
H	 -3.058845	 1.899116	 0.624453
C	 -0.718530	 0.758693	 0.228682
C	 0.718529	 0.758687	 -0.228709
H	 -0.769011	 1.177548	 1.233660
H	 -1.079285	 -0.266597	 0.274156
O	 1.401606	 -0.295166	 0.366636
H	 0.748705	 0.673477	 -1.312803
H	 1.176496	 1.708671	 0.046552
C	 2.714315	 -0.441627	 -0.061017
H	 2.765292	 -0.641548	 -1.128869
H	 3.305661	 0.447341	 0.150952
H	 3.143725	 -1.278506	 0.470147

	symmetry c1
}
set optking {
	frozen_dihedral = ("
		3 6 7 11
	")
}

ee,wfn = optimize('scf', return_wfn=True)
oeprop( wfn, 'DIPOLE', 'QUADRUPOLE', 'MULLIKEN_CHARGES')
f=open( 'psi4out.xyz', 'w' )
f.write( "16  " )
f.write( str(ee) + "\n" )
f.write( MOL.save_string_xyz() )
f.close()
--------------------------------------------------------------------------

    Molecular point group: c1
  Charge       = 0
  Multiplicity = 1
  Basis Set: CC-PVTZ
  Basis Set:
  @DF-RHF Final Energy:  -307.09765453888895
    Total Energy =                       -307.0976545388887189
    Molecular point group: c1
  Basis Set: CC-PVTZ
  Basis Set:
  Basis Set: CC-PVTZ
  Basis Set:
  @DF-RHF Final Energy:  -307.09827707512892
    Total Energy =                       -307.0982770751289763
  Basis Set: CC-PVTZ
  Basis Set:
  Basis Set: CC-PVTZ
  Basis Set:
  @DF-RHF Final Energy:  -307.09836524437253
    Total Energy =                       -307.0983652443723599
  Basis Set: CC-PVTZ
  Basis Set:
  Basis Set: CC-PVTZ
  Basis Set:
  @DF-RHF Final Energy:  -307.09837232015246
    Total Energy =                       -307.0983723201523503
  Basis Set: CC-PVTZ
  Basis Set:
  Charge       = 0
  Multiplicity = 1
  Basis Set: CC-PVTZ
  Basis Set:

    Orbital Energies (a.u.)
    -----------------------

    Doubly Occupied:

       1A    -20.553034     2A    -20.552523     3A    -11.265977
       4A    -11.265311     5A    -11.264834     6A    -11.264623
       7A     -1.392523     8A     -1.381262     9A     -1.031160
      10A     -0.942328    11A     -0.883920    12A     -0.832077
      13A     -0.692990    14A     -0.677158    15A     -0.661578
      16A     -0.649737    17A     -0.623201    18A     -0.601404
      19A     -0.573937    20A     -0.518432    21A     -0.509635
      22A     -0.485459    23A     -0.468234    24A     -0.421322
      25A     -0.419917

  @DF-RHF Final Energy:  -307.09837286990341

   => Energetics <=

    Nuclear Repulsion Energy =            255.0114584373069704
    One-Electron Energy =                -924.3545166601738856
    Two-Electron Energy =                 362.2446853529635291
    DFT Exchange-Correlation Energy =       0.0000000000000000
    Empirical Dispersion Energy =           0.0000000000000000
    PCM Polarization Energy =               0.0000000000000000
    EFP Energy =                            0.0000000000000000
    Total Energy =                       -307.0983728699034145
    Molecular point group: c1
  Basis Set: CC-PVTZ
  Basis Set:

  -Total Gradient:
     Atom            X                  Y                   Z
    ------   -----------------  -----------------  -----------------
       1        0.000023536021     0.000031292816    -0.000001287062
       2       -0.000094268815     0.000008090428     0.000030777786
       3       -0.000390756882    -0.002167992190    -0.001416334087
       4       -0.000001551203    -0.000005602666     0.000008280128
       5        0.000005407915    -0.000018098478    -0.000029207670
       6        0.000569442462     0.003555624725     0.001781887143
       7        0.000000459220    -0.004746912468    -0.000129258636
       8       -0.000013356557     0.000007467028     0.000004428399
       9       -0.000004168318     0.000001253258    -0.000009892253
      10       -0.000042053253     0.000028024868     0.000002162634
      11       -0.000120370769     0.003336625775    -0.000263471755
      12        0.000005326963    -0.000018900395     0.000021381558
      13        0.000082972224     0.000004044838    -0.000012060007
      14       -0.000012529839     0.000005426552     0.000029856273
      15       -0.000013511910    -0.000026090167    -0.000011238943
      16        0.000005422741     0.000005746078    -0.000006023507

  **** Optimization is complete! (in 5 steps) ****
    Final optimized geometry and variables:
    Molecular point group: c1

    Geometry (in Angstrom), charge = 0, multiplicity = 1:

    H           -3.276193885148    -0.032407145943    -0.144581306953
    C           -2.799110075972     0.943949783298    -0.190044062639
    O           -1.460300106609     0.837836292453    -0.545946621776
    H           -3.295453951080     1.539477597039    -0.942292612184
    H           -2.917382726935     1.429659792903     0.775823331902
    C           -0.690866638460     0.079294060175     0.331125805021
    C            0.742607859296     0.099471036165    -0.157578832490
    H           -0.754457865395     0.471335848551     1.343684643026
    H           -1.039015208792    -0.950763441697     0.352573489025
    O            1.429270644028    -0.948633546921     0.443996863720
    H            0.748038875493     0.020484572710    -1.241932572303
    H            1.206942727840     1.052246470149     0.091497613591
    C            2.779608005780    -1.010310502439     0.122119873688
    H            2.927199648582    -1.137840892661    -0.947772966518
    H            3.305102930553    -0.111769338780     0.437191015518
    H            3.203813499945    -1.860370292870     0.636193619184

  Mulliken Charges: (a.u.)
   Center  Symbol    Alpha    Beta     Spin     Total
       1     H     0.47080  0.47080  0.00000  0.05839
       2     C     3.03073  3.03073  0.00000 -0.06145
       3     O     4.17529  4.17529  0.00000 -0.35059
       4     H     0.44685  0.44685  0.00000  0.10630
       5     H     0.47084  0.47084  0.00000  0.05833
       6     C     2.96372  2.96372  0.00000  0.07255
       7     C     2.96362  2.96362  0.00000  0.07277
       8     H     0.47175  0.47175  0.00000  0.05650
       9     H     0.47016  0.47016  0.00000  0.05968
      10     O     4.17477  4.17477  0.00000 -0.34954
      11     H     0.46935  0.46935  0.00000  0.06130
      12     H     0.47322  0.47322  0.00000  0.05357
      13     C     3.03093  3.03093  0.00000 -0.06187
      14     H     0.47046  0.47046  0.00000  0.05908
      15     H     0.47075  0.47075  0.00000  0.05850
      16     H     0.44676  0.44676  0.00000  0.10648

   Total alpha = 25.00000, Total beta = 25.00000, Total charge = -0.00000

*** Psi4 exiting successfully. Buy a developer a beer!
