  ==> Input File <==

--------------------------------------------------------------------------
set {
	reference rhf
	basis cc-pvtz
}

set_num_threads( 4 )
memory 2 gb

molecule MOL {
0 1

H	 -0.366580	 2.045936	 -0.305741
C	 0.351829	 1.335402	 0.083179
N	 -0.000018	 0.000080	 -0.334836
H	 1.327156	 1.599860	 -0.305475
H	 0.380566	 1.445403	 1.171445
C	 1.161359	 -0.844466	 -0.477406
C	 -0.994793	 -0.591115	 0.527227
H	 0.868412	 -1.814639	 -0.858245
H	 1.854457	 -0.404066	 -1.182990
H	 1.692361	 -0.998252	 0.466764
H	 -1.878058	 0.034341	 0.556037
H	 -1.285281	 -1.561681	 0.145463
H	 -0.641302	 -0.723758	 1.554144

	symmetry c1
}
set optking {
	frozen_dihedral = ("
		6 3 2 1
	")
}

ee = optimize('scf')
oeprop('DIPOLE', 'QUADRUPOLE', 'MULLIKEN_CHARGES')
f=open( 'psi4out.xyz', 'w' )
f.write( "13  " )
f.write( str(ee) + "\n" )
f.write( MOL.save_string_xyz() )
f.close()
--------------------------------------------------------------------------

    Molecular point group: c1
  Charge       = 0
  Multiplicity = 1
  Basis Set: CC-PVTZ
  Basis Set:
  @DF-RHF Final Energy:  -173.33127816693749
    Total Energy =                       -173.3312781669374658
    Molecular point group: c1
  Basis Set: CC-PVTZ
  Basis Set:
  Basis Set: CC-PVTZ
  Basis Set:
  @DF-RHF Final Energy:  -173.33170534198686
    Total Energy =                       -173.3317053419868614
  Basis Set: CC-PVTZ
  Basis Set:
  Basis Set: CC-PVTZ
  Basis Set:
  @DF-RHF Final Energy:  -173.33176123650662
    Total Energy =                       -173.3317612365066225
  Basis Set: CC-PVTZ
  Basis Set:
  Basis Set: CC-PVTZ
  Basis Set:
  @DF-RHF Final Energy:  -173.33176407232378
    Total Energy =                       -173.3317640723237218
  Basis Set: CC-PVTZ
  Basis Set:
  Charge       = 0
  Multiplicity = 1
  Basis Set: CC-PVTZ
  Basis Set:

    Orbital Energies (a.u.)
    -----------------------

    Doubly Occupied:

       1A    -15.536666     2A    -11.234375     3A    -11.234110
       4A    -11.233921     5A     -1.224591     6A     -0.953074
       7A     -0.952492     8A     -0.805743     9A     -0.641437
      10A     -0.631598    11A     -0.629695    12A     -0.548518
      13A     -0.543027    14A     -0.515469    15A     -0.503394
      16A     -0.502314    17A     -0.343700

  @DF-RHF Final Energy:  -173.33176419376039

   => Energetics <=

    Nuclear Repulsion Energy =            139.1751292128474518
    One-Electron Energy =                -508.9455391143839051
    Two-Electron Energy =                 196.4386457077761463
    DFT Exchange-Correlation Energy =       0.0000000000000000
    Empirical Dispersion Energy =           0.0000000000000000
    PCM Polarization Energy =               0.0000000000000000
    EFP Energy =                            0.0000000000000000
    Total Energy =                       -173.3317641937603355
    Molecular point group: c1
  Basis Set: CC-PVTZ
  Basis Set:

  -Total Gradient:
     Atom            X                  Y                   Z
    ------   -----------------  -----------------  -----------------
       1        0.002443673778     0.000515594649    -0.003803145010
       2       -0.003013992145    -0.000333687361     0.003503519439
       3        0.000311193008    -0.001138843044     0.003600253977
       4        0.000015436598    -0.000001594168    -0.000012568990
       5       -0.000000215340    -0.000004397852    -0.000007691129
       6        0.000184878287     0.000961593506    -0.003304500387
       7        0.000054945115     0.000022757583     0.000020717895
       8       -0.000002969162     0.000004335063     0.000005916894
       9        0.000009270457    -0.000005700329    -0.000003147154
      10        0.000002271538    -0.000007374180    -0.000006571459
      11       -0.000005896029    -0.000003081620     0.000006429568
      12        0.000005667506    -0.000002562816     0.000000981964
      13       -0.000004263610    -0.000007039431    -0.000000195609

  **** Optimization is complete! (in 5 steps) ****
    Final optimized geometry and variables:
    Molecular point group: c1

    Geometry (in Angstrom), charge = 0, multiplicity = 1:

    H           -0.539826214562     2.067206196587    -0.265157385733
    C            0.202019924149     1.373629713758     0.114369956504
    N           -0.121073490766     0.021910382055    -0.279838504707
    H            1.147873207509     1.665213499832    -0.324129955702
    H            0.287873896577     1.497824477879     1.195735342100
    C            1.032823899895    -0.825241965746    -0.446253280262
    C           -1.146357115660    -0.564894224860     0.542980574734
    H            0.724185858212    -1.793860039005    -0.819640137577
    H            1.709751836173    -0.390810729604    -1.170225151933
    H            1.589569518496    -0.988469725480     0.482339618962
    H           -2.017246853612     0.079110810183     0.561550310677
    H           -1.449323004187    -1.521983714197     0.136956983899
    H           -0.824216833209    -0.722121506980     1.577245775298

  Mulliken Charges: (a.u.)
   Center  Symbol    Alpha    Beta     Spin     Total
       1     H     0.45132  0.45132  0.00000  0.09735
       2     C     3.08776  3.08776  0.00000 -0.17553
       3     N     3.59682  3.59682  0.00000 -0.19364
       4     H     0.45602  0.45602  0.00000  0.08796
       5     H     0.47107  0.47107  0.00000  0.05786
       6     C     3.08792  3.08792  0.00000 -0.17584
       7     C     3.08935  3.08935  0.00000 -0.17871
       8     H     0.45335  0.45335  0.00000  0.09331
       9     H     0.45248  0.45248  0.00000  0.09503
      10     H     0.47450  0.47450  0.00000  0.05101
      11     H     0.45282  0.45282  0.00000  0.09435
      12     H     0.45323  0.45323  0.00000  0.09354
      13     H     0.47335  0.47335  0.00000  0.05330

   Total alpha = 17.00000, Total beta = 17.00000, Total charge = -0.00000
