                              Psi4 1.0.54 Driver

  ==> Input File <==

--------------------------------------------------------------------------
set {
	reference rhf
	basis cc-pvtz
}

set_num_threads( 4 )
memory 2 gb

molecule MOL {
0 1

H	 -4.379535	 0.230672	 -1.129477
O	 -3.458596	 0.315260	 -0.960865
C	 -3.176635	 -0.080824	 0.355601
C	 -1.763371	 0.265266	 0.799691
H	 -3.321825	 -1.153438	 0.379502
H	 -3.895468	 0.357385	 1.043382
C	 -0.673390	 -0.426948	 -0.013392
H	 -1.631049	 1.344913	 0.747560
H	 -1.664587	 -0.001624	 1.849167
C	 0.737842	 -0.043159	 0.423759
H	 -0.806103	 -0.190518	 -1.063345
H	 -0.797221	 -1.503753	 0.074146
C	 1.824000	 -0.743224	 -0.390623
H	 0.850588	 1.033777	 0.343840
H	 0.868587	 -0.286314	 1.476203
C	 3.255957	 -0.453067	 0.062319
H	 1.718250	 -0.470599	 -1.438164
H	 1.658105	 -1.815850	 -0.339904
C	 3.707029	 0.992337	 -0.133857
H	 3.928201	 -1.104096	 -0.488158
H	 3.362667	 -0.724561	 1.109374
H	 3.605811	 1.294044	 -1.171549
H	 4.748333	 1.111029	 0.143343
H	 3.129882	 1.683078	 0.468956

	symmetry c1
}
set optking {
	frozen_dihedral = ("
		1 2 3 5
	")
}

ee,wfn = optimize('scf', return_wfn=True)
oeprop( wfn, 'DIPOLE', 'QUADRUPOLE', 'MULLIKEN_CHARGES')
f=open( 'psi4out.xyz', 'w' )
f.write( "24  " )
f.write( str(ee) + "\n" )
f.write( MOL.save_string_xyz() )
f.close()
--------------------------------------------------------------------------

    Molecular point group: c1
  Charge       = 0
  Multiplicity = 1
  Basis Set: CC-PVTZ
  Basis Set:
  @DF-RHF Final Energy:  -349.37896572064028
    Total Energy =                       -349.3789657206402808
    Molecular point group: c1
  Basis Set: CC-PVTZ
  Basis Set:
  Basis Set: CC-PVTZ
  Basis Set:
  @DF-RHF Final Energy:  -349.38034669570811
    Total Energy =                       -349.3803466957081127
  Basis Set: CC-PVTZ
  Basis Set:
  Basis Set: CC-PVTZ
  Basis Set:
  @DF-RHF Final Energy:  -349.38061018911725
    Total Energy =                       -349.3806101891168510
  Basis Set: CC-PVTZ
  Basis Set:
  Basis Set: CC-PVTZ
  Basis Set:
  @DF-RHF Final Energy:  -349.38061748538968
    Total Energy =                       -349.3806174853896209
  Basis Set: CC-PVTZ
  Basis Set:
  Basis Set: CC-PVTZ
  Basis Set:
  @DF-RHF Final Energy:  -349.38062109323079
    Total Energy =                       -349.3806210932310137
  Basis Set: CC-PVTZ
  Basis Set:
  Charge       = 0
  Multiplicity = 1
  Basis Set: CC-PVTZ
  Basis Set:

    Orbital Energies (a.u.)
    -----------------------

    Doubly Occupied:

       1A    -20.545979     2A    -11.265724     3A    -11.210039
       4A    -11.209480     5A    -11.206595     6A    -11.205830
       7A    -11.204338     8A    -11.202555     9A     -1.363854
      10A     -1.086437    11A     -1.047157    12A     -0.985090
      13A     -0.912889    14A     -0.843886    15A     -0.789190
      16A     -0.773389    17A     -0.707335    18A     -0.646919
      19A     -0.632630    20A     -0.610862    21A     -0.587340
      22A     -0.578259    23A     -0.557082    24A     -0.531450
      25A     -0.523586    26A     -0.504078    27A     -0.490294
      28A     -0.481723    29A     -0.466691    30A     -0.455379
      31A     -0.449779    32A     -0.437825    33A     -0.428465

  @DF-RHF Final Energy:  -349.38062118625714

   => Energetics <=

    Nuclear Repulsion Energy =            385.1806711773498364
    One-Electron Energy =               -1237.2383246686126768
    Two-Electron Energy =                 502.6770323050056959
    DFT Exchange-Correlation Energy =       0.0000000000000000
    Empirical Dispersion Energy =           0.0000000000000000
    PCM Polarization Energy =               0.0000000000000000
    EFP Energy =                            0.0000000000000000
    Total Energy =                       -349.3806211862571445
    Molecular point group: c1
  Basis Set: CC-PVTZ
  Basis Set:

  -Total Gradient:
     Atom            X                  Y                   Z
    ------   -----------------  -----------------  -----------------
       1       -0.000097171846     0.000829761081     0.000312686065
       2        0.000327158149    -0.001064032329    -0.000423863818
       3       -0.000951976896     0.000337608606     0.000319181956
       4       -0.000017344986    -0.000006998777     0.000035161951
       5        0.000732080795    -0.000093077568    -0.000202361022
       6        0.000019496950    -0.000009403256    -0.000008021295
       7       -0.000010719120    -0.000006106733    -0.000018029046
       8       -0.000010240553    -0.000001177186    -0.000002565578
       9       -0.000006192558     0.000007519254    -0.000003855373
      10       -0.000005107481    -0.000000075529    -0.000001072103
      11        0.000005277709    -0.000001708249    -0.000002186637
      12        0.000000672156     0.000003490553    -0.000003402744
      13        0.000006772980     0.000013664886    -0.000009555177
      14       -0.000013855917    -0.000018290226    -0.000006281997
      15        0.000001517001     0.000006885260     0.000007323513
      16       -0.000007639526     0.000002871376     0.000023199068
      17       -0.000002029679     0.000009492418     0.000000862633
      18        0.000003727588    -0.000003549244    -0.000009797350
      19        0.000009798408    -0.000001241208    -0.000005921739
      20       -0.000000243483    -0.000005118376     0.000005078541
      21       -0.000001331226     0.000005846477     0.000006210784
      22       -0.000003507552     0.000004984600    -0.000004140709
      23        0.000001650593    -0.000003131333    -0.000006218232
      24        0.000019208495    -0.000008214495    -0.000002431690

  **** Optimization is complete! (in 6 steps) ****
    Final optimized geometry and variables:
    Molecular point group: c1

    Geometry (in Angstrom), charge = 0, multiplicity = 1:

    H           -4.341965056464     0.357769613954    -0.946157087112
    O           -3.421140173361     0.410856511447    -0.770492483596
    C           -3.152312868023    -0.024294187217     0.537522205040
    C           -1.715358600019     0.311723478265     0.887739908926
    H           -3.307306039548    -1.098567496417     0.616948173429
    H           -3.821019079379     0.461055680579     1.243267936506
    C           -0.686323484252    -0.409630438123     0.021654142044
    H           -1.583035476999     1.385762195466     0.799466915936
    H           -1.556191673867     0.058386883903     1.932856573858
    C            0.752855893957    -0.050031302337     0.381323400483
    H           -0.870548791340    -0.173915750577    -1.020159622758
    H           -0.824891481927    -1.483772289248     0.123851841738
    C            1.781680831765    -0.775085311965    -0.484087870566
    H            0.880068917071     1.023903667495     0.287436255916
    H            0.934755947626    -0.289095890524     1.427259772725
    C            3.240734829172    -0.509862354512    -0.108699467840
    H            1.626190713245    -0.506143168847    -1.526337658275
    H            1.598897762410    -1.844251788770    -0.417854515746
    C            3.708602384123     0.925062645016    -0.339613803212
    H            3.870933512712    -1.177690574464    -0.688222307825
    H            3.396841965908    -0.776111959180     0.933557055845
    H            3.556895999261     1.222252418886    -1.372416298539
    H            4.765598163206     1.024873012261    -0.120085800921
    H            3.178355987011     1.630786022848     0.288267887639

  Mulliken Charges: (a.u.)
   Center  Symbol    Alpha    Beta     Spin     Total
       1     H     0.39553  0.39553  0.00000  0.20894
       2     O     4.19884  4.19884  0.00000 -0.39769
       3     C     2.97365  2.97365  0.00000  0.05269
       4     C     3.09026  3.09026  0.00000 -0.18052
       5     H     0.47381  0.47381  0.00000  0.05238
       6     H     0.46572  0.46572  0.00000  0.06857
       7     C     3.08950  3.08950  0.00000 -0.17900
       8     H     0.45326  0.45326  0.00000  0.09348
       9     H     0.45492  0.45492  0.00000  0.09016
      10     C     3.09176  3.09176  0.00000 -0.18352
      11     H     0.44357  0.44357  0.00000  0.11287
      12     H     0.45839  0.45839  0.00000  0.08322
      13     C     3.09419  3.09419  0.00000 -0.18839
      14     H     0.45226  0.45226  0.00000  0.09548
      15     H     0.45698  0.45698  0.00000  0.08604
      16     C     3.09019  3.09019  0.00000 -0.18038
      17     H     0.45357  0.45357  0.00000  0.09286
      18     H     0.45071  0.45071  0.00000  0.09857
      19     C     3.15229  3.15229  0.00000 -0.30457
      20     H     0.44917  0.44917  0.00000  0.10167
      21     H     0.45564  0.45564  0.00000  0.08871
      22     H     0.45476  0.45476  0.00000  0.09048
      23     H     0.44722  0.44722  0.00000  0.10555
      24     H     0.45381  0.45381  0.00000  0.09238

   Total alpha = 33.00000, Total beta = 33.00000, Total charge = -0.00000

*** Psi4 exiting successfully. Buy a developer a beer!
