  ==> Input File <==

--------------------------------------------------------------------------
set {
	reference rhf
	basis cc-pvtz
}

set_num_threads( 4 )
memory 2 gb

molecule MOL {
0 1

H	 0.836009	 -0.882622	 1.550771
O	 1.223400	 -0.589882	 0.745362
C	 0.672535	 0.636476	 0.376282
C	 -0.793473	 0.591216	 0.050087
H	 1.221934	 0.969248	 -0.496487
H	 0.837507	 1.384243	 1.149799
C	 -1.534243	 -0.493009	 -0.013340
H	 -1.239940	 1.552481	 -0.144552
H	 -1.101195	 -1.466332	 -0.144046
H	 -2.604242	 -0.437780	 0.050785

	symmetry c1
}
set optking {
	frozen_dihedral = ("
		3 4 7 9
	")
}

ee = optimize('scf')
oeprop('DIPOLE', 'QUADRUPOLE', 'MULLIKEN_CHARGES')
f=open( 'psi4out.xyz', 'w' )
f.write( "10  " )
f.write( str(ee) + "\n" )
f.write( MOL.save_string_xyz() )
f.close()
--------------------------------------------------------------------------

    Molecular point group: c1
  Charge       = 0
  Multiplicity = 1
  Basis Set: CC-PVTZ
  Basis Set:
  @DF-RHF Final Energy:  -191.99033228374356
    Total Energy =                       -191.9903322837435269
    Molecular point group: c1
  Basis Set: CC-PVTZ
  Basis Set:
  Basis Set: CC-PVTZ
  Basis Set:
  @DF-RHF Final Energy:  -191.99566486007751
    Total Energy =                       -191.9956648600775111
  Basis Set: CC-PVTZ
  Basis Set:
  Basis Set: CC-PVTZ
  Basis Set:
  @DF-RHF Final Energy:  -191.99577708133111
    Total Energy =                       -191.9957770813309708
  Basis Set: CC-PVTZ
  Basis Set:
  Basis Set: CC-PVTZ
  Basis Set:
  @DF-RHF Final Energy:  -191.99585060595942
    Total Energy =                       -191.9958506059594470
  Basis Set: CC-PVTZ
  Basis Set:
  Basis Set: CC-PVTZ
  Basis Set:
  @DF-RHF Final Energy:  -191.99585220354732
    Total Energy =                       -191.9958522035472583
  Basis Set: CC-PVTZ
  Basis Set:
  Charge       = 0
  Multiplicity = 1
  Basis Set: CC-PVTZ
  Basis Set:

    Orbital Energies (a.u.)
    -----------------------

    Doubly Occupied:

       1A    -20.554241     2A    -11.278830     3A    -11.232850
       4A    -11.217706     5A     -1.375063     6A     -1.063197
       7A     -0.933398     8A     -0.772616     9A     -0.692114
      10A     -0.665330    11A     -0.622984    12A     -0.573250
      13A     -0.539424    14A     -0.499568    15A     -0.452008
      16A     -0.369090

  @DF-RHF Final Energy:  -191.99585231457789

   => Energetics <=

    Nuclear Repulsion Energy =            119.5389506404191877
    One-Electron Energy =                -497.3862667274404430
    Two-Electron Energy =                 185.8514637724433101
    DFT Exchange-Correlation Energy =       0.0000000000000000
    Empirical Dispersion Energy =           0.0000000000000000
    PCM Polarization Energy =               0.0000000000000000
    EFP Energy =                            0.0000000000000000
    Total Energy =                       -191.9958523145779168
    Molecular point group: c1
  Basis Set: CC-PVTZ
  Basis Set:

  -Total Gradient:
     Atom            X                  Y                   Z
    ------   -----------------  -----------------  -----------------
       1       -0.000006031466     0.000010321812    -0.000004733567
       2        0.000024967227     0.000002091177    -0.000011096550
       3       -0.001886767275     0.001705884516     0.007481235853
       4        0.002965665148    -0.002921676194    -0.016969858147
       5        0.000006677474    -0.000015325878    -0.000001846583
       6       -0.000000459763    -0.000000746645    -0.000007004243
       7       -0.000612381594     0.001437896860     0.019935100418
       8       -0.000021136016    -0.000000306598     0.000017928434
       9       -0.000461309473    -0.000217707348    -0.010456522983
      10       -0.000009224260    -0.000000431706     0.000016797369

  **** Optimization is complete! (in 6 steps) ****
    Final optimized geometry and variables:
    Molecular point group: c1

    Geometry (in Angstrom), charge = 0, multiplicity = 1:

    H            0.858633288678    -0.946384348858     1.136835935396
    O            1.282675606432    -0.592948704511     0.375286917593
    C            0.710343674185     0.634111561079     0.046806425772
    C           -0.749073419202     0.570514953912    -0.305131009886
    H            1.280992099799     1.024125108902    -0.787966677142
    H            0.823762601241     1.348288274104     0.860251541679
    C           -1.510425810316    -0.501595514928    -0.250026729021
    H           -1.209506064292     1.534182775605    -0.452082373266
    H           -1.095987278077    -1.492558415891    -0.247724662684
    H           -2.569357534440    -0.427996838078    -0.412537488552

  Mulliken Charges: (a.u.)
   Center  Symbol    Alpha    Beta     Spin     Total
       1     H     0.39034  0.39034  0.00000  0.21932
       2     O     4.20006  4.20006  0.00000 -0.40012
       3     C     2.95007  2.95007  0.00000  0.09985
       4     C     3.07828  3.07828  0.00000 -0.15655
       5     H     0.45374  0.45374  0.00000  0.09251
       6     H     0.46883  0.46883  0.00000  0.06233
       7     C     3.18282  3.18282  0.00000 -0.36565
       8     H     0.42404  0.42404  0.00000  0.15192
       9     H     0.42249  0.42249  0.00000  0.15501
      10     H     0.42931  0.42931  0.00000  0.14138

   Total alpha = 16.00000, Total beta = 16.00000, Total charge = -0.00000
