  ==> Input File <==

--------------------------------------------------------------------------
set {
	reference rhf
	basis cc-pvtz
}

set_num_threads( 4 )
memory 2 gb

molecule MOL {
0 1

H	 -2.698799	 -0.000846	 0.036018
C	 -1.694291	 -0.000483	 0.434279
O	 -0.828718	 -0.000608	 -0.655022
H	 -1.576855	 0.881100	 1.056504
H	 -1.576401	 -0.881658	 1.057001
C	 0.499633	 0.421055	 -0.466442
C	 0.596695	 1.887944	 -0.062604
C	 1.275493	 -0.491573	 0.476638
H	 0.933475	 0.321116	 -1.453565
H	 0.004697	 2.502519	 -0.729608
H	 1.627502	 2.217736	 -0.121092
H	 0.257207	 2.056944	 0.952664
H	 1.154312	 -1.527172	 0.183559
H	 2.330979	 -0.248223	 0.437852
H	 0.953940	 -0.385787	 1.506179

	symmetry c1
}
set optking {
	frozen_dihedral = ("
		6 3 2 1
	")
}

ee = optimize('scf')
oeprop('DIPOLE', 'QUADRUPOLE', 'MULLIKEN_CHARGES')
f=open( 'psi4out.xyz', 'w' )
f.write( "15  " )
f.write( str(ee) + "\n" )
f.write( MOL.save_string_xyz() )
f.close()
--------------------------------------------------------------------------

    Molecular point group: c1
  Charge       = 0
  Multiplicity = 1
  Basis Set: CC-PVTZ
  Basis Set:
  @DF-RHF Final Energy:  -232.22548663812253
    Total Energy =                       -232.2254866381226748
    Molecular point group: c1
  Basis Set: CC-PVTZ
  Basis Set:
  Basis Set: CC-PVTZ
  Basis Set:
  @DF-RHF Final Energy:  -232.22539091963853
    Total Energy =                       -232.2253909196385848
  Basis Set: CC-PVTZ
  Basis Set:
  Basis Set: CC-PVTZ
  Basis Set:
  @DF-RHF Final Energy:  -232.22573395825142
    Total Energy =                       -232.2257339582515669
  Basis Set: CC-PVTZ
  Basis Set:
  Basis Set: CC-PVTZ
  Basis Set:
  @DF-RHF Final Energy:  -232.22574393815984
    Total Energy =                       -232.2257439381597237
  Basis Set: CC-PVTZ
  Basis Set:
  Basis Set: CC-PVTZ
  Basis Set:
  @DF-RHF Final Energy:  -232.22574576021606
    Total Energy =                       -232.2257457602160571
  Basis Set: CC-PVTZ
  Basis Set:
  Charge       = 0
  Multiplicity = 1
  Basis Set: CC-PVTZ
  Basis Set:

    Orbital Energies (a.u.)
    -----------------------

    Doubly Occupied:

       1A    -20.541284     2A    -11.272766     3A    -11.258798
       4A    -11.209460     5A    -11.207935     6A     -1.373077
       7A     -1.051366     8A     -0.940706     9A     -0.931232
      10A     -0.781587    11A     -0.676223    12A     -0.642367
      13A     -0.634537    14A     -0.572587    15A     -0.564630
      16A     -0.552825    17A     -0.535158    18A     -0.499492
      19A     -0.497777    20A     -0.444588    21A     -0.408537

  @DF-RHF Final Energy:  -232.22574597725173

   => Energetics <=

    Nuclear Repulsion Energy =            199.0574853695649153
    One-Electron Energy =                -709.3726004301279318
    Two-Electron Energy =                 278.0893690833111691
    DFT Exchange-Correlation Energy =       0.0000000000000000
    Empirical Dispersion Energy =           0.0000000000000000
    PCM Polarization Energy =               0.0000000000000000
    EFP Energy =                            0.0000000000000000
    Total Energy =                       -232.2257459772518473
    Molecular point group: c1
  Basis Set: CC-PVTZ
  Basis Set:

  -Total Gradient:
     Atom            X                  Y                   Z
    ------   -----------------  -----------------  -----------------
       1        0.000019919439     0.001369633498     0.000148315016
       2       -0.000192536154    -0.001168489509    -0.000242103908
       3        0.000443137627    -0.001329734378     0.000212006987
       4        0.000006186759     0.000007461512     0.000010557994
       5       -0.000015323945     0.000016939934    -0.000008144201
       6       -0.000323393268     0.001088386981    -0.000110497574
       7        0.000013255656    -0.000001643062    -0.000010901831
       8        0.000036914354     0.000003888819     0.000002946767
       9        0.000018151044     0.000016765754     0.000002467863
      10       -0.000005318975     0.000004246043     0.000003222420
      11       -0.000000903853     0.000003497337    -0.000001248303
      12       -0.000001721407    -0.000007236933    -0.000008540014
      13        0.000000452353     0.000001721701    -0.000001385617
      14       -0.000007913182    -0.000006308414     0.000003210230
      15        0.000009093554     0.000000870716     0.000000094174

  **** Optimization is complete! (in 6 steps) ****
    Final optimized geometry and variables:
    Molecular point group: c1

    Geometry (in Angstrom), charge = 0, multiplicity = 1:

    H           -2.644622642431    -0.364707013737     0.131128980390
    C           -1.626109749784    -0.417161717517     0.489526323364
    O           -0.791840099165    -0.317755161584    -0.620816552639
    H           -1.482549454512     0.394580029677     1.194794388013
    H           -1.489375691283    -1.356912393206     1.015686657733
    C            0.547691990967     0.065400754802    -0.429387865649
    C            0.677584696487     1.536528865721    -0.050104281692
    C            1.290033318958    -0.852721264436     0.534456638630
    H            0.986892937083    -0.060026394550    -1.411284302804
    H            0.116328810406     2.151554117869    -0.742402906636
    H            1.718117836443     1.837933351360    -0.091947170943
    H            0.320693923385     1.736779814695     0.953285372962
    H            1.166104320638    -1.888412276935     0.242184422022
    H            2.348710594941    -0.621279838611     0.524114369306
    H            0.939221242112    -0.740126833434     1.554090545898

  Mulliken Charges: (a.u.)
   Center  Symbol    Alpha    Beta     Spin     Total
       1     H     0.44294  0.44294  0.00000  0.11413
       2     C     3.03997  3.03997  0.00000 -0.07994
       3     O     4.18423  4.18423  0.00000 -0.36846
       4     H     0.47094  0.47094  0.00000  0.05812
       5     H     0.46555  0.46555  0.00000  0.06890
       6     C     2.93612  2.93612  0.00000  0.12775
       7     C     3.15370  3.15370  0.00000 -0.30740
       8     C     3.16035  3.16035  0.00000 -0.32070
       9     H     0.44686  0.44686  0.00000  0.10628
      10     H     0.44466  0.44466  0.00000  0.11068
      11     H     0.45131  0.45131  0.00000  0.09737
      12     H     0.45615  0.45615  0.00000  0.08770
      13     H     0.44401  0.44401  0.00000  0.11198
      14     H     0.44822  0.44822  0.00000  0.10355
      15     H     0.45498  0.45498  0.00000  0.09003

   Total alpha = 21.00000, Total beta = 21.00000, Total charge = -0.00000
