  ==> Input File <==

--------------------------------------------------------------------------
set {
	reference rhf
	basis 6-31G*
}

set_num_threads( 4 )
memory 2 gb

molecule MOL {
0 1

H	 2.845955	 -0.323208	 0.022310
C	 1.900140	 0.071967	 -0.330070
C	 0.778463	 -0.508087	 0.517968
H	 1.782469	 -0.206877	 -1.370777
H	 1.922247	 1.149867	 -0.254252
N	 -0.540928	 0.005139	 0.058438
H	 0.716718	 -1.581298	 0.454712
H	 0.859711	 -0.198647	 1.550086
O	 -0.572626	 1.092164	 -0.428024
O	 -1.481718	 -0.713682	 0.209138

	symmetry c1
}
set optking {
	frozen_dihedral = ("
		9 6 3 2
	")
}

ee = optimize('scf')
oeprop('DIPOLE', 'QUADRUPOLE', 'MULLIKEN_CHARGES')
f=open( 'psi4out.xyz', 'w' )
f.write( "10  " )
f.write( str(ee) + "\n" )
f.write( MOL.save_string_xyz() )
f.close()
--------------------------------------------------------------------------

    Molecular point group: c1
  Charge       = 0
  Multiplicity = 1
  Basis Set: 6-31G*
  Basis Set:
  @DF-RHF Final Energy:  -282.69996252549629
    Total Energy =                       -282.6999625254960620
    Molecular point group: c1
  Basis Set: 6-31G*
  Basis Set:
  Basis Set: 6-31G*
  Basis Set:
  @DF-RHF Final Energy:  -282.69578394898548
    Total Energy =                       -282.6957839489853086
  Basis Set: 6-31G*
  Basis Set:
  Basis Set: 6-31G*
  Basis Set:
  @DF-RHF Final Energy:  -282.69962736563605
    Total Energy =                       -282.6996273656360472
  Basis Set: 6-31G*
  Basis Set:
  Basis Set: 6-31G*
  Basis Set:
  @DF-RHF Final Energy:  -282.70040488169934
    Total Energy =                       -282.7004048816993418
  Basis Set: 6-31G*
  Basis Set:
  Basis Set: 6-31G*
  Basis Set:
  @DF-RHF Final Energy:  -282.70041307133579
    Total Energy =                       -282.7004130713359586
  Basis Set: 6-31G*
  Basis Set:
  Charge       = 0
  Multiplicity = 1
  Basis Set: 6-31G*
  Basis Set:

    Orbital Energies (a.u.)
    -----------------------

    Doubly Occupied:

       1A    -20.603556     2A    -20.601901     3A    -15.849835
       4A    -11.304901     5A    -11.247425     6A     -1.633215
       7A     -1.418695     8A     -1.125906     9A     -0.967427
      10A     -0.834384    11A     -0.761440    12A     -0.745508
      13A     -0.726896    14A     -0.643539    15A     -0.592905
      16A     -0.564292    17A     -0.540059    18A     -0.486697
      19A     -0.478387    20A     -0.450749

  @DF-RHF Final Energy:  -282.70041506823122

   => Energetics <=

    Nuclear Repulsion Energy =            186.0829243238444235
    One-Electron Energy =                -754.4112427454811041
    Two-Electron Energy =                 285.6279033534054861
    DFT Exchange-Correlation Energy =       0.0000000000000000
    Empirical Dispersion Energy =           0.0000000000000000
    PCM Polarization Energy =               0.0000000000000000
    EFP Energy =                            0.0000000000000000
    Total Energy =                       -282.7004150682312229
    Molecular point group: c1
  Basis Set: 6-31G*
  Basis Set:

  -Total Gradient:
     Atom            X                  Y                   Z
    ------   -----------------  -----------------  -----------------
       1        0.000019181743     0.000001138803    -0.000002425746
       2        0.000042708363     0.000048611822     0.000033137428
       3       -0.000001959105    -0.000038378947    -0.000121506075
       4        0.000003613581     0.000008668346     0.000009066812
       5       -0.000007529646    -0.000026465035    -0.000003234862
       6       -0.000091039177     0.000140567642     0.000125575922
       7       -0.000027352379     0.000003417396    -0.000007195369
       8       -0.000022647724    -0.000002917489     0.000007682066
       9        0.000084089900    -0.000029847898    -0.000080988581
      10        0.000000934444    -0.000104794640     0.000039888406

  **** Optimization is complete! (in 6 steps) ****
    Final optimized geometry and variables:
    Molecular point group: c1

    Geometry (in Angstrom), charge = 0, multiplicity = 1:

    H            2.859546435171    -0.337715487121     0.033508382358
    C            1.927567141001     0.078459644506    -0.332721137482
    C            0.790021291811    -0.488661447073     0.494300129316
    H            1.822810177487    -0.188481496535    -1.377222451176
    H            1.971884281526     1.154889462925    -0.254328997393
    N           -0.545155168513     0.004977895109     0.049776966658
    H            0.722965358308    -1.563200354865     0.447232772633
    H            0.854577536293    -0.191151305506     1.533000968663
    O           -0.607197162361     1.091246775508    -0.436579923853
    O           -1.473052190468    -0.716928847597     0.247697403935

  Mulliken Charges: (a.u.)
   Center  Symbol    Alpha    Beta     Spin     Total
       1     H     0.40885  0.40885  0.00000  0.18229
       2     C     3.25245  3.25245  0.00000 -0.50490
       3     C     3.09546  3.09546  0.00000 -0.19091
       4     H     0.40360  0.40360  0.00000  0.19280
       5     H     0.39453  0.39453  0.00000  0.21094
       6     N     3.21927  3.21927  0.00000  0.56146
       7     H     0.38496  0.38496  0.00000  0.23008
       8     H     0.38454  0.38454  0.00000  0.23092
       9     O     4.22810  4.22810  0.00000 -0.45620
      10     O     4.22824  4.22824  0.00000 -0.45647

   Total alpha = 20.00000, Total beta = 20.00000, Total charge =  0.00000
