  ==> Input File <==

--------------------------------------------------------------------------
set {
	reference rhf
	basis 6-31G*
}

set_num_threads( 4 )
memory 2 gb

molecule MOL {
0 1

H	 0.542689	 -2.919892	 2.108812
O	 0.913557	 -2.353043	 1.439562
C	 0.110885	 -1.298210	 1.300062
C	 0.624473	 -0.343591	 0.253101
O	 -0.878684	 -1.168271	 1.944176
C	 -0.265902	 0.883932	 0.072916
H	 1.636593	 -0.075497	 0.537902
H	 0.715293	 -0.902443	 -0.674901
C	 -1.728698	 0.646073	 0.462102
H	 -0.209144	 1.219470	 -0.958188
H	 0.135059	 1.692851	 0.673903
C	 -2.482460	 -0.343073	 -0.431425
H	 -2.245265	 1.602650	 0.432430
H	 -1.779332	 0.308348	 1.496285
C	 -3.960546	 -0.461025	 -0.060175
H	 -2.395034	 -0.026811	 -1.468912
H	 -2.024850	 -1.327147	 -0.371646
H	 -4.472726	 -1.168004	 -0.705284
H	 -4.465146	 0.496508	 -0.151489
H	 -4.081218	 -0.800940	 0.964585

	symmetry c1
}
set optking {
	frozen_dihedral = ("
		7 4 6 10
	")
}

ee = optimize('scf')
oeprop('DIPOLE', 'QUADRUPOLE', 'MULLIKEN_CHARGES')
f=open( 'psi4out.xyz', 'w' )
f.write( "20  " )
f.write( str(ee) + "\n" )
f.write( MOL.save_string_xyz() )
f.close()
--------------------------------------------------------------------------

    Molecular point group: c1
  Charge       = 0
  Multiplicity = 1
  Basis Set: 6-31G*
  Basis Set:
  @DF-RHF Final Energy:  -383.92179848752704
    Total Energy =                       -383.9217984875270986
    Molecular point group: c1
  Basis Set: 6-31G*
  Basis Set:
  Basis Set: 6-31G*
  Basis Set:
  @DF-RHF Final Energy:  -383.93527227412767
    Total Energy =                       -383.9352722741277830
  Basis Set: 6-31G*
  Basis Set:
  Basis Set: 6-31G*
  Basis Set:
  @DF-RHF Final Energy:  -383.93883914890029
    Total Energy =                       -383.9388391489001151
  Basis Set: 6-31G*
  Basis Set:
  Basis Set: 6-31G*
  Basis Set:
  @DF-RHF Final Energy:  -383.93739440920228
    Total Energy =                       -383.9373944092023976
  Basis Set: 6-31G*
  Basis Set:
  @DF-RHF Final Energy:  -383.94065062411181
    Total Energy =                       -383.9406506241123225
  @DF-RHF Final Energy:  -383.94108151662374
    Total Energy =                       -383.9410815166237398
  @DF-RHF Final Energy:  -383.94156839561504
    Total Energy =                       -383.9415683956150360
  @DF-RHF Final Energy:  -383.94218444314430
    Total Energy =                       -383.9421844431439013
  @DF-RHF Final Energy:  -383.94266289899178
    Total Energy =                       -383.9426628989918981
  @DF-RHF Final Energy:  -383.94270972436357
    Total Energy =                       -383.9427097243639082
  @DF-RHF Final Energy:  -383.94284614646494
    Total Energy =                       -383.9428461464651718
  @DF-RHF Final Energy:  -383.94287137151150
    Total Energy =                       -383.9428713715112735
  @DF-RHF Final Energy:  -383.94288678517273
    Total Energy =                       -383.9428867851727318
  @DF-RHF Final Energy:  -383.94289853409543
    Total Energy =                       -383.9428985340953204
  @DF-RHF Final Energy:  -383.94290129453140
    Total Energy =                       -383.9429012945313389
  @DF-RHF Final Energy:  -383.94290531574541
    Total Energy =                       -383.9429053157455201
  @DF-RHF Final Energy:  -383.94290805237483
    Total Energy =                       -383.9429080523748326
  @DF-RHF Final Energy:  -383.94291121919360
    Total Energy =                       -383.9429112191940021
  Basis Set: 6-31G*
  Basis Set:
  @DF-RHF Final Energy:  -383.94291223233233
    Total Energy =                       -383.9429122323323327
  Basis Set: 6-31G*
  Basis Set:
  Basis Set: 6-31G*
  Basis Set:
  @DF-RHF Final Energy:  -383.94287244540538
    Total Energy =                       -383.9428724454054418
  Basis Set: 6-31G*
  Basis Set:
  Basis Set: 6-31G*
  Basis Set:
  @DF-RHF Final Energy:  -383.94291271733380
    Total Energy =                       -383.9429127173336838
  Basis Set: 6-31G*
  Basis Set:
  Charge       = 0
  Multiplicity = 1
  Basis Set: 6-31G*
  Basis Set:

    Orbital Energies (a.u.)
    -----------------------

    Doubly Occupied:

       1A    -20.615512     2A    -20.549095     3A    -11.381605
       4A    -11.240586     5A    -11.229326     6A    -11.217645
       7A    -11.214266     8A    -11.209444     9A     -1.475738
      10A     -1.365223    11A     -1.093564    12A     -1.037153
      13A     -0.958940    14A     -0.871929    15A     -0.815779
      16A     -0.776531    17A     -0.702701    18A     -0.681641
      19A     -0.660624    20A     -0.633774    21A     -0.607975
      22A     -0.589779    23A     -0.575513    24A     -0.556355
      25A     -0.535842    26A     -0.514414    27A     -0.499493
      28A     -0.480512    29A     -0.467386    30A     -0.464120
      31A     -0.454717    32A     -0.435916

  @DF-RHF Final Energy:  -383.94291210887314

   => Energetics <=

    Nuclear Repulsion Energy =            392.9526061115347488
    One-Electron Energy =               -1301.9648444151694093
    Two-Electron Energy =                 525.0693261947616293
    DFT Exchange-Correlation Energy =       0.0000000000000000
    Empirical Dispersion Energy =           0.0000000000000000
    PCM Polarization Energy =               0.0000000000000000
    EFP Energy =                            0.0000000000000000
    Total Energy =                       -383.9429121088729744
    Molecular point group: c1
  Basis Set: 6-31G*
  Basis Set:

  -Total Gradient:
     Atom            X                  Y                   Z
    ------   -----------------  -----------------  -----------------
       1       -0.000076549481     0.000023961100    -0.000024289672
       2        0.000100844187    -0.000018174333    -0.000013865091
       3        0.000184718404     0.000077967916     0.000172440517
       4        0.001117963829    -0.000338042233    -0.008353392477
       5       -0.000012649877    -0.000080968752    -0.000175011253
       6        0.005747232643     0.004886170737     0.003049405816
       7       -0.001591141886    -0.000441332418     0.006775419752
       8       -0.000221545653    -0.000065435184    -0.000032739639
       9       -0.000103173726     0.000127796309    -0.000089524593
      10       -0.005162197267    -0.004140902489    -0.001429464273
      11       -0.000021113219    -0.000041268986     0.000023102640
      12        0.000058809301    -0.000049322837     0.000060877754
      13        0.000003178581     0.000050259670     0.000080043786
      14       -0.000022244490    -0.000027033948    -0.000041555325
      15        0.000034238345     0.000023868601    -0.000002721448
      16       -0.000020505188     0.000022589914     0.000009186742
      17       -0.000013430980    -0.000001109360    -0.000000588938
      18       -0.000001747026     0.000002690008    -0.000004732465
      19       -0.000001203339     0.000001243505     0.000002563325
      20        0.000000516835    -0.000012957214    -0.000005155160

  **** Optimization is complete! (in 22 steps) ****
    Final optimized geometry and variables:
    Molecular point group: c1

    Geometry (in Angstrom), charge = 0, multiplicity = 1:

    H            1.054486854706    -2.466501172577     1.176454681092
    O            1.235925882997    -1.950728604336     0.396333254266
    C            1.190979959689    -0.663755922877     0.734605737617
    C            1.525738068742     0.254766873669    -0.416464580497
    O            0.952107217900    -0.313487995495     1.845642479972
    C            0.596323792215     1.482145663593    -0.553397044954
    H            2.525412833600     0.600011318468    -0.165784942707
    H            1.577119949368    -0.321529015763    -1.328873966179
    C           -0.887665557948     1.252953754795    -0.230778327546
    H            0.639752407431     1.794114785435    -1.593246067234
    H            0.971674745673     2.292216476757     0.059417446059
    C           -1.569206660715     0.214476195187    -1.126818272845
    H           -1.398481065743     2.205944027145    -0.350842967282
    H           -1.004214111326     0.974242524460     0.810384273921
    C           -3.059787663509     0.065329754612    -0.823497200397
    H           -1.440226015206     0.498059168478    -2.169815466399
    H           -1.087285490382    -0.753792219861    -1.014055695931
    H           -3.521059162599    -0.673836469041    -1.471082286431
    H           -3.584623674950     1.005478036898    -0.967363990978
    H           -3.220127655416    -0.247846093715     0.204088900327

  Mulliken Charges: (a.u.)
   Center  Symbol    Alpha    Beta     Spin     Total
       1     H     0.26831  0.26831  0.00000  0.46338
       2     O     4.34918  4.34918  0.00000 -0.69835
       3     C     2.62499  2.62499  0.00000  0.75001
       4     C     3.21448  3.21448  0.00000 -0.42896
       5     O     4.28127  4.28127  0.00000 -0.56254
       6     C     3.15059  3.15059  0.00000 -0.30118
       7     H     0.39573  0.39573  0.00000  0.20854
       8     H     0.39668  0.39668  0.00000  0.20663
       9     C     3.16777  3.16777  0.00000 -0.33553
      10     H     0.41714  0.41714  0.00000  0.16573
      11     H     0.40914  0.40914  0.00000  0.18172
      12     C     3.15759  3.15759  0.00000 -0.31519
      13     H     0.42026  0.42026  0.00000  0.15948
      14     H     0.40365  0.40365  0.00000  0.19270
      15     C     3.23891  3.23891  0.00000 -0.47783
      16     H     0.42394  0.42394  0.00000  0.15211
      17     H     0.42028  0.42028  0.00000  0.15945
      18     H     0.41918  0.41918  0.00000  0.16164
      19     H     0.42135  0.42135  0.00000  0.15731
      20     H     0.41956  0.41956  0.00000  0.16087

   Total alpha = 32.00000, Total beta = 32.00000, Total charge =  0.00000
