  ==> Input File <==

--------------------------------------------------------------------------
set {
	reference rhf
	basis 6-31G*
}

set_num_threads( 1 )
memory 2 gb

molecule MOL {
0 1

H	 3.893188	 0.355400	 -0.101367
N	 3.092854	 -0.246221	 -0.068770
C	 1.865559	 0.531981	 0.018834
H	 3.199514	 -0.826043	 0.741946
C	 0.645745	 -0.382037	 -0.029944
H	 1.841966	 1.207024	 -0.831236
H	 1.815756	 1.155410	 0.915079
C	 -0.679275	 0.379305	 0.025956
H	 0.698998	 -0.976915	 -0.937203
H	 0.693479	 -1.083846	 0.802235
C	 -0.621101	 1.741896	 -0.667108
H	 -0.971041	 0.519803	 1.065659
H	 -1.464156	 -0.220975	 -0.431725
C	 -1.946094	 2.500893	 -0.605263
H	 0.161506	 2.343871	 -0.210637
H	 -0.332306	 1.604447	 -1.706993
H	 -2.245318	 2.684101	 0.422948
H	 -1.872836	 3.462270	 -1.104254
H	 -2.742752	 1.939186	 -1.085068

	symmetry c1
}
set optking {
	frozen_dihedral = ("
		6 3 5 9,
		12 8 11 15,
		1 2 3 6
	")
}

ee = energy('scf')
oeprop('DIPOLE', 'QUADRUPOLE', 'MULLIKEN_CHARGES')
f=open( 'psi4out.xyz', 'w' )
f.write( "19  " )
f.write( str(ee) + "\n" )
f.write( MOL.save_string_xyz() )
f.close()
--------------------------------------------------------------------------

    Molecular point group: c1

    Geometry (in Angstrom), charge = 0, multiplicity = 1:

       Center              X                  Y                   Z               Mass
    ------------   -----------------  -----------------  -----------------  -----------------
           H          3.466295228706    -0.403174959761     0.111401549167     1.007825032070
           N          2.665961228706    -1.004795959761     0.143998549167    14.003074004780
           C          1.438666228706    -0.226593959761     0.231602549167    12.000000000000
           H          2.772621228706    -1.584617959761     0.954714549167     1.007825032070
           C          0.218852228706    -1.140611959761     0.182824549167    12.000000000000
           H          1.415073228706     0.448449040239    -0.618467450833     1.007825032070
           H          1.388863228706     0.396835040239     1.127847549167     1.007825032070
           C         -1.106167771294    -0.379269959761     0.238724549167    12.000000000000
           H          0.272105228706    -1.735489959761    -0.724434450833     1.007825032070
           H          0.266586228706    -1.842420959761     1.015003549167     1.007825032070
           C         -1.047993771294     0.983321040239    -0.454339450833    12.000000000000
           H         -1.397933771294    -0.238771959761     1.278427549167     1.007825032070
           H         -1.891048771294    -0.979549959761    -0.218956450833     1.007825032070
           C         -2.372986771294     1.742318040239    -0.392494450833    12.000000000000
           H         -0.265386771294     1.585296040239     0.002131549167     1.007825032070
           H         -0.759198771294     0.845872040239    -1.494224450833     1.007825032070
           H         -2.672210771294     1.925526040239     0.635716549167     1.007825032070
           H         -2.299728771294     2.703695040239    -0.891485450833     1.007825032070
           H         -3.169644771294     1.180611040239    -0.872299450833     1.007825032070

  Charge       = 0
  Multiplicity = 1
  Basis Set: 6-31G*
  Basis Set:

    Orbital Energies (a.u.)
    -----------------------

    Doubly Occupied:

       1A    -15.531914     2A    -11.238567     3A    -11.213694
       4A    -11.212190     5A    -11.208874     6A    -11.207506
       7A     -1.176364     8A     -1.075000     9A     -0.995252
      10A     -0.897553    11A     -0.838277    12A     -0.766622
      13A     -0.664628    14A     -0.642044    15A     -0.610988
      16A     -0.595604    17A     -0.571999    18A     -0.551925
      19A     -0.520334    20A     -0.504250    21A     -0.489852
      22A     -0.459375    23A     -0.455239    24A     -0.446196
      25A     -0.380366

  @DF-RHF Final Energy:  -251.34447691820162

   => Energetics <=

    Nuclear Repulsion Energy =            251.7212476196569924
    One-Electron Energy =                -837.6223036977557967
    Two-Electron Energy =                 334.5565791598971828
    DFT Exchange-Correlation Energy =       0.0000000000000000
    Empirical Dispersion Energy =           0.0000000000000000
    PCM Polarization Energy =               0.0000000000000000
    EFP Energy =                            0.0000000000000000
    Total Energy =                       -251.3444769182016216

  Mulliken Charges: (a.u.)
   Center  Symbol    Alpha    Beta     Spin     Total
       1     H     0.33273  0.33273  0.00000  0.33454
       2     N     3.92209  3.92209  0.00000 -0.84418
       3     C     3.06627  3.06627  0.00000 -0.13254
       4     H     0.33574  0.33574  0.00000  0.32852
       5     C     3.15253  3.15253  0.00000 -0.30505
       6     H     0.41634  0.41634  0.00000  0.16732
       7     H     0.43460  0.43460  0.00000  0.13080
       8     C     3.15450  3.15450  0.00000 -0.30900
       9     H     0.41267  0.41267  0.00000  0.17466
      10     H     0.42529  0.42529  0.00000  0.14942
      11     C     3.16065  3.16065  0.00000 -0.32129
      12     H     0.42407  0.42407  0.00000  0.15185
      13     H     0.42008  0.42008  0.00000  0.15983
      14     C     3.23757  3.23757  0.00000 -0.47514
      15     H     0.41970  0.41970  0.00000  0.16060
      16     H     0.42118  0.42118  0.00000  0.15764
      17     H     0.42229  0.42229  0.00000  0.15542
      18     H     0.41984  0.41984  0.00000  0.16032
      19     H     0.42185  0.42185  0.00000  0.15630

   Total alpha = 25.00000, Total beta = 25.00000, Total charge = -0.00000
