  ==> Input File <==

--------------------------------------------------------------------------
set {
	reference rhf
	basis cc-pvtz
}

set_num_threads( 4 )
memory 2 gb

molecule MOL {
0 1

H	 -1.088256	 -1.364742	 0.152233
O	 -1.432053	 -0.565244	 -0.200812
C	 -0.727158	 0.534527	 0.310686
C	 0.680222	 0.664433	 -0.252229
H	 -1.306802	 1.408001	 0.044211
H	 -0.690821	 0.490158	 1.397609
C	 1.712046	 1.140638	 0.765914
H	 0.981179	 -0.296058	 -0.657338
H	 0.645094	 1.362363	 -1.084280
H	 1.818707	 0.436663	 1.583940
H	 2.687958	 1.248355	 0.308153
H	 1.436523	 2.103975	 1.184275

	symmetry c1
}
set optking {
	frozen_dihedral = ("
		8 4 3 2
	")
}

ee = optimize('scf')
oeprop('DIPOLE', 'QUADRUPOLE', 'MULLIKEN_CHARGES')
f=open( 'psi4out.xyz', 'w' )
f.write( "12  " )
f.write( str(ee) + "\n" )
f.write( MOL.save_string_xyz() )
f.close()
--------------------------------------------------------------------------

    Molecular point group: c1
  Charge       = 0
  Multiplicity = 1
  Basis Set: CC-PVTZ
  Basis Set:
  @DF-RHF Final Energy:  -193.18586378880630
    Total Energy =                       -193.1858637888063868
    Molecular point group: c1
  Basis Set: CC-PVTZ
  Basis Set:
  Basis Set: CC-PVTZ
  Basis Set:
  @DF-RHF Final Energy:  -193.18633121466399
    Total Energy =                       -193.1863312146639942
  Basis Set: CC-PVTZ
  Basis Set:
  Basis Set: CC-PVTZ
  Basis Set:
  @DF-RHF Final Energy:  -193.18638993583420
    Total Energy =                       -193.1863899358341143
  Basis Set: CC-PVTZ
  Basis Set:
  Basis Set: CC-PVTZ
  Basis Set:
  @DF-RHF Final Energy:  -193.18639541228188
    Total Energy =                       -193.1863954122819109
  Basis Set: CC-PVTZ
  Basis Set:
  Charge       = 0
  Multiplicity = 1
  Basis Set: CC-PVTZ
  Basis Set:

    Orbital Energies (a.u.)
    -----------------------

    Doubly Occupied:

       1A    -20.545511     2A    -11.266098     3A    -11.217773
       4A    -11.214881     5A     -1.363835     6A     -1.052290
       7A     -0.920142     8A     -0.820074     9A     -0.694433
      10A     -0.637751    11A     -0.598175    12A     -0.576800
      13A     -0.562394    14A     -0.508617    15A     -0.491620
      16A     -0.465167    17A     -0.431610

  @DF-RHF Final Energy:  -193.18639570827062

   => Energetics <=

    Nuclear Repulsion Energy =            131.0342633762550406
    One-Electron Energy =                -521.7069812740812722
    Two-Electron Energy =                 197.4863221895555512
    DFT Exchange-Correlation Energy =       0.0000000000000000
    Empirical Dispersion Energy =           0.0000000000000000
    PCM Polarization Energy =               0.0000000000000000
    EFP Energy =                            0.0000000000000000
    Total Energy =                       -193.1863957082707088
    Molecular point group: c1
  Basis Set: CC-PVTZ
  Basis Set:

  -Total Gradient:
     Atom            X                  Y                   Z
    ------   -----------------  -----------------  -----------------
       1       -0.000007944657    -0.000017398599    -0.000002949656
       2        0.001254820006    -0.002117754962     0.002712858573
       3       -0.002095492735     0.003156336177    -0.004606486154
       4        0.002612436205    -0.002203040032     0.005992773937
       5        0.000013136121     0.000004243653     0.000000246452
       6       -0.000009124402    -0.000007136733     0.000008187922
       7       -0.000010321689    -0.000029192382    -0.000028141567
       8       -0.001739302415     0.001185245396    -0.004068894613
       9       -0.000003737457     0.000010456748    -0.000016043751
      10        0.000000978968     0.000008352970    -0.000004372598
      11       -0.000007477286    -0.000005805683     0.000017123139
      12       -0.000007970660     0.000015693448    -0.000004301685

  **** Optimization is complete! (in 5 steps) ****
    Final optimized geometry and variables:
    Molecular point group: c1

    Geometry (in Angstrom), charge = 0, multiplicity = 1:

    H           -1.057776442852    -1.762157152742    -0.101428935479
    O           -1.478249956996    -0.958862877842    -0.348079697920
    C           -0.753726151648     0.129708064780     0.158152544822
    C            0.664509106101     0.238335643891    -0.415767748800
    H           -1.331674216873     1.011918133018    -0.078736540762
    H           -0.704600640876     0.063303815378     1.243151167465
    C            1.692286338947     0.735065189194     0.593239561396
    H            0.948946976637    -0.727587253950    -0.821273562949
    H            0.651928261743     0.903596127870    -1.273466089787
    H            1.782619528186     0.052651694449     1.431806012576
    H            2.670534821929     0.835440891937     0.138653642401
    H            1.413449824572     1.706154778706     0.989349981887

  Mulliken Charges: (a.u.)
   Center  Symbol    Alpha    Beta     Spin     Total
       1     H     0.39454  0.39454  0.00000  0.21092
       2     O     4.20266  4.20266  0.00000 -0.40531
       3     C     2.96801  2.96801  0.00000  0.06398
       4     C     3.09058  3.09058  0.00000 -0.18117
       5     H     0.45372  0.45372  0.00000  0.09257
       6     H     0.47315  0.47315  0.00000  0.05371
       7     C     3.15144  3.15144  0.00000 -0.30288
       8     H     0.45533  0.45533  0.00000  0.08934
       9     H     0.45292  0.45292  0.00000  0.09415
      10     H     0.45632  0.45632  0.00000  0.08735
      11     H     0.44768  0.44768  0.00000  0.10464
      12     H     0.45365  0.45365  0.00000  0.09271

   Total alpha = 17.00000, Total beta = 17.00000, Total charge = -0.00000
