  ==> Input File <==

--------------------------------------------------------------------------
set {
	reference rhf
	basis 6-31G*
}

set_num_threads( 4 )
memory 2 gb

molecule MOL {
0 1

H	 2.833487	 -0.367563	 -0.337186
O	 1.994368	 -0.817417	 -0.354401
C	 1.050492	 0.053836	 0.000068
C	 -0.318135	 -0.576402	 0.000164
O	 1.302099	 1.181770	 0.274757
C	 -1.454360	 0.441875	 -0.000474
H	 -0.374042	 -1.230163	 -0.866135
H	 -0.374274	 -1.229227	 0.867154
C	 -2.826123	 -0.230780	 0.000056
H	 -1.357605	 1.085198	 -0.868380
H	 -1.357504	 1.086451	 0.866496
H	 -2.959731	 -0.858053	 -0.876869
H	 -3.619374	 0.509403	 -0.000080
H	 -2.959371	 -0.857318	 0.877556

	symmetry c1
}
set optking {
	frozen_dihedral = ("
		2 3 4 7
	")
}

ee = optimize('scf')
oeprop('DIPOLE', 'QUADRUPOLE', 'MULLIKEN_CHARGES')
f=open( 'psi4out.xyz', 'w' )
f.write( "14  " )
f.write( str(ee) + "\n" )
f.write( MOL.save_string_xyz() )
f.close()
--------------------------------------------------------------------------

    Molecular point group: c1
  Charge       = 0
  Multiplicity = 1
  Basis Set: 6-31G*
  Basis Set:
  @DF-RHF Final Energy:  -305.88055674321174
    Total Energy =                       -305.8805567432116845
    Molecular point group: c1
  Basis Set: 6-31G*
  Basis Set:
  Basis Set: 6-31G*
  Basis Set:
  @DF-RHF Final Energy:  -305.88057749200289
    Total Energy =                       -305.8805774920029990
  Basis Set: 6-31G*
  Basis Set:
  Basis Set: 6-31G*
  Basis Set:
  @DF-RHF Final Energy:  -305.88045278332027
    Total Energy =                       -305.8804527833204361
  Basis Set: 6-31G*
  Basis Set:
  Basis Set: 6-31G*
  Basis Set:
  @DF-RHF Final Energy:  -305.88063879309863
    Total Energy =                       -305.8806387930984556
  Basis Set: 6-31G*
  Basis Set:
  Charge       = 0
  Multiplicity = 1
  Basis Set: 6-31G*
  Basis Set:

    Orbital Energies (a.u.)
    -----------------------

    Doubly Occupied:

       1A    -20.613582     2A    -20.551724     3A    -11.381805
       4A    -11.241235     5A    -11.226270     6A    -11.217353
       7A     -1.475346     8A     -1.366155     9A     -1.083284
      10A     -0.979708    11A     -0.857285    12A     -0.792321
      13A     -0.700552    14A     -0.688868    15A     -0.665433
      16A     -0.616690    17A     -0.593975    18A     -0.573008
      19A     -0.545731    20A     -0.505918    21A     -0.491925
      22A     -0.482605    23A     -0.478544    24A     -0.444227

  @DF-RHF Final Energy:  -305.88063956616963

   => Energetics <=

    Nuclear Repulsion Energy =            239.9421995033511621
    One-Electron Energy =                -892.4985872987920175
    Two-Electron Energy =                 346.6757482292711643
    DFT Exchange-Correlation Energy =       0.0000000000000000
    Empirical Dispersion Energy =           0.0000000000000000
    PCM Polarization Energy =               0.0000000000000000
    EFP Energy =                            0.0000000000000000
    Total Energy =                       -305.8806395661696911
    Molecular point group: c1
  Basis Set: 6-31G*
  Basis Set:

  -Total Gradient:
     Atom            X                  Y                   Z
    ------   -----------------  -----------------  -----------------
       1       -0.000003971707     0.000002219848     0.000008369101
       2       -0.000061372590     0.000141378856    -0.000665072492
       3        0.000139918482    -0.000296852573     0.000973155322
       4       -0.000372119052     0.000821392149    -0.000774237936
       5       -0.000005193920    -0.000036020701    -0.000012650755
       6        0.000007436549    -0.000005850993     0.000042210845
       7        0.000280148653    -0.000610850616     0.000453057242
       8        0.000005224666    -0.000004148124     0.000013603846
       9        0.000000014440    -0.000002992050    -0.000023899869
      10        0.000002569149     0.000001324148    -0.000010059487
      11        0.000004359443    -0.000010990199    -0.000001912560
      12       -0.000007542711    -0.000003382326    -0.000000083379
      13        0.000002794310     0.000000912698    -0.000003281633
      14        0.000007734285     0.000003859886     0.000000801754

  **** Optimization is complete! (in 5 steps) ****
    Final optimized geometry and variables:
    Molecular point group: c1

    Geometry (in Angstrom), charge = 0, multiplicity = 1:

    H            2.842355735003    -0.370607136003    -0.274729557419
    O            2.002803241906    -0.817039047101    -0.327471377269
    C            1.051166510107     0.051007091117     0.012370245785
    C           -0.317301483029    -0.579944525962    -0.004172372486
    O            1.296430646548     1.177229872122     0.300296712435
    C           -1.453308503235     0.439178790804     0.011768143850
    H           -0.376968101093    -1.238344819568    -0.864443208416
    H           -0.370484285554    -1.228193764112     0.868379881823
    C           -2.825426422564    -0.232312357630     0.028917144589
    H           -1.369518608844     1.082720696478    -0.858498146909
    H           -1.342126529609     1.082235907660     0.877085483377
    H           -2.970301632537    -0.860803383641    -0.845256097762
    H           -3.617963925200     0.508586195232     0.037588794265
    H           -2.948070066925    -0.857239232307     0.909111069795

  Mulliken Charges: (a.u.)
   Center  Symbol    Alpha    Beta     Spin     Total
       1     H     0.26786  0.26786  0.00000  0.46427
       2     O     4.35094  4.35094  0.00000 -0.70187
       3     C     2.62262  2.62262  0.00000  0.75477
       4     C     3.21004  3.21004  0.00000 -0.42008
       5     O     4.27939  4.27939  0.00000 -0.55879
       6     C     3.15348  3.15348  0.00000 -0.30696
       7     H     0.39904  0.39904  0.00000  0.20191
       8     H     0.39846  0.39846  0.00000  0.20308
       9     C     3.24280  3.24280  0.00000 -0.48560
      10     H     0.41326  0.41326  0.00000  0.17348
      11     H     0.40632  0.40632  0.00000  0.18736
      12     H     0.42072  0.42072  0.00000  0.15857
      13     H     0.41444  0.41444  0.00000  0.17111
      14     H     0.42063  0.42063  0.00000  0.15875

   Total alpha = 24.00000, Total beta = 24.00000, Total charge = -0.00000
