  ==> Input File <==

--------------------------------------------------------------------------
set {
	reference rhf
	basis cc-pvtz
}

set_num_threads( 4 )
memory 2 gb

molecule MOL {
0 1

H	 -3.436473	 1.252944	 -1.023892
O	 -3.458596	 0.315260	 -0.960865
C	 -3.176635	 -0.080824	 0.355601
C	 -1.763371	 0.265266	 0.799691
H	 -3.321825	 -1.153438	 0.379502
H	 -3.895468	 0.357385	 1.043382
C	 -0.673390	 -0.426948	 -0.013392
H	 -1.631049	 1.344913	 0.747560
H	 -1.664587	 -0.001624	 1.849167
C	 0.737842	 -0.043159	 0.423759
H	 -0.806103	 -0.190518	 -1.063345
H	 -0.797221	 -1.503753	 0.074146
C	 1.824000	 -0.743224	 -0.390623
H	 0.850588	 1.033777	 0.343840
H	 0.868587	 -0.286314	 1.476203
C	 3.255957	 -0.453067	 0.062319
H	 1.718250	 -0.470599	 -1.438164
H	 1.658105	 -1.815850	 -0.339904
C	 3.872903	 -1.526748	 0.955477
H	 3.261023	 0.490308	 0.599714
H	 3.885495	 -0.306254	 -0.811494
H	 3.261284	 -1.699502	 1.835338
H	 4.858153	 -1.226148	 1.293360
H	 3.981710	 -2.472142	 0.437794

	symmetry c1
}
set optking {
	frozen_dihedral = ("
		20 16 13 17
	")
}

ee = optimize('scf')
oeprop('DIPOLE', 'QUADRUPOLE', 'MULLIKEN_CHARGES')
f=open( 'psi4out.xyz', 'w' )
f.write( "24  " )
f.write( str(ee) + "\n" )
f.write( MOL.save_string_xyz() )
f.close()
--------------------------------------------------------------------------

    Molecular point group: c1
  Charge       = 0
  Multiplicity = 1
  Basis Set: CC-PVTZ
  Basis Set:
  @DF-RHF Final Energy:  -349.37746509954627
    Total Energy =                       -349.3774650995462707
    Molecular point group: c1
  Basis Set: CC-PVTZ
  Basis Set:
  Basis Set: CC-PVTZ
  Basis Set:
  @DF-RHF Final Energy:  -349.37782731271830
    Total Energy =                       -349.3778273127188072
  Basis Set: CC-PVTZ
  Basis Set:
  Basis Set: CC-PVTZ
  Basis Set:
  @DF-RHF Final Energy:  -349.37786104888494
    Total Energy =                       -349.3778610488847107
  Basis Set: CC-PVTZ
  Basis Set:
  Charge       = 0
  Multiplicity = 1
  Basis Set: CC-PVTZ
  Basis Set:

    Orbital Energies (a.u.)
    -----------------------

    Doubly Occupied:

       1A    -20.546364     2A    -11.265618     3A    -11.215351
       4A    -11.211615     5A    -11.211171     6A    -11.209067
       7A    -11.208909     8A    -11.205626     9A     -1.364223
      10A     -1.089435    11A     -1.049138    12A     -0.987829
      13A     -0.914653    14A     -0.846484    15A     -0.800108
      16A     -0.784723    17A     -0.681791    18A     -0.655056
      19A     -0.626381    20A     -0.618152    21A     -0.599383
      22A     -0.585590    23A     -0.558348    24A     -0.537580
      25A     -0.520399    26A     -0.512621    27A     -0.494245
      28A     -0.472562    29A     -0.468082    30A     -0.461160
      31A     -0.457414    32A     -0.451549    33A     -0.420853

  @DF-RHF Final Energy:  -349.37786204140161

   => Energetics <=

    Nuclear Repulsion Energy =            383.1578676509747083
    One-Electron Energy =               -1233.0084847174048264
    Two-Electron Energy =                 500.4727550250281070
    DFT Exchange-Correlation Energy =       0.0000000000000000
    Empirical Dispersion Energy =           0.0000000000000000
    PCM Polarization Energy =               0.0000000000000000
    EFP Energy =                            0.0000000000000000
    Total Energy =                       -349.3778620414020111
    Molecular point group: c1
  Basis Set: CC-PVTZ
  Basis Set:

  -Total Gradient:
     Atom            X                  Y                   Z
    ------   -----------------  -----------------  -----------------
       1        0.000000565476    -0.000001352820    -0.000000030259
       2       -0.000002788363    -0.000001117415    -0.000009602235
       3        0.000000265940     0.000017434903    -0.000004089440
       4       -0.000007673133     0.000030124378    -0.000037835246
       5        0.000002413432    -0.000000866466     0.000001999976
       6       -0.000000318541    -0.000002097731     0.000003265481
       7       -0.000020615020     0.000055659582     0.000000525197
       8       -0.000004779453     0.000006744738     0.000012228226
       9        0.000011305013    -0.000013403155    -0.000013335398
      10        0.000003950003    -0.000007111346     0.000102568317
      11       -0.000010683116    -0.000020435693    -0.000014680310
      12        0.000033406925     0.000018820812     0.000034300614
      13       -0.001228615068     0.003340110693     0.001740606521
      14        0.000005637529     0.000043844498     0.000067227614
      15        0.000001340509    -0.000027875315    -0.000035665271
      16        0.000848842681     0.001447604372    -0.003825835332
      17        0.000959490890    -0.003029579861    -0.000851998030
      18        0.000174200680    -0.000054514556    -0.000001824054
      19       -0.000037447526    -0.000114889345     0.000029316950
      20       -0.000696280192    -0.001530295932     0.002724070638
      21       -0.000053281211    -0.000031769689     0.000029423786
      22        0.000032305943    -0.000029187303     0.000000048014
      23       -0.000006657565    -0.000013050824     0.000027774112
      24       -0.000004585833    -0.000082796525     0.000021540127

  **** Optimization is complete! (in 4 steps) ****
    Final optimized geometry and variables:
    Molecular point group: c1

    Geometry (in Angstrom), charge = 0, multiplicity = 1:

    H           -3.449550526834     1.585868534882    -1.149813475275
    O           -3.477555001187     0.648165834847    -1.089718677120
    C           -3.192538417001     0.246130175739     0.224180139782
    C           -1.774933729853     0.581152646366     0.662955713434
    H           -3.344947482622    -0.825549118593     0.245070779284
    H           -3.905365417066     0.686873569753     0.916583273131
    C           -0.693311337650    -0.113771830733    -0.158982488517
    H           -1.635986968263     1.660170478682     0.615548654707
    H           -1.672631184182     0.308374724640     1.710574760638
    C            0.721882750896     0.257851855678     0.273145986156
    H           -0.829250407762     0.128976631989    -1.207124985947
    H           -0.823404950802    -1.190224316197    -0.076419967666
    C            1.806912960457    -0.424764557573    -0.555361601094
    H            0.847851671880     1.335736888117     0.203237872639
    H            0.857520694070     0.005052803747     1.322434468910
    C            3.237734890149    -0.107074477132    -0.089051280499
    H            1.689769399393    -0.160521763686    -1.601754097023
    H            1.655344091992    -1.500815014704    -0.518181776723
    C            3.821517600192    -1.179334807748     0.829984573257
    H            3.238740810362     0.835717721202     0.449930077490
    H            3.891105873473     0.018451083104    -0.944788543987
    H            3.193861278463    -1.334528976607     1.701497318314
    H            4.808968275635    -0.901731466660     1.181524491987
    H            3.908028127481    -2.129911160471     0.314437171867

  Mulliken Charges: (a.u.)
   Center  Symbol    Alpha    Beta     Spin     Total
       1     H     0.39531  0.39531  0.00000  0.20937
       2     O     4.20368  4.20368  0.00000 -0.40735
       3     C     2.97765  2.97765  0.00000  0.04470
       4     C     3.10204  3.10204  0.00000 -0.20408
       5     H     0.45887  0.45887  0.00000  0.08226
       6     H     0.46025  0.46025  0.00000  0.07949
       7     C     3.08850  3.08850  0.00000 -0.17701
       8     H     0.45911  0.45911  0.00000  0.08179
       9     H     0.45338  0.45338  0.00000  0.09324
      10     C     3.08925  3.08925  0.00000 -0.17851
      11     H     0.44633  0.44633  0.00000  0.10735
      12     H     0.45483  0.45483  0.00000  0.09035
      13     C     3.09504  3.09504  0.00000 -0.19008
      14     H     0.45460  0.45460  0.00000  0.09081
      15     H     0.45534  0.45534  0.00000  0.08932
      16     C     3.09089  3.09089  0.00000 -0.18179
      17     H     0.44745  0.44745  0.00000  0.10510
      18     H     0.45610  0.45610  0.00000  0.08779
      19     C     3.14756  3.14756  0.00000 -0.29511
      20     H     0.45606  0.45606  0.00000  0.08788
      21     H     0.44767  0.44767  0.00000  0.10466
      22     H     0.45566  0.45566  0.00000  0.08867
      23     H     0.44938  0.44938  0.00000  0.10125
      24     H     0.45506  0.45506  0.00000  0.08989

   Total alpha = 33.00000, Total beta = 33.00000, Total charge = -0.00000
