                              Psi4 1.0.54 Driver

  ==> Input File <==

--------------------------------------------------------------------------
set {
	reference rhf
	basis cc-pvtz
}

set_num_threads( 4 )
memory 2 gb

molecule MOL {
0 1

H	 4.593262	 0.300174	 -0.540077
C	 3.737539	 -0.340578	 -0.363207
C	 2.438852	 0.457609	 -0.394198
H	 3.740894	 -1.112605	 -1.125441
H	 3.880952	 -0.824682	 0.597050
C	 1.209450	 -0.404650	 -0.149150
H	 2.329127	 0.954191	 -1.351868
H	 2.480625	 1.242070	 0.357768
N	 -0.006886	 0.376881	 -0.208086
H	 1.152759	 -1.173422	 -0.913967
H	 1.318162	 -0.927551	 0.805753
C	 -1.215959	 -0.382435	 0.027143
H	 0.047220	 1.133967	 0.440923
C	 -2.451944	 0.502410	 -0.038737
H	 -1.284466	 -1.151099	 -0.736820
H	 -1.195004	 -0.904538	 0.988417
C	 -3.752217	 -0.292550	 0.005776
H	 -2.407325	 1.093801	 -0.946480
H	 -2.431979	 1.206234	 0.790023
H	 -3.817783	 -0.982946	 -0.828547
H	 -4.612613	 0.364348	 -0.042306
H	 -3.830160	 -0.871666	 0.919868

	symmetry c1
}
set optking {
	frozen_dihedral = ("
		15 12 14 18
	")
}

ee,wfn = optimize('scf', return_wfn=True)
oeprop( wfn, 'DIPOLE', 'QUADRUPOLE', 'MULLIKEN_CHARGES')
f=open( 'psi4out.xyz', 'w' )
f.write( "22  " )
f.write( str(ee) + "\n" )
f.write( MOL.save_string_xyz() )
f.close()
--------------------------------------------------------------------------

    Molecular point group: c1
  Charge       = 0
  Multiplicity = 1
  Basis Set: CC-PVTZ
  Basis Set:
  @DF-RHF Final Energy:  -290.48989324617298
    Total Energy =                       -290.4898932461729828
    Molecular point group: c1
  Basis Set: CC-PVTZ
  Basis Set:
  Basis Set: CC-PVTZ
  Basis Set:
  @DF-RHF Final Energy:  -290.48991902803527
    Total Energy =                       -290.4899190280349330
  Basis Set: CC-PVTZ
  Basis Set:
  Basis Set: CC-PVTZ
  Basis Set:
  @DF-RHF Final Energy:  -290.48992697364821
    Total Energy =                       -290.4899269736479255
  Basis Set: CC-PVTZ
  Basis Set:
  Charge       = 0
  Multiplicity = 1
  Basis Set: CC-PVTZ
  Basis Set:

    Orbital Energies (a.u.)
    -----------------------

    Doubly Occupied:

       1A    -15.528283     2A    -11.236237     3A    -11.236129
       4A    -11.211804     5A    -11.211726     6A    -11.207668
       7A    -11.207554     8A     -1.207562     9A     -1.060429
      10A     -1.027139    11A     -0.928825    12A     -0.868983
      13A     -0.812204    14A     -0.794032    15A     -0.669139
      16A     -0.626905    17A     -0.616775    18A     -0.615167
      19A     -0.574002    20A     -0.563382    21A     -0.529636
      22A     -0.528800    23A     -0.516982    24A     -0.485881
      25A     -0.482415    26A     -0.474573    27A     -0.465782
      28A     -0.452012    29A     -0.361478

  @DF-RHF Final Energy:  -290.48992710907731

   => Energetics <=

    Nuclear Repulsion Energy =            313.6538120530812535
    One-Electron Energy =               -1013.2844686286930482
    Two-Electron Energy =                 409.1407294665345376
    DFT Exchange-Correlation Energy =       0.0000000000000000
    Empirical Dispersion Energy =           0.0000000000000000
    PCM Polarization Energy =               0.0000000000000000
    EFP Energy =                            0.0000000000000000
    Total Energy =                       -290.4899271090772004
    Molecular point group: c1
  Basis Set: CC-PVTZ
  Basis Set:

  -Total Gradient:
     Atom            X                  Y                   Z
    ------   -----------------  -----------------  -----------------
       1        0.000002498944    -0.000001038318    -0.000001432302
       2        0.000004063075     0.000001469262    -0.000009137792
       3        0.000006513015    -0.000002142940     0.000001193194
       4        0.000001729121    -0.000002155755     0.000000454700
       5       -0.000001972187     0.000002528377     0.000000089442
       6        0.000012911762    -0.000000706123     0.000022002706
       7        0.000005175395     0.000002821482     0.000000025303
       8       -0.000003817515    -0.000002602527     0.000000554584
       9        0.000002371424     0.000009891205    -0.000020267677
      10       -0.000003704855     0.000008297902    -0.000000638723
      11       -0.000002827729    -0.000003071312    -0.000000958522
      12        0.000955959158     0.001311554977    -0.000999626629
      13        0.000011719459     0.000003275593     0.000009540488
      14       -0.001038730859    -0.001492907337    -0.000661192308
      15       -0.000668757105    -0.000881852925     0.000943047060
      16        0.000005059631     0.000001764323     0.000000524877
      17       -0.000014531668    -0.000004286548    -0.000005404600
      18        0.000709998507     0.001038100370     0.000716747269
      19        0.000002348501    -0.000000169044    -0.000000238158
      20        0.000003725736     0.000008887128     0.000010924943
      21        0.000004207525    -0.000005902761     0.000000680423
      22        0.000006060662     0.000008244971    -0.000006888277

  **** Optimization is complete! (in 4 steps) ****
    Final optimized geometry and variables:
    Molecular point group: c1

    Geometry (in Angstrom), charge = 0, multiplicity = 1:

    H            4.601335286571     0.322882604371    -0.363026157562
    C            3.745149412262    -0.318186270815    -0.189469808699
    C            2.445759799449     0.478183766255    -0.233460809192
    H            3.754957302509    -1.093657448114    -0.948147497135
    H            3.882113885770    -0.797695453114     0.774030195430
    C            1.215581270674    -0.384825051417     0.004955037263
    H            2.342945476271     0.971201229223    -1.193710586771
    H            2.480520620298     1.265273673728     0.516114121331
    N           -0.001366461992     0.394592799731    -0.067860452860
    H            1.166386322599    -1.156898165026    -0.757065165507
    H            1.316832876141    -0.903480528502     0.962949757735
    C           -1.211002784855    -0.366209497959     0.156479094875
    H            0.044822321662     1.152598477343     0.580896128057
    C           -2.448291544042     0.518479405077     0.105565423709
    H           -1.283124736522    -1.131446525792    -0.610731628077
    H           -1.191128290582    -0.899324251640     1.112054627051
    C           -3.748892435562    -0.273379066517     0.170532676898
    H           -2.411144153296     1.115090269439    -0.799188166998
    H           -2.414979206717     1.222261305714     0.934341417094
    H           -3.836791340027    -0.951164922951    -0.671791596862
    H           -4.608379811771     0.386232784563     0.154290174408
    H           -3.805183111303    -0.865474416674     1.078002352637

  Mulliken Charges: (a.u.)
   Center  Symbol    Alpha    Beta     Spin     Total
       1     H     0.44770  0.44770  0.00000  0.10460
       2     C     3.15361  3.15361  0.00000 -0.30721
       3     C     3.08014  3.08014  0.00000 -0.16029
       4     H     0.45474  0.45474  0.00000  0.09051
       5     H     0.45614  0.45614  0.00000  0.08773
       6     C     3.02276  3.02276  0.00000 -0.04551
       7     H     0.44915  0.44915  0.00000  0.10170
       8     H     0.45970  0.45970  0.00000  0.08060
       9     N     3.63789  3.63789  0.00000 -0.27578
      10     H     0.45908  0.45908  0.00000  0.08184
      11     H     0.47464  0.47464  0.00000  0.05072
      12     C     3.02197  3.02197  0.00000 -0.04393
      13     H     0.44577  0.44577  0.00000  0.10845
      14     C     3.08187  3.08187  0.00000 -0.16374
      15     H     0.46010  0.46010  0.00000  0.07980
      16     H     0.47500  0.47500  0.00000  0.05000
      17     C     3.15309  3.15309  0.00000 -0.30618
      18     H     0.44912  0.44912  0.00000  0.10175
      19     H     0.45922  0.45922  0.00000  0.08156
      20     H     0.45442  0.45442  0.00000  0.09117
      21     H     0.44778  0.44778  0.00000  0.10444
      22     H     0.45611  0.45611  0.00000  0.08777

   Total alpha = 29.00000, Total beta = 29.00000, Total charge = -0.00000

*** Psi4 exiting successfully. Buy a developer a beer!
