                              Psi4 1.0.54 Driver

  ==> Input File <==

--------------------------------------------------------------------------
set {
	reference rhf
	basis cc-pvtz
}

set_num_threads( 4 )
memory 2 gb

molecule MOL {
0 1

H	 -3.314020	 0.314797	 0.065542
C	 -2.691655	 0.015812	 -0.774787
O	 -1.401606	 -0.295183	 -0.366624
H	 -3.117983	 -0.868343	 -1.225789
H	 -2.696155	 0.819414	 -1.509013
C	 -0.718530	 0.758693	 0.228682
C	 0.718529	 0.758687	 -0.228709
H	 -1.176498	 1.708665	 -0.046615
H	 -0.748705	 0.673525	 1.312779
O	 1.401606	 -0.295166	 0.366636
H	 0.748705	 0.673477	 -1.312803
H	 1.176496	 1.708671	 0.046552
C	 2.714315	 -0.441627	 -0.061017
H	 2.765292	 -0.641548	 -1.128869
H	 3.305661	 0.447341	 0.150952
H	 3.143725	 -1.278506	 0.470147

	symmetry c1
}
set optking {
	frozen_dihedral = ("
		2 3 6 7
	")
}

ee,wfn = optimize('scf', return_wfn=True)
oeprop( wfn, 'DIPOLE', 'QUADRUPOLE', 'MULLIKEN_CHARGES')
f=open( 'psi4out.xyz', 'w' )
f.write( "16  " )
f.write( str(ee) + "\n" )
f.write( MOL.save_string_xyz() )
f.close()
--------------------------------------------------------------------------

    Molecular point group: c1
  Charge       = 0
  Multiplicity = 1
  Basis Set: CC-PVTZ
  Basis Set:
  @DF-RHF Final Energy:  -307.09449493980418
    Total Energy =                       -307.0944949398043491
    Molecular point group: c1
  Basis Set: CC-PVTZ
  Basis Set:
  Basis Set: CC-PVTZ
  Basis Set:
  @DF-RHF Final Energy:  -307.09459550987032
    Total Energy =                       -307.0945955098702598
  Basis Set: CC-PVTZ
  Basis Set:
  Basis Set: CC-PVTZ
  Basis Set:
  @DF-RHF Final Energy:  -307.09474580815862
    Total Energy =                       -307.0947458081586774
  Basis Set: CC-PVTZ
  Basis Set:
  Charge       = 0
  Multiplicity = 1
  Basis Set: CC-PVTZ
  Basis Set:

    Orbital Energies (a.u.)
    -----------------------

    Doubly Occupied:

       1A    -20.547491     2A    -20.545796     3A    -11.267638
       4A    -11.266955     5A    -11.263252     6A    -11.261363
       7A     -1.390035     8A     -1.372869     9A     -1.031545
      10A     -0.937955    11A     -0.894893    12A     -0.822495
      13A     -0.687877    14A     -0.679032    15A     -0.659327
      16A     -0.640421    17A     -0.627063    18A     -0.601644
      19A     -0.558164    20A     -0.529904    21A     -0.509326
      22A     -0.476859    23A     -0.472250    24A     -0.420117
      25A     -0.411038

  @DF-RHF Final Energy:  -307.09474801261229

   => Energetics <=

    Nuclear Repulsion Energy =            258.5235362083312793
    One-Electron Energy =                -931.4859414793579617
    Two-Electron Energy =                 365.8676572584140558
    DFT Exchange-Correlation Energy =       0.0000000000000000
    Empirical Dispersion Energy =           0.0000000000000000
    PCM Polarization Energy =               0.0000000000000000
    EFP Energy =                            0.0000000000000000
    Total Energy =                       -307.0947480126126266
    Molecular point group: c1
  Basis Set: CC-PVTZ
  Basis Set:

  -Total Gradient:
     Atom            X                  Y                   Z
    ------   -----------------  -----------------  -----------------
       1        0.000069087212    -0.000013874072    -0.000007096468
       2        0.000668938493     0.000413586374    -0.002057125635
       3       -0.001334261541    -0.000355939153     0.002179105183
       4       -0.000022435841     0.000013590378     0.000006083262
       5        0.000015501772    -0.000013616784     0.000034533209
       6        0.001044441081    -0.001038820896     0.001372575400
       7       -0.000541922967     0.001252447275    -0.001617755041
       8        0.000037793168    -0.000053340288     0.000021175513
       9        0.000064615461     0.000008078726    -0.000053284008
      10        0.000088820580    -0.000164699417     0.000079648185
      11       -0.000030319933    -0.000006666987     0.000053852695
      12       -0.000032307045    -0.000029980069    -0.000024379914
      13       -0.000005019071    -0.000019831908    -0.000001547665
      14       -0.000006900079     0.000007225772     0.000023813394
      15       -0.000016154714    -0.000010562907    -0.000002391230
      16        0.000000123432     0.000012403954    -0.000007206879

  **** Optimization is complete! (in 4 steps) ****
    Final optimized geometry and variables:
    Molecular point group: c1

    Geometry (in Angstrom), charge = 0, multiplicity = 1:

    H           -3.342609437321     0.178553673223     0.193281128557
    C           -2.702390205335    -0.167211659920    -0.615554015168
    O           -1.404698045250    -0.406090498027    -0.181370541063
    H           -3.098735093729    -1.098684562471    -0.992987844579
    H           -2.727250064427     0.571640958317    -1.413482989391
    C           -0.729506147887     0.697987970999     0.338478485916
    C            0.712012300098     0.700573503543    -0.109981316810
    H           -1.187206747874     1.622109194735    -0.007368756258
    H           -0.775477821009     0.687571475957     1.423447273947
    O            1.402945694599    -0.331366778843     0.513329123419
    H            0.749954626746     0.589633102189    -1.191787026607
    H            1.159035882863     1.661839645881     0.145860454294
    C            2.720843657919    -0.471484471702     0.100338008564
    H            2.783642701904    -0.693661581991    -0.962538760292
    H            3.299711903109     0.428944269942     0.298029420548
    H            3.155319276307    -1.291550493107     0.653035579857

  Mulliken Charges: (a.u.)
   Center  Symbol    Alpha    Beta     Spin     Total
       1     H     0.47067  0.47067  0.00000  0.05865
       2     C     3.03017  3.03017  0.00000 -0.06034
       3     O     4.17328  4.17328  0.00000 -0.34656
       4     H     0.44821  0.44821  0.00000  0.10357
       5     H     0.47345  0.47345  0.00000  0.05311
       6     C     2.96389  2.96389  0.00000  0.07222
       7     C     2.95887  2.95887  0.00000  0.08227
       8     H     0.47692  0.47692  0.00000  0.04617
       9     H     0.46138  0.46138  0.00000  0.07723
      10     O     4.16907  4.16907  0.00000 -0.33814
      11     H     0.47380  0.47380  0.00000  0.05240
      12     H     0.47773  0.47773  0.00000  0.04453
      13     C     3.03183  3.03183  0.00000 -0.06367
      14     H     0.47078  0.47078  0.00000  0.05843
      15     H     0.47379  0.47379  0.00000  0.05243
      16     H     0.44615  0.44615  0.00000  0.10770

   Total alpha = 25.00000, Total beta = 25.00000, Total charge =  0.00000

*** Psi4 exiting successfully. Buy a developer a beer!
