  ==> Input File <==

--------------------------------------------------------------------------
set {
	reference rhf
	basis 6-31G*
}

set_num_threads( 4 )
memory 2 gb

molecule MOL {
0 1

H	 -2.446370	 -1.791456	 -1.475989
C	 -1.911835	 -1.092439	 -0.860340
C	 -2.586093	 -0.134073	 -0.122872
C	 -0.535810	 -1.141156	 -0.796063
H	 -3.659248	 -0.079871	 -0.159525
C	 -1.885120	 0.759291	 0.665331
H	 0.014884	 -1.869669	 -1.353542
C	 0.154804	 -0.237046	 -0.000077
H	 -2.426675	 1.495338	 1.230175
C	 -0.494836	 0.743415	 0.757348
N	 1.611208	 -0.370857	 -0.000034
C	 0.168592	 1.768173	 1.651029
O	 2.274126	 0.622059	 -0.008063
O	 2.068510	 -1.474748	 0.007823
H	 0.843788	 2.403311	 1.094398
H	 -0.593842	 2.387099	 2.107099
H	 0.747414	 1.297718	 2.433819

	symmetry c1
}
set optking {
	frozen_dihedral = ("
		4 8 11 13
	")
}

ee = optimize('scf')
oeprop('DIPOLE', 'QUADRUPOLE', 'MULLIKEN_CHARGES')
f=open( 'psi4out.xyz', 'w' )
f.write( "17  " )
f.write( str(ee) + "\n" )
f.write( MOL.save_string_xyz() )
f.close()
--------------------------------------------------------------------------

    Molecular point group: c1
  Charge       = 0
  Multiplicity = 1
  Basis Set: 6-31G*
  Basis Set:
  @DF-RHF Final Energy:  -473.20493510241238
    Total Energy =                       -473.2049351024126054
    Molecular point group: c1
  Basis Set: 6-31G*
  Basis Set:
  Basis Set: 6-31G*
  Basis Set:
  @DF-RHF Final Energy:  -473.19841815767546
    Total Energy =                       -473.1984181576757464
  Basis Set: 6-31G*
  Basis Set:
  Basis Set: 6-31G*
  Basis Set:
  @DF-RHF Final Energy:  -473.20562831332040
    Total Energy =                       -473.2056283133200623
  Basis Set: 6-31G*
  Basis Set:
  Basis Set: 6-31G*
  Basis Set:
  @DF-RHF Final Energy:  -473.20613088098878
    Total Energy =                       -473.2061308809884395
  Basis Set: 6-31G*
  Basis Set:
  Basis Set: 6-31G*
  Basis Set:
  @DF-RHF Final Energy:  -473.20621476958479
    Total Energy =                       -473.2062147695853582
  Basis Set: 6-31G*
  Basis Set:
  Basis Set: 6-31G*
  Basis Set:
  @DF-RHF Final Energy:  -473.20621954992225
    Total Energy =                       -473.2062195499220252
  Basis Set: 6-31G*
  Basis Set:
  Basis Set: 6-31G*
  Basis Set:
  @DF-RHF Final Energy:  -473.20622151440608
    Total Energy =                       -473.2062215144059110
  Basis Set: 6-31G*
  Basis Set:
  Charge       = 0
  Multiplicity = 1
  Basis Set: 6-31G*
  Basis Set:

    Orbital Energies (a.u.)
    -----------------------

    Doubly Occupied:

       1A    -20.601335     2A    -20.600369     3A    -15.852800
       4A    -11.300783     5A    -11.280394     6A    -11.267068
       7A    -11.262425     8A    -11.254785     9A    -11.253922
      10A    -11.235729    11A     -1.633154    12A     -1.416148
      13A     -1.200883    14A     -1.091966    15A     -1.072345
      16A     -0.979644    17A     -0.932772    18A     -0.849644
      19A     -0.821268    20A     -0.769932    21A     -0.732834
      22A     -0.726857    23A     -0.694150    24A     -0.658784
      25A     -0.637116    26A     -0.599060    27A     -0.593467
      28A     -0.566088    29A     -0.540896    30A     -0.522027
      31A     -0.520177    32A     -0.487698    33A     -0.480495
      34A     -0.448082    35A     -0.367220    36A     -0.353524

  @DF-RHF Final Energy:  -473.20622158921935

   => Energetics <=

    Nuclear Repulsion Energy =            509.9970854369502149
    One-Electron Energy =               -1655.1949329054064037
    Two-Electron Energy =                 671.9916258792370627
    DFT Exchange-Correlation Energy =       0.0000000000000000
    Empirical Dispersion Energy =           0.0000000000000000
    PCM Polarization Energy =               0.0000000000000000
    EFP Energy =                            0.0000000000000000
    Total Energy =                       -473.2062215892190125
    Molecular point group: c1
  Basis Set: 6-31G*
  Basis Set:

  -Total Gradient:
     Atom            X                  Y                   Z
    ------   -----------------  -----------------  -----------------
       1        0.000004728579    -0.000003774295     0.000000432847
       2       -0.000044702214     0.000026672089     0.000003939873
       3       -0.000004656356    -0.000049200755    -0.000022534537
       4        0.000158410358     0.001201224310    -0.001419520786
       5        0.000002132756     0.000005352294    -0.000000503204
       6        0.000049967062     0.000025693838     0.000025097594
       7       -0.000000068904    -0.000004632679    -0.000001039884
       8       -0.000135664642    -0.001724361981     0.001167642940
       9       -0.000004113891    -0.000001594095     0.000000545464
      10       -0.000040326414     0.000030532501     0.000011366152
      11        0.000020984892     0.000533174105     0.002428015681
      12       -0.000008856588    -0.000005457186     0.000007494894
      13        0.000013003154    -0.000005740132    -0.002192715297
      14       -0.000012302971    -0.000031736277     0.000003306962
      15        0.000001558798     0.000007640023    -0.000002416187
      16       -0.000000114391    -0.000000458129    -0.000004249072
      17        0.000000020771    -0.000003333635    -0.000004863441

  **** Optimization is complete! (in 8 steps) ****
    Final optimized geometry and variables:
    Molecular point group: c1

    Geometry (in Angstrom), charge = 0, multiplicity = 1:

    H           -2.426479725826    -1.737347058038    -1.644800002554
    C           -1.895344473771    -1.042097806898    -1.021882923635
    C           -2.573541122290    -0.066574913314    -0.310452150749
    C           -0.520828121166    -1.117323968220    -0.917689708924
    H           -3.644651193044    -0.000864227063    -0.374212145906
    C           -1.882088073368     0.825904801208     0.490059736804
    H            0.036437357574    -1.868945639950    -1.440767107002
    C            0.150100937396    -0.204904683977    -0.122386137548
    H           -2.427028357790     1.568155961288     1.044361627981
    C           -0.495182201506     0.795903966950     0.598964476017
    N            1.605289222232    -0.318109916261    -0.104330140464
    C            0.206100756630     1.801706853002     1.483546667807
    O            2.244449386268     0.690397231959    -0.109849869888
    O            2.071114720190    -1.417644185905    -0.119661901832
    H            0.688018276452     2.568007283804     0.890331876130
    H           -0.516001557714     2.273121281022     2.138308401804
    H            0.970304129314     1.340852099677     2.095624884132

  Mulliken Charges: (a.u.)
   Center  Symbol    Alpha    Beta     Spin     Total
       1     H     0.38952  0.38952  0.00000  0.22097
       2     C     3.11197  3.11197  0.00000 -0.22395
       3     C     3.08320  3.08320  0.00000 -0.16640
       4     C     3.08267  3.08267  0.00000 -0.16534
       5     H     0.39010  0.39010  0.00000  0.21980
       6     C     3.12337  3.12337  0.00000 -0.24674
       7     H     0.36909  0.36909  0.00000  0.26181
       8     C     2.92353  2.92353  0.00000  0.15294
       9     H     0.39271  0.39271  0.00000  0.21457
      10     C     2.96428  2.96428  0.00000  0.07144
      11     N     3.25958  3.25958  0.00000  0.48084
      12     C     3.24337  3.24337  0.00000 -0.48674
      13     O     4.22917  4.22917  0.00000 -0.45833
      14     O     4.22850  4.22850  0.00000 -0.45700
      15     H     0.39314  0.39314  0.00000  0.21372
      16     H     0.41295  0.41295  0.00000  0.17411
      17     H     0.40285  0.40285  0.00000  0.19430

   Total alpha = 36.00000, Total beta = 36.00000, Total charge = -0.00000
