  ==> Input File <==

--------------------------------------------------------------------------
set {
	reference rhf
	basis cc-pvtz
}

set_num_threads( 4 )
memory 2 gb

molecule MOL {
0 1

O	 -2.374409	 1.338660	 -0.336961
C	 -2.104891	 0.204655	 -0.107126
C	 -0.881910	 -0.448129	 -0.720509
C	 -2.949910	 -0.638219	 0.818225
C	 -0.263246	 0.447704	 -1.801055
H	 -1.197276	 -1.384955	 -1.162111
H	 -0.145501	 -0.663081	 0.046539
C	 0.963888	 -0.189431	 -2.449673
H	 -1.021516	 0.654673	 -2.545648
H	 0.018873	 1.403928	 -1.367070
C	 1.656974	 0.685647	 -3.495510
H	 0.676479	 -1.133650	 -2.905553
H	 1.682542	 -0.433462	 -1.672119
C	 0.830246	 0.954751	 -4.750494
H	 2.583231	 0.199968	 -3.786149
H	 1.941567	 1.630863	 -3.040639
H	 0.526822	 0.026185	 -5.223027
H	 1.405774	 1.520065	 -5.474344
H	 -0.066028	 1.522866	 -4.533199
H	 -3.440322	 -1.417144	 0.243099
H	 -3.694377	 -0.025850	 1.303346
H	 -2.331085	 -1.129829	 1.560495

	symmetry c1
}
set optking {
	frozen_dihedral = ("
		6 3 2 1
	")
}

ee = optimize('scf')
oeprop('DIPOLE', 'QUADRUPOLE', 'MULLIKEN_CHARGES')
f=open( 'psi4out.xyz', 'w' )
f.write( "22  " )
f.write( str(ee) + "\n" )
f.write( MOL.save_string_xyz() )
f.close()
--------------------------------------------------------------------------

    Molecular point group: c1
  Charge       = 0
  Multiplicity = 1
  Basis Set: CC-PVTZ
  Basis Set:
  @DF-RHF Final Energy:  -348.22394637139729
    Total Energy =                       -348.2239463713974033
    Molecular point group: c1
  Basis Set: CC-PVTZ
  Basis Set:
  Basis Set: CC-PVTZ
  Basis Set:
  @DF-RHF Final Energy:  -348.22452762878686
    Total Energy =                       -348.2245276287866318
  Basis Set: CC-PVTZ
  Basis Set:
  Basis Set: CC-PVTZ
  Basis Set:
  @DF-RHF Final Energy:  -348.22508956713688
    Total Energy =                       -348.2250895671369335
  Basis Set: CC-PVTZ
  Basis Set:
  Basis Set: CC-PVTZ
  Basis Set:
  @DF-RHF Final Energy:  -348.22519095204814
    Total Energy =                       -348.2251909520480240
  Basis Set: CC-PVTZ
  Basis Set:
  Basis Set: CC-PVTZ
  Basis Set:
  @DF-RHF Final Energy:  -348.22521276591675
    Total Energy =                       -348.2252127659164671
  Basis Set: CC-PVTZ
  Basis Set:
  Basis Set: CC-PVTZ
  Basis Set:
  @DF-RHF Final Energy:  -348.22521979048310
    Total Energy =                       -348.2252197904835498
  Basis Set: CC-PVTZ
  Basis Set:
  Charge       = 0
  Multiplicity = 1
  Basis Set: CC-PVTZ
  Basis Set:

    Orbital Energies (a.u.)
    -----------------------

    Doubly Occupied:

       1A    -20.538810     2A    -11.320634     3A    -11.230328
       4A    -11.226701     5A    -11.215703     6A    -11.214639
       7A    -11.214371     8A    -11.205964     9A     -1.398931
      10A     -1.092025    11A     -1.044115    12A     -1.001846
      13A     -0.935789    14A     -0.855075    15A     -0.781965
      16A     -0.731989    17A     -0.656802    18A     -0.652548
      19A     -0.632475    20A     -0.613642    21A     -0.603490
      22A     -0.580085    23A     -0.560280    24A     -0.548381
      25A     -0.523496    26A     -0.513355    27A     -0.499345
      28A     -0.486491    29A     -0.465249    30A     -0.463054
      31A     -0.458574    32A     -0.401825

  @DF-RHF Final Energy:  -348.22521986845004

   => Energetics <=

    Nuclear Repulsion Energy =            372.9619541233007567
    One-Electron Energy =               -1211.0383993273512715
    Two-Electron Energy =                 489.8512253356009865
    DFT Exchange-Correlation Energy =       0.0000000000000000
    Empirical Dispersion Energy =           0.0000000000000000
    PCM Polarization Energy =               0.0000000000000000
    EFP Energy =                            0.0000000000000000
    Total Energy =                       -348.2252198684495283
    Molecular point group: c1
  Basis Set: CC-PVTZ
  Basis Set:

  -Total Gradient:
     Atom            X                  Y                   Z
    ------   -----------------  -----------------  -----------------
       1        0.000053928600     0.000036813481     0.000095527180
       2       -0.000056031423    -0.000058649187    -0.000091829478
       3       -0.000010711974     0.000135998048    -0.000124862550
       4        0.000018486446    -0.000003615100     0.000024257274
       5       -0.000072561380    -0.000065297292    -0.000067211110
       6        0.000026815079    -0.000064460529     0.000112057828
       7        0.000023693399    -0.000020268879     0.000006877879
       8        0.000031948579     0.000022829681     0.000031682307
       9        0.000016122261    -0.000007056438     0.000022586086
      10       -0.000006152498     0.000019238111    -0.000001988313
      11        0.000003608266     0.000000120808     0.000007016021
      12       -0.000011368624     0.000012824424     0.000000567004
      13        0.000015699398    -0.000012937431    -0.000001712919
      14       -0.000005001079     0.000000511715     0.000002593199
      15        0.000000453786    -0.000000196310     0.000001422921
      16        0.000001299063     0.000000627425     0.000000113335
      17       -0.000000906931    -0.000000119950     0.000000356302
      18        0.000002294871    -0.000000490889    -0.000000077748
      19        0.000001559613    -0.000002107012    -0.000000781511
      20       -0.000009549761     0.000023550130    -0.000016660329
      21       -0.000012346883    -0.000004105387     0.000000648336
      22       -0.000011278809    -0.000013209418    -0.000000581711

  **** Optimization is complete! (in 7 steps) ****
    Final optimized geometry and variables:
    Molecular point group: c1

    Geometry (in Angstrom), charge = 0, multiplicity = 1:

    O           -1.824943331050     1.029678820729     1.292783162226
    C           -1.479682090958    -0.084769027371     1.513853597503
    C           -0.266772622487    -0.704542466096     0.850325371763
    C           -2.236694549717    -0.966912154162     2.480741477133
    C            0.379865184468     0.164518861843    -0.219240204545
    H           -0.564082616399    -1.667273688630     0.441443467412
    H            0.445471258004    -0.935179865862     1.639977902127
    C            1.603943619063    -0.501847222572    -0.844321759300
    H           -0.358513565736     0.391702834421    -0.977777680853
    H            0.662740207096     1.114810139865     0.219044291051
    C            2.341200921399     0.359729884562    -1.870889580734
    H            1.308266289120    -1.438642797373    -1.312228489620
    H            2.301719445162    -0.766207356652    -0.053846958703
    C            1.547022903373     0.658026919728    -3.140185913825
    H            3.260630610320    -0.147625235501    -2.146437558884
    H            2.639222403578     1.294650696224    -1.404200528135
    H            1.228077253762    -0.259484181023    -3.624657414691
    H            2.151737644041     1.211373783373    -3.849456420420
    H            0.662999221595     1.249484264786    -2.936045751718
    H           -2.711669745940    -1.776016851408     1.935824052905
    H           -2.991312961089    -0.388680623830     2.991429424043
    H           -1.562721083226    -1.415352029286     3.201554522703

  Mulliken Charges: (a.u.)
   Center  Symbol    Alpha    Beta     Spin     Total
       1     O     4.17123  4.17123  0.00000 -0.34247
       2     C     2.86164  2.86164  0.00000  0.27672
       3     C     3.11353  3.11353  0.00000 -0.22706
       4     C     3.15138  3.15138  0.00000 -0.30276
       5     C     3.08581  3.08581  0.00000 -0.17163
       6     H     0.44573  0.44573  0.00000  0.10854
       7     H     0.44428  0.44428  0.00000  0.11143
       8     C     3.09608  3.09608  0.00000 -0.19216
       9     H     0.44586  0.44586  0.00000  0.10828
      10     H     0.44447  0.44447  0.00000  0.11105
      11     C     3.09000  3.09000  0.00000 -0.18000
      12     H     0.45534  0.45534  0.00000  0.08932
      13     H     0.45063  0.45063  0.00000  0.09874
      14     C     3.15281  3.15281  0.00000 -0.30563
      15     H     0.44866  0.44866  0.00000  0.10268
      16     H     0.45359  0.45359  0.00000  0.09283
      17     H     0.45587  0.45587  0.00000  0.08825
      18     H     0.44637  0.44637  0.00000  0.10726
      19     H     0.45095  0.45095  0.00000  0.09811
      20     H     0.44923  0.44923  0.00000  0.10153
      21     H     0.43547  0.43547  0.00000  0.12905
      22     H     0.45105  0.45105  0.00000  0.09790

   Total alpha = 32.00000, Total beta = 32.00000, Total charge =  0.00000
