  ==> Input File <==

--------------------------------------------------------------------------
set {
	reference rhf
	basis cc-pvtz
}

set_num_threads( 4 )
memory 2 gb

molecule MOL {
0 1

H	 -3.941973	 0.934228	 -0.390224
C	 -3.240162	 0.342701	 0.161016
C	 -2.105997	 -0.000418	 -0.398703
H	 -3.485368	 0.047206	 1.162193
O	 -1.189946	 -0.765863	 0.237511
H	 -1.846458	 0.297311	 -1.398265
C	 0.026572	 -0.995256	 -0.379403
C	 1.057223	 0.049888	 -0.004615
H	 -0.054361	 -1.010670	 -1.459674
H	 0.397526	 -1.952058	 -0.044198
F	 1.826380	 0.300631	 -1.045098
F	 0.497004	 1.183251	 0.360283
F	 1.827494	 -0.347883	 0.978705

	symmetry c1
}
set optking {
	frozen_dihedral = ("
		11 8 7 9
	")
}

ee = optimize('scf')
oeprop('DIPOLE', 'QUADRUPOLE', 'MULLIKEN_CHARGES')
f=open( 'psi4out.xyz', 'w' )
f.write( "13  " )
f.write( str(ee) + "\n" )
f.write( MOL.save_string_xyz() )
f.close()
--------------------------------------------------------------------------

    Molecular point group: c1
  Charge       = 0
  Multiplicity = 1
  Basis Set: CC-PVTZ
  Basis Set:
  @DF-RHF Final Energy:  -527.73697256141236
    Total Energy =                       -527.7369725614119034
    Molecular point group: c1
  Basis Set: CC-PVTZ
  Basis Set:
  Basis Set: CC-PVTZ
  Basis Set:
  @DF-RHF Final Energy:  -527.73738656224384
    Total Energy =                       -527.7373865622435005
  Basis Set: CC-PVTZ
  Basis Set:
  Basis Set: CC-PVTZ
  Basis Set:
  @DF-RHF Final Energy:  -527.73750752009198
    Total Energy =                       -527.7375075200912988
  Basis Set: CC-PVTZ
  Basis Set:
  Basis Set: CC-PVTZ
  Basis Set:
  @DF-RHF Final Energy:  -527.73751812105661
    Total Energy =                       -527.7375181210568371
  Basis Set: CC-PVTZ
  Basis Set:
  Basis Set: CC-PVTZ
  Basis Set:
  @DF-RHF Final Energy:  -527.73752154336898
    Total Energy =                       -527.7375215433692119
  Basis Set: CC-PVTZ
  Basis Set:
  Basis Set: CC-PVTZ
  Basis Set:
  @DF-RHF Final Energy:  -527.73752446112303
    Total Energy =                       -527.7375244611232574
  Basis Set: CC-PVTZ
  Basis Set:
  Charge       = 0
  Multiplicity = 1
  Basis Set: CC-PVTZ
  Basis Set:

    Orbital Energies (a.u.)
    -----------------------

    Doubly Occupied:

       1A    -26.340687     2A    -26.339574     3A    -26.339245
       4A    -20.604046     5A    -11.499241     6A    -11.319686
       7A    -11.298522     8A    -11.214026     9A     -1.750697
      10A     -1.646119    11A     -1.645596    12A     -1.444869
      13A     -1.085665    14A     -1.019567    15A     -0.932596
      16A     -0.844527    17A     -0.838100    18A     -0.828291
      19A     -0.795723    20A     -0.732370    21A     -0.722604
      22A     -0.702391    23A     -0.680664    24A     -0.667797
      25A     -0.662246    26A     -0.650401    27A     -0.635284
      28A     -0.587517    29A     -0.564941    30A     -0.530013
      31A     -0.516234    32A     -0.356899

  @DF-RHF Final Energy:  -527.73752508304551

   => Energetics <=

    Nuclear Repulsion Energy =            412.8217250158464253
    One-Electron Energy =               -1549.5262121165105782
    Two-Electron Energy =                 608.9669620176186982
    DFT Exchange-Correlation Energy =       0.0000000000000000
    Empirical Dispersion Energy =           0.0000000000000000
    PCM Polarization Energy =               0.0000000000000000
    EFP Energy =                            0.0000000000000000
    Total Energy =                       -527.7375250830455116
    Molecular point group: c1
  Basis Set: CC-PVTZ
  Basis Set:

  -Total Gradient:
     Atom            X                  Y                   Z
    ------   -----------------  -----------------  -----------------
       1       -0.000015866301    -0.000029130388    -0.000017336547
       2        0.000023521126    -0.000014050415     0.000006685213
       3        0.000018616091     0.000189840470     0.000044393929
       4        0.000001746985     0.000000252121    -0.000003295197
       5        0.000051517346    -0.000078791465    -0.000053564738
       6       -0.000005349153    -0.000045159105    -0.000013156509
       7       -0.004870031384     0.005031760194    -0.000277268398
       8        0.003811545080    -0.004384877123     0.001568829165
       9        0.003397691573    -0.003423536520    -0.000044036088
      10       -0.000009749112    -0.000002373851     0.000012842513
      11       -0.002420636765     0.002874543242    -0.001351393800
      12       -0.000035673994    -0.000073866046     0.000031238715
      13        0.000052668511    -0.000044611116     0.000096061739

  **** Optimization is complete! (in 7 steps) ****
    Final optimized geometry and variables:
    Molecular point group: c1

    Geometry (in Angstrom), charge = 0, multiplicity = 1:

    H           -3.953186379252     0.939319869737    -0.362694729362
    C           -3.273619384254     0.306393868721     0.170131574064
    C           -2.102444753465     0.034136048797    -0.350707625665
    H           -3.569993361492    -0.085715285413     1.123172855240
    O           -1.206778928558    -0.769067473674     0.267909391678
    H           -1.792890647257     0.427227573401    -1.302063300520
    C            0.003696584365    -1.001519044817    -0.352939022403
    C            1.066880602760     0.047146695534    -0.016871644307
    H           -0.073351948911    -1.070180010893    -1.430656819355
    H            0.373164537306    -1.950780477025     0.004756586329
    F            1.858045970761     0.240815018634    -1.054659864704
    F            0.535435862518     1.208182665046     0.286556497373
    F            1.820292276906    -0.321480681493     0.994561021031

  Mulliken Charges: (a.u.)
   Center  Symbol    Alpha    Beta     Spin     Total
       1     H     0.42538  0.42538  0.00000  0.14924
       2     C     3.19684  3.19684  0.00000 -0.39369
       3     C     2.95569  2.95569  0.00000  0.08861
       4     H     0.42511  0.42511  0.00000  0.14979
       5     O     4.14094  4.14094  0.00000 -0.28189
       6     H     0.43466  0.43466  0.00000  0.13069
       7     C     3.03215  3.03215  0.00000 -0.06429
       8     C     2.67158  2.67158  0.00000  0.65685
       9     H     0.45455  0.45455  0.00000  0.09089
      10     H     0.43692  0.43692  0.00000  0.12616
      11     F     4.61261  4.61261  0.00000 -0.22521
      12     F     4.60559  4.60559  0.00000 -0.21119
      13     F     4.60798  4.60798  0.00000 -0.21596

   Total alpha = 32.00000, Total beta = 32.00000, Total charge = -0.00000
