  ==> Input File <==

--------------------------------------------------------------------------
set {
	reference rhf
	basis 6-31G*
}

set_num_threads( 4 )
memory 2 gb

molecule MOL {
0 1

H	 -3.261111	 -0.295142	 1.469456
C	 -3.306842	 -0.277400	 0.373456
C	 -2.660244	 0.921717	 -0.272021
O	 -3.838538	 -1.161155	 -0.216482
C	 -2.451438	 0.736585	 -1.781452
H	 -3.266514	 1.794157	 -0.057557
H	 -1.692785	 1.061002	 0.208892
C	 -3.758907	 0.668255	 -2.574645
H	 -1.849186	 1.562061	 -2.149099
H	 -1.867692	 -0.165652	 -1.957421
C	 -3.535423	 0.495207	 -4.078282
H	 -4.332175	 1.575347	 -2.394661
H	 -4.371463	 -0.152583	 -2.206486
C	 -4.844645	 0.443400	 -4.870244
H	 -2.914707	 1.311832	 -4.438238
H	 -2.971738	 -0.419696	 -4.256039
C	 -4.673866	 0.188247	 -6.372177
H	 -5.390935	 1.373965	 -4.724268
H	 -5.471053	 -0.343671	 -4.455701
C	 -3.968681	 1.313054	 -7.131877
H	 -5.658160	 0.037591	 -6.808545
H	 -4.131420	 -0.743340	 -6.519893
H	 -4.480568	 2.261109	 -6.988940
H	 -2.940897	 1.439891	 -6.808541
H	 -3.950663	 1.105491	 -8.197517

	symmetry c1
}
set optking {
	frozen_dihedral = ("
		6 3 2 4
	")
}

ee = optimize('scf')
oeprop('DIPOLE', 'QUADRUPOLE', 'MULLIKEN_CHARGES')
f=open( 'psi4out.xyz', 'w' )
f.write( "25  " )
f.write( str(ee) + "\n" )
f.write( MOL.save_string_xyz() )
f.close()
--------------------------------------------------------------------------

    Molecular point group: c1
  Charge       = 0
  Multiplicity = 1
  Basis Set: 6-31G*
  Basis Set:
  @DF-RHF Final Energy:  -387.12047674949434
    Total Energy =                       -387.1204767494946282
    Molecular point group: c1
  Basis Set: 6-31G*
  Basis Set:
  Basis Set: 6-31G*
  Basis Set:
  @DF-RHF Final Energy:  -387.12217036877593
    Total Energy =                       -387.1221703687760964
  Basis Set: 6-31G*
  Basis Set:
  Basis Set: 6-31G*
  Basis Set:
  @DF-RHF Final Energy:  -387.12244010399377
    Total Energy =                       -387.1224401039942222
  Basis Set: 6-31G*
  Basis Set:
  Basis Set: 6-31G*
  Basis Set:
  @DF-RHF Final Energy:  -387.12255444083058
    Total Energy =                       -387.1225544408304131
  Basis Set: 6-31G*
  Basis Set:
  @DF-RHF Final Energy:  -387.12257479461698
    Total Energy =                       -387.1225747946164120
  Basis Set: 6-31G*
  Basis Set:
  @DF-RHF Final Energy:  -387.12258688982206
    Total Energy =                       -387.1225868898222870
  Basis Set: 6-31G*
  Basis Set:
  Basis Set: 6-31G*
  Basis Set:
  @DF-RHF Final Energy:  -387.12259557339223
    Total Energy =                       -387.1225955733915498
  Basis Set: 6-31G*
  Basis Set:
  Basis Set: 6-31G*
  Basis Set:
  @DF-RHF Final Energy:  -387.12260501809004
    Total Energy =                       -387.1226050180904394
  Basis Set: 6-31G*
  Basis Set:
  Charge       = 0
  Multiplicity = 1
  Basis Set: 6-31G*
  Basis Set:

    Orbital Energies (a.u.)
    -----------------------

    Doubly Occupied:

       1A    -20.564842     2A    -11.329480     3A    -11.237779
       4A    -11.222692     5A    -11.212554     6A    -11.211182
       7A    -11.210628     8A    -11.210093     9A    -11.206241
      10A     -1.405037    11A     -1.094184    12A     -1.063224
      13A     -1.009111    14A     -0.941129    15A     -0.875256
      16A     -0.814179    17A     -0.776231    18A     -0.765813
      19A     -0.686312    20A     -0.649603    21A     -0.628870
      22A     -0.617977    23A     -0.606052    24A     -0.587943
      25A     -0.559488    26A     -0.548126    27A     -0.534658
      28A     -0.514592    29A     -0.502933    30A     -0.497275
      31A     -0.478131    32A     -0.472277    33A     -0.457312
      34A     -0.451940    35A     -0.436012    36A     -0.409785

  @DF-RHF Final Energy:  -387.12260422392825

   => Energetics <=

    Nuclear Repulsion Energy =            443.6395497825959069
    One-Electron Energy =               -1403.9464239682365587
    Two-Electron Energy =                 573.1842699617120616
    DFT Exchange-Correlation Energy =       0.0000000000000000
    Empirical Dispersion Energy =           0.0000000000000000
    PCM Polarization Energy =               0.0000000000000000
    EFP Energy =                            0.0000000000000000
    Total Energy =                       -387.1226042239286471
    Molecular point group: c1
  Basis Set: 6-31G*
  Basis Set:

  -Total Gradient:
     Atom            X                  Y                   Z
    ------   -----------------  -----------------  -----------------
       1        0.000035393815     0.000032292795     0.000004232235
       2        0.002754172766    -0.001353918300    -0.000496388459
       3        0.000177822934     0.001231446953     0.002045763160
       4       -0.002028090852     0.000821307490     0.000049275619
       5        0.000094884469    -0.000016885425     0.000026096243
       6       -0.001055847388    -0.000607100835    -0.001606378435
       7        0.000003917135     0.000002213885    -0.000040911448
       8        0.000058050290     0.000132343004    -0.000015384938
       9        0.000037237333    -0.000056199376    -0.000007213391
      10       -0.000006618851    -0.000048694972    -0.000026114701
      11        0.000003233324    -0.000039324446    -0.000001255336
      12       -0.000003070072    -0.000039107052     0.000054305522
      13       -0.000056752082    -0.000102838349    -0.000014857518
      14       -0.000011626762     0.000043894401    -0.000004548564
      15       -0.000000360789    -0.000000394091     0.000035121427
      16       -0.000008626635     0.000005726656     0.000004621759
      17        0.000019751738    -0.000011814377     0.000002755577
      18       -0.000002676553     0.000005717884    -0.000006433305
      19       -0.000000511363     0.000002069360    -0.000000893340
      20       -0.000006698445     0.000003264695     0.000000506538
      21        0.000001038851    -0.000003783030     0.000005393350
      22        0.000004801138     0.000000665725    -0.000000234331
      23        0.000001089015     0.000004106208     0.000001996462
      24       -0.000006036528    -0.000003088066    -0.000011030152
      25       -0.000004476486    -0.000001900733     0.000001576015

  **** Optimization is complete! (in 9 steps) ****
    Final optimized geometry and variables:
    Molecular point group: c1

    Geometry (in Angstrom), charge = 0, multiplicity = 1:

    H            0.515284466181    -0.588218231217     4.538476309534
    C            0.473578203119    -0.669327606972     3.446026605987
    C            0.949501857116     0.555717085542     2.704391632716
    O            0.055111811515    -1.660419755992     2.940676427157
    C            1.151902982133     0.361691622410     1.199266681420
    H            0.213786451339     1.339061796129     2.888886193392
    H            1.867286642818     0.889118990383     3.184361988347
    C           -0.150946317204     0.330487656063     0.396216591817
    H            1.775289582378     1.173419710154     0.832681719621
    H            1.706218127696    -0.556776490635     1.030912262183
    C            0.084530434746     0.153352067292    -1.105111368970
    H           -0.695122310472     1.259081747097     0.565897707420
    H           -0.780584666937    -0.473401356565     0.761438959099
    C           -1.216867259115     0.143363606658    -1.911587321515
    H            0.736282716293     0.948439921158    -1.459535570957
    H            0.617965446427    -0.780399713706    -1.275327654080
    C           -1.040614129852    -0.131055625017    -3.409457507996
    H           -1.729762813894     1.095171963239    -1.780307814522
    H           -1.876197624918    -0.616084493317    -1.496959713310
    C           -0.283833060951     0.958775726641    -4.170973565534
    H           -2.025049197911    -0.248179505440    -3.856002855918
    H           -0.532576771727    -1.083993456524    -3.542548347916
    H           -0.762174826614     1.926579951211    -4.045149563975
    H            0.743408560937     1.051213525393    -3.834311398474
    H           -0.258801852007     0.739648889740    -5.234094780174

  Mulliken Charges: (a.u.)
   Center  Symbol    Alpha    Beta     Spin     Total
       1     H     0.42795  0.42795  0.00000  0.14411
       2     C     2.83550  2.83550  0.00000  0.32900
       3     C     3.21474  3.21474  0.00000 -0.42948
       4     O     4.23760  4.23760  0.00000 -0.47521
       5     C     3.15196  3.15196  0.00000 -0.30392
       6     H     0.40500  0.40500  0.00000  0.19001
       7     H     0.40756  0.40756  0.00000  0.18489
       8     C     3.15686  3.15686  0.00000 -0.31372
       9     H     0.41967  0.41967  0.00000  0.16067
      10     H     0.41144  0.41144  0.00000  0.17713
      11     C     3.15487  3.15487  0.00000 -0.30974
      12     H     0.42798  0.42798  0.00000  0.14404
      13     H     0.40451  0.40451  0.00000  0.19099
      14     C     3.15274  3.15274  0.00000 -0.30547
      15     H     0.42379  0.42379  0.00000  0.15241
      16     H     0.42174  0.42174  0.00000  0.15652
      17     C     3.15237  3.15237  0.00000 -0.30475
      18     H     0.42549  0.42549  0.00000  0.14902
      19     H     0.42021  0.42021  0.00000  0.15957
      20     C     3.24100  3.24100  0.00000 -0.48199
      21     H     0.42128  0.42128  0.00000  0.15743
      22     H     0.42280  0.42280  0.00000  0.15440
      23     H     0.42294  0.42294  0.00000  0.15411
      24     H     0.42041  0.42041  0.00000  0.15918
      25     H     0.41960  0.41960  0.00000  0.16081

   Total alpha = 36.00000, Total beta = 36.00000, Total charge =  0.00000
