  ==> Input File <==

--------------------------------------------------------------------------
set {
	reference rhf
	basis cc-pvtz
}

set_num_threads( 4 )
memory 2 gb

molecule MOL {
0 1

H	 3.721907	 -0.933076	 -0.066039
O	 2.824271	 -1.154299	 0.131461
C	 2.076458	 -0.067370	 -0.038225
C	 0.626018	 -0.337582	 0.258241
O	 2.538288	 0.965419	 -0.381593
C	 -0.267326	 0.883135	 0.076490
H	 0.325620	 -1.161483	 -0.378003
H	 0.574537	 -0.713685	 1.275261
C	 -1.726822	 0.642622	 0.463839
H	 -0.210803	 1.217591	 -0.953497
H	 0.129920	 1.693110	 0.675679
C	 -2.480891	 -0.340606	 -0.429852
H	 -2.243098	 1.597649	 0.438609
H	 -1.776542	 0.301208	 1.495542
C	 -3.995171	 -0.215425	 -0.296583
H	 -2.195493	 -0.172396	 -1.464882
H	 -2.190714	 -1.359574	 -0.194360
H	 -4.505672	 -0.921245	 -0.941478
H	 -4.330316	 0.780762	 -0.564890
H	 -4.315184	 -0.407233	 0.722218

	symmetry c1
}
set optking {
	frozen_dihedral = ("
		16 12 9 6
	")
}

ee = optimize('scf')
oeprop('DIPOLE', 'QUADRUPOLE', 'MULLIKEN_CHARGES')
f=open( 'psi4out.xyz', 'w' )
f.write( "20  " )
f.write( str(ee) + "\n" )
f.write( MOL.save_string_xyz() )
f.close()
--------------------------------------------------------------------------

    Molecular point group: c1
  Charge       = 0
  Multiplicity = 1
  Basis Set: CC-PVTZ
  Basis Set:
  @DF-RHF Final Energy:  -384.09427495748815
    Total Energy =                       -384.0942749574886079
    Molecular point group: c1
  Basis Set: CC-PVTZ
  Basis Set:
  Basis Set: CC-PVTZ
  Basis Set:
  @DF-RHF Final Energy:  -384.09430979687482
    Total Energy =                       -384.0943097968742563
  Basis Set: CC-PVTZ
  Basis Set:
  Basis Set: CC-PVTZ
  Basis Set:
  @DF-RHF Final Energy:  -384.09439034709180
    Total Energy =                       -384.0943903470915188
  Basis Set: CC-PVTZ
  Basis Set:
  Basis Set: CC-PVTZ
  Basis Set:
  @DF-RHF Final Energy:  -384.09438843746437
    Total Energy =                       -384.0943884374646018
  Basis Set: CC-PVTZ
  Basis Set:
  Basis Set: CC-PVTZ
  Basis Set:
  @DF-RHF Final Energy:  -384.09440167653571
    Total Energy =                       -384.0944016765360516
  Basis Set: CC-PVTZ
  Basis Set:
  Basis Set: CC-PVTZ
  Basis Set:
  @DF-RHF Final Energy:  -384.09440406815480
    Total Energy =                       -384.0944040681550860
  Basis Set: CC-PVTZ
  Basis Set:
  Charge       = 0
  Multiplicity = 1
  Basis Set: CC-PVTZ
  Basis Set:

    Orbital Energies (a.u.)
    -----------------------

    Doubly Occupied:

       1A    -20.603798     2A    -20.540414     3A    -11.373311
       4A    -11.238529     5A    -11.221046     6A    -11.218826
       7A    -11.218140     8A    -11.210787     9A     -1.477368
      10A     -1.368880    11A     -1.097560    12A     -1.041849
      13A     -0.962642    14A     -0.870424    15A     -0.818590
      16A     -0.777356    17A     -0.703610    18A     -0.692465
      19A     -0.667356    20A     -0.636858    21A     -0.602741
      22A     -0.597955    23A     -0.576029    24A     -0.560236
      25A     -0.538836    26A     -0.514574    27A     -0.496106
      28A     -0.484382    29A     -0.472329    30A     -0.466791
      31A     -0.458363    32A     -0.446206

  @DF-RHF Final Energy:  -384.09440419088867

   => Energetics <=

    Nuclear Repulsion Energy =            376.7020107982633590
    One-Electron Energy =               -1269.6841204996449051
    Two-Electron Energy =                 508.8877055104933333
    DFT Exchange-Correlation Energy =       0.0000000000000000
    Empirical Dispersion Energy =           0.0000000000000000
    PCM Polarization Energy =               0.0000000000000000
    EFP Energy =                            0.0000000000000000
    Total Energy =                       -384.0944041908882127
    Molecular point group: c1
  Basis Set: CC-PVTZ
  Basis Set:

  -Total Gradient:
     Atom            X                  Y                   Z
    ------   -----------------  -----------------  -----------------
       1       -0.000004800086     0.000003757459     0.000001255330
       2       -0.000005662192    -0.000009952258    -0.000001876042
       3        0.000012184874    -0.000004301452     0.000005226479
       4        0.000011116288    -0.000006154083    -0.000014859382
       5       -0.000008099574     0.000006905118     0.000003224429
       6       -0.000507688931     0.001387653932    -0.001134575084
       7        0.000000651546    -0.000000046455     0.000005962169
       8        0.000006353360     0.000003073780     0.000003241019
       9        0.001157099164    -0.002350399195     0.001651072766
      10       -0.000001848196     0.000006225990    -0.000001152095
      11       -0.000004183816    -0.000004727697    -0.000001413620
      12       -0.002545141621     0.002605413046    -0.000802929096
      13       -0.000012776479     0.000009303897     0.000007732136
      14       -0.000004372837    -0.000010234691    -0.000014041358
      15        0.000011672822     0.000022242528    -0.000008906485
      16        0.001881739899    -0.001651774026     0.000306214532
      17        0.000008109600    -0.000013652393    -0.000003488087
      18        0.000008001333     0.000002963229    -0.000000305425
      19       -0.000010015951     0.000007086315     0.000001408022
      20        0.000007660796    -0.000003383044    -0.000001790207

  **** Optimization is complete! (in 7 steps) ****
    Final optimized geometry and variables:
    Molecular point group: c1

    Geometry (in Angstrom), charge = 0, multiplicity = 1:

    H            3.707356010329    -0.994199749538    -0.059186144480
    O            2.807614330520    -1.206193906379     0.138906896163
    C            2.073648234559    -0.107177949759    -0.012505369306
    C            0.620812360652    -0.362136249607     0.285256743038
    O            2.547439676473     0.924356934403    -0.343384558743
    C           -0.257147848096     0.873136374304     0.128866821152
    H            0.304389522286    -1.169459004948    -0.364974960011
    H            0.567234798170    -0.756630365705     1.295193920578
    C           -1.720792860480     0.635526948813     0.500164564304
    H           -0.194134481481     1.229556091368    -0.893065564336
    H            0.144577539719     1.665380906857     0.748580262439
    C           -2.459435405642    -0.361191259981    -0.395870371278
    H           -2.230982573338     1.592930884949     0.447663451449
    H           -1.792830469833     0.314038989439     1.536347203907
    C           -3.975550957058    -0.266852755553    -0.269117539884
    H           -2.162121879734    -0.207240929351    -1.429812504620
    H           -2.149692695392    -1.372965694523    -0.150563048778
    H           -4.468734045027    -1.006330585820    -0.889288312999
    H           -4.332946649229     0.711720194142    -0.570923153832
    H           -4.291907570433    -0.431182927836     0.755762052978

  Mulliken Charges: (a.u.)
   Center  Symbol    Alpha    Beta     Spin     Total
       1     H     0.38235  0.38235  0.00000  0.23531
       2     O     4.16026  4.16026  0.00000 -0.32051
       3     C     2.80386  2.80386  0.00000  0.39229
       4     C     3.11095  3.11095  0.00000 -0.22190
       5     O     4.19126  4.19126  0.00000 -0.38251
       6     C     3.09352  3.09352  0.00000 -0.18704
       7     H     0.43640  0.43640  0.00000  0.12721
       8     H     0.43785  0.43785  0.00000  0.12430
       9     C     3.09895  3.09895  0.00000 -0.19790
      10     H     0.44533  0.44533  0.00000  0.10933
      11     H     0.43952  0.43952  0.00000  0.12096
      12     C     3.09012  3.09012  0.00000 -0.18024
      13     H     0.44688  0.44688  0.00000  0.10625
      14     H     0.45235  0.45235  0.00000  0.09529
      15     C     3.14870  3.14870  0.00000 -0.29739
      16     H     0.45197  0.45197  0.00000  0.09606
      17     H     0.45354  0.45354  0.00000  0.09292
      18     H     0.44800  0.44800  0.00000  0.10399
      19     H     0.45366  0.45366  0.00000  0.09267
      20     H     0.45454  0.45454  0.00000  0.09093

   Total alpha = 32.00000, Total beta = 32.00000, Total charge = -0.00000
