  ==> Input File <==

--------------------------------------------------------------------------
set {
	reference rhf
	basis 6-31G*
}

set_num_threads( 4 )
memory 2 gb

molecule MOL {
0 1

H	 2.767257	 0.480405	 -0.709549
N	 2.332695	 -0.069570	 0.000000
C	 0.936681	 -0.007078	 0.000000
H	 2.701148	 -0.996401	 0.001546
C	 0.227108	 -0.002120	 -1.198267
C	 0.227108	 -0.002120	 1.198267
H	 0.761569	 -0.014657	 -2.132680
C	 -1.156334	 0.010459	 -1.192360
H	 0.761569	 -0.014657	 2.132680
C	 -1.156334	 0.010459	 1.192360
H	 -1.684791	 0.014915	 -2.129421
C	 -1.862085	 0.017996	 0.000000
H	 -1.684791	 0.014915	 2.129421
H	 -2.936703	 0.028387	 0.000000

	symmetry c1
}
set optking {
	frozen_dihedral = ("
		1 2 3 5
	")
}

ee = optimize('scf')
oeprop('DIPOLE', 'QUADRUPOLE', 'MULLIKEN_CHARGES')
f=open( 'psi4out.xyz', 'w' )
f.write( "14  " )
f.write( str(ee) + "\n" )
f.write( MOL.save_string_xyz() )
f.close()
--------------------------------------------------------------------------

    Molecular point group: c1
  Charge       = 0
  Multiplicity = 1
  Basis Set: 6-31G*
  Basis Set:
  @DF-RHF Final Energy:  -285.72386622400393
    Total Energy =                       -285.7238662240040412
    Molecular point group: c1
  Basis Set: 6-31G*
  Basis Set:
  Basis Set: 6-31G*
  Basis Set:
  @DF-RHF Final Energy:  -285.72484967069420
    Total Energy =                       -285.7248496706940841
  Basis Set: 6-31G*
  Basis Set:
  Basis Set: 6-31G*
  Basis Set:
  @DF-RHF Final Energy:  -285.72505225219828
    Total Energy =                       -285.7250522521981679
  Basis Set: 6-31G*
  Basis Set:
  Basis Set: 6-31G*
  Basis Set:
  @DF-RHF Final Energy:  -285.72509709518556
    Total Energy =                       -285.7250970951860154
  Basis Set: 6-31G*
  Basis Set:
  Basis Set: 6-31G*
  Basis Set:
  @DF-RHF Final Energy:  -285.72510093241260
    Total Energy =                       -285.7251009324126017
  Basis Set: 6-31G*
  Basis Set:
  Charge       = 0
  Multiplicity = 1
  Basis Set: 6-31G*
  Basis Set:

    Orbital Energies (a.u.)
    -----------------------

    Doubly Occupied:

       1A    -15.547084     2A    -11.259935     3A    -11.229388
       4A    -11.227631     5A    -11.224808     6A    -11.224480
       7A    -11.219861     8A     -1.205793     9A     -1.125850
      10A     -1.010971    11A     -0.985169    12A     -0.826069
      13A     -0.806416    14A     -0.700859    15A     -0.664445
      16A     -0.645619    17A     -0.621728    18A     -0.589905
      19A     -0.581668    20A     -0.505363    21A     -0.496691
      22A     -0.490492    23A     -0.410738    24A     -0.330625
      25A     -0.318594

  @DF-RHF Final Energy:  -285.72510143983550

   => Energetics <=

    Nuclear Repulsion Energy =            272.3901909213002455
    One-Electron Energy =                -925.7302189095812537
    Two-Electron Energy =                 367.6149265484456237
    DFT Exchange-Correlation Energy =       0.0000000000000000
    Empirical Dispersion Energy =           0.0000000000000000
    PCM Polarization Energy =               0.0000000000000000
    EFP Energy =                            0.0000000000000000
    Total Energy =                       -285.7251014398353846
    Molecular point group: c1
  Basis Set: 6-31G*
  Basis Set:

  -Total Gradient:
     Atom            X                  Y                   Z
    ------   -----------------  -----------------  -----------------
       1       -0.000008449049     0.001797323326     0.001456882377
       2       -0.000039331533    -0.003233980868    -0.001817017977
       3        0.000057654085     0.003296845069     0.000342439800
       4        0.000008498366    -0.000005325670    -0.000006909071
       5       -0.000032686835    -0.001873028730     0.000008328065
       6       -0.000014800819     0.000017875363     0.000008019356
       7       -0.000003071368    -0.000000393968     0.000004746171
       8        0.000015053440     0.000041164511     0.000002876107
       9       -0.000001935782    -0.000008408854    -0.000001971599
      10        0.000028366684    -0.000016927998    -0.000002930448
      11       -0.000003623931    -0.000005118208    -0.000003461860
      12       -0.000009073459    -0.000013461513     0.000003590683
      13       -0.000001578932     0.000006068156     0.000005430869
      14        0.000004979134    -0.000002630618    -0.000000022475

  **** Optimization is complete! (in 6 steps) ****
    Final optimized geometry and variables:
    Molecular point group: c1

    Geometry (in Angstrom), charge = 0, multiplicity = 1:

    H            2.767678657901     0.527736430890    -0.658582282487
    N            2.355487290446    -0.047430511636     0.048415205017
    C            0.928691610697    -0.008582850353    -0.000369745176
    H            2.707337072691    -0.979094152279    -0.054225978622
    C            0.221350636739    -0.006810186029    -1.196670755611
    C            0.225951546010     0.007062142009     1.196424968285
    H            0.757603463902    -0.028993079297    -2.130173491862
    C           -1.163762153569     0.027977309461    -1.195726432334
    H            0.778461889519     0.012830338176     2.117933244799
    C           -1.159237059655     0.024479327725     1.197914253886
    H           -1.697483568655     0.037058380829    -2.129590913911
    C           -1.859464699581     0.039242413084     0.002231508966
    H           -1.690842555570     0.036163571312     2.132918695020
    H           -2.934561508735     0.060664302511     0.003731738906

  Mulliken Charges: (a.u.)
   Center  Symbol    Alpha    Beta     Spin     Total
       1     H     0.32540  0.32540  0.00000  0.34920
       2     N     3.94234  3.94234  0.00000 -0.88468
       3     C     2.89807  2.89807  0.00000  0.20387
       4     H     0.32232  0.32232  0.00000  0.35536
       5     C     3.11238  3.11238  0.00000 -0.22477
       6     C     3.10030  3.10030  0.00000 -0.20059
       7     H     0.40349  0.40349  0.00000  0.19303
       8     C     3.09867  3.09867  0.00000 -0.19734
       9     H     0.39378  0.39378  0.00000  0.21245
      10     C     3.09900  3.09900  0.00000 -0.19800
      11     H     0.40016  0.40016  0.00000  0.19968
      12     C     3.10367  3.10367  0.00000 -0.20734
      13     H     0.39979  0.39979  0.00000  0.20041
      14     H     0.40063  0.40063  0.00000  0.19874

   Total alpha = 25.00000, Total beta = 25.00000, Total charge = -0.00000
