  ==> Input File <==

--------------------------------------------------------------------------
set {
	reference rhf
	basis cc-pvtz
}

set_num_threads( 4 )
memory 2 gb

molecule MOL {
0 1

H	 -3.565952	 0.490801	 -0.134363
O	 -3.095600	 -0.309735	 0.014854
C	 -1.769981	 -0.106225	 0.004177
C	 -1.218049	 1.151422	 -0.205898
C	 -0.952124	 -1.204427	 0.212134
H	 -1.859076	 1.998603	 -0.366512
C	 0.148085	 1.304296	 -0.206934
H	 -1.398088	 -2.165423	 0.372200
C	 0.413930	 -1.034413	 0.208092
H	 0.586260	 2.269292	 -0.367848
C	 0.981121	 0.213562	 0.000000
H	 1.049384	 -1.885718	 0.369324
C	 2.447402	 0.371303	 0.000000
O	 3.227427	 -0.521847	 0.000000
H	 2.796538	 1.409525	 0.000000

	symmetry c1
}
set optking {
	frozen_dihedral = ("
		7 11 13 14
	")
}

ee = optimize('scf')
oeprop('DIPOLE', 'QUADRUPOLE', 'MULLIKEN_CHARGES')
f=open( 'psi4out.xyz', 'w' )
f.write( "15  " )
f.write( str(ee) + "\n" )
f.write( MOL.save_string_xyz() )
f.close()
--------------------------------------------------------------------------

    Molecular point group: c1
  Charge       = 0
  Multiplicity = 1
  Basis Set: CC-PVTZ
  Basis Set:
  @DF-RHF Final Energy:  -418.44186398783546
    Total Energy =                       -418.4418639878355179
    Molecular point group: c1
  Basis Set: CC-PVTZ
  Basis Set:
  Basis Set: CC-PVTZ
  Basis Set:
  @DF-RHF Final Energy:  -418.44183729008512
    Total Energy =                       -418.4418372900848908
  Basis Set: CC-PVTZ
  Basis Set:
  Basis Set: CC-PVTZ
  Basis Set:
  @DF-RHF Final Energy:  -418.44188264045823
    Total Energy =                       -418.4418826404582887
  Basis Set: CC-PVTZ
  Basis Set:
  Basis Set: CC-PVTZ
  Basis Set:
  @DF-RHF Final Energy:  -418.44220015193127
    Total Energy =                       -418.4422001519308196
  Basis Set: CC-PVTZ
  Basis Set:
  Basis Set: CC-PVTZ
  Basis Set:
  @DF-RHF Final Energy:  -418.44220666532681
    Total Energy =                       -418.4422066653270349
  Basis Set: CC-PVTZ
  Basis Set:
  Charge       = 0
  Multiplicity = 1
  Basis Set: CC-PVTZ
  Basis Set:

    Orbital Energies (a.u.)
    -----------------------

    Doubly Occupied:

       1A    -20.605052     2A    -20.545731     3A    -11.322731
       4A    -11.322675     5A    -11.260604     6A    -11.251937
       7A    -11.242417     8A    -11.237074     9A    -11.236277
      10A     -1.438255    11A     -1.401980    12A     -1.175229
      13A     -1.046702    14A     -1.040356    15A     -0.897400
      16A     -0.861790    17A     -0.806145    18A     -0.761667
      19A     -0.699259    20A     -0.691164    21A     -0.642798
      22A     -0.629270    23A     -0.615439    24A     -0.611738
      25A     -0.587783    26A     -0.561899    27A     -0.554671
      28A     -0.509355    29A     -0.490420    30A     -0.421500
      31A     -0.361971    32A     -0.331975

  @DF-RHF Final Energy:  -418.44220810477839

   => Energetics <=

    Nuclear Repulsion Energy =            402.3051443232287738
    One-Electron Energy =               -1367.1681773496384267
    Two-Electron Energy =                 546.4208249216313789
    DFT Exchange-Correlation Energy =       0.0000000000000000
    Empirical Dispersion Energy =           0.0000000000000000
    PCM Polarization Energy =               0.0000000000000000
    EFP Energy =                            0.0000000000000000
    Total Energy =                       -418.4422081047782740
    Molecular point group: c1
  Basis Set: CC-PVTZ
  Basis Set:

  -Total Gradient:
     Atom            X                  Y                   Z
    ------   -----------------  -----------------  -----------------
       1       -0.000001699442     0.000001481725     0.000001386745
       2        0.000010450672    -0.000002139419    -0.000009662693
       3        0.000005746210     0.000020374618     0.000012730828
       4       -0.000025912022    -0.000007453195     0.000036234580
       5        0.000020499221    -0.000005582810    -0.000044860545
       6        0.000000424444    -0.000002065878     0.000004369100
       7        0.000032857649    -0.000338570843    -0.001830328637
       8       -0.000000228495    -0.000001343866    -0.000001301504
       9       -0.000039766415     0.000047426140     0.000086680563
      10       -0.000010202079    -0.000013495770     0.000013353069
      11       -0.000007321596     0.000456634341     0.001571522587
      12        0.000006121502    -0.000015564860    -0.000021441485
      13        0.000059390482    -0.000110812238     0.002347279744
      14       -0.000037172875    -0.000025681347    -0.002191330171
      15       -0.000013187252    -0.000003206599     0.000025367820

  **** Optimization is complete! (in 6 steps) ****
    Final optimized geometry and variables:
    Molecular point group: c1

    Geometry (in Angstrom), charge = 0, multiplicity = 1:

    H           -3.571281129357     0.514001208959    -0.154357409655
    O           -3.098790318523    -0.284906465613    -0.002314958702
    C           -1.774181371552    -0.076264183058    -0.003984811352
    C           -1.221280933748     1.174531729248    -0.207617383633
    C           -0.955767101855    -1.181797187798     0.209310600439
    H           -1.855019566008     2.025463309899    -0.375737040346
    C            0.152914517868     1.317243234158    -0.192323475928
    H           -1.409584702238    -2.140444313205     0.362969304037
    C            0.405233661775    -1.024684880690     0.214207119141
    H            0.581300023273     2.290142790938    -0.348559906577
    C            0.978321186466     0.230594273604     0.020059527649
    H            1.048109538214    -1.868745490640     0.367745659492
    C            2.443405088005     0.399633635620    -0.009388745569
    O            3.229990772384    -0.487181307074    -0.007600534911
    H            2.783157756744     1.440290927976    -0.055028869017

  Mulliken Charges: (a.u.)
   Center  Symbol    Alpha    Beta     Spin     Total
       1     H     0.38570  0.38570  0.00000  0.22859
       2     O     4.16577  4.16577  0.00000 -0.33153
       3     C     2.84365  2.84365  0.00000  0.31270
       4     C     3.13486  3.13486  0.00000 -0.26973
       5     C     3.10674  3.10674  0.00000 -0.21348
       6     H     0.43231  0.43231  0.00000  0.13539
       7     C     3.07417  3.07417  0.00000 -0.14834
       8     H     0.41550  0.41550  0.00000  0.16900
       9     C     3.06020  3.06020  0.00000 -0.12040
      10     H     0.42126  0.42126  0.00000  0.15748
      11     C     3.00120  3.00120  0.00000 -0.00240
      12     H     0.40762  0.40762  0.00000  0.18477
      13     C     2.91228  2.91228  0.00000  0.17544
      14     O     4.17765  4.17765  0.00000 -0.35530
      15     H     0.46109  0.46109  0.00000  0.07781

   Total alpha = 32.00000, Total beta = 32.00000, Total charge =  0.00000
