                              Psi4 1.0.54 Driver

  ==> Input File <==

--------------------------------------------------------------------------
set {
	reference rhf
	basis cc-pvtz
}

set_num_threads( 4 )
memory 2 gb

molecule MOL {
0 1

O	 -0.724030	 -0.112688	 2.433419
C	 -1.015046	 0.498001	 1.462094
C	 -1.849662	 1.747720	 1.453739
O	 -0.637375	 0.157174	 0.243149
H	 -2.731746	 1.591613	 0.846056
H	 -2.133956	 1.998995	 2.462538
H	 -1.285568	 2.558948	 1.011837
C	 0.162530	 -1.009518	 0.097799
C	 1.587210	 -0.664190	 0.477086
H	 0.096803	 -1.356267	 -0.924704
H	 -0.233803	 -1.785900	 0.736810
C	 2.256770	 0.342732	 -0.454344
H	 2.154716	 -1.590834	 0.479041
H	 1.598751	 -0.289614	 1.496104
C	 3.698146	 0.643205	 -0.057145
H	 2.235038	 -0.042575	 -1.470299
H	 1.683491	 1.262594	 -0.461300
H	 4.150202	 1.356548	 -0.736242
H	 4.305463	 -0.255904	 -0.069842
H	 3.749130	 1.061068	 0.942759

	symmetry c1
}
set optking {
	frozen_dihedral = ("
		2 4 8 10
	")
}

ee,wfn = optimize('scf', return_wfn=True)
oeprop( wfn, 'DIPOLE', 'QUADRUPOLE', 'MULLIKEN_CHARGES')
f=open( 'psi4out.xyz', 'w' )
f.write( "20  " )
f.write( str(ee) + "\n" )
f.write( MOL.save_string_xyz() )
f.close()
--------------------------------------------------------------------------

    Molecular point group: c1
  Charge       = 0
  Multiplicity = 1
  Basis Set: CC-PVTZ
  Basis Set:
  @DF-RHF Final Energy:  -384.08405238858796
    Total Energy =                       -384.0840523885875655
    Molecular point group: c1
  Basis Set: CC-PVTZ
  Basis Set:
  Basis Set: CC-PVTZ
  Basis Set:
  @DF-RHF Final Energy:  -384.08587920874498
    Total Energy =                       -384.0858792087452684
  Basis Set: CC-PVTZ
  Basis Set:
  Basis Set: CC-PVTZ
  Basis Set:
  @DF-RHF Final Energy:  -384.08612947546141
    Total Energy =                       -384.0861294754612345
  Basis Set: CC-PVTZ
  Basis Set:
  Basis Set: CC-PVTZ
  Basis Set:
  @DF-RHF Final Energy:  -384.08598813494825
    Total Energy =                       -384.0859881349485931
  Basis Set: CC-PVTZ
  Basis Set:
  Basis Set: CC-PVTZ
  Basis Set:
  @DF-RHF Final Energy:  -384.08620063219183
    Total Energy =                       -384.0862006321915487
  Basis Set: CC-PVTZ
  Basis Set:
  Basis Set: CC-PVTZ
  Basis Set:
  @DF-RHF Final Energy:  -384.08620214006675
    Total Energy =                       -384.0862021400666890
  Basis Set: CC-PVTZ
  Basis Set:
  Charge       = 0
  Multiplicity = 1
  Basis Set: CC-PVTZ
  Basis Set:

    Orbital Energies (a.u.)
    -----------------------

    Doubly Occupied:

       1A    -20.593828     2A    -20.532865     3A    -11.367648
       4A    -11.280600     5A    -11.231557     6A    -11.218981
       7A    -11.218003     8A    -11.210100     9A     -1.470070
      10A     -1.365400    11A     -1.083952    12A     -1.029346
      13A     -0.980122    14A     -0.888693    15A     -0.818815
      16A     -0.753185    17A     -0.699642    18A     -0.687142
      19A     -0.665485    20A     -0.632452    21A     -0.598592
      22A     -0.594236    23A     -0.572831    24A     -0.565888
      25A     -0.538624    26A     -0.525503    27A     -0.516569
      28A     -0.493127    29A     -0.474863    30A     -0.467836
      31A     -0.447198    32A     -0.439425

  @DF-RHF Final Energy:  -384.08620246198200

   => Energetics <=

    Nuclear Repulsion Energy =            392.2353253942517313
    One-Electron Energy =               -1300.7179028911277783
    Two-Electron Energy =                 524.3963750348947315
    DFT Exchange-Correlation Energy =       0.0000000000000000
    Empirical Dispersion Energy =           0.0000000000000000
    PCM Polarization Energy =               0.0000000000000000
    EFP Energy =                            0.0000000000000000
    Total Energy =                       -384.0862024619813155
    Molecular point group: c1
  Basis Set: CC-PVTZ
  Basis Set:

  -Total Gradient:
     Atom            X                  Y                   Z
    ------   -----------------  -----------------  -----------------
       1       -0.000023423763     0.000045213834    -0.000080048141
       2        0.000959907852     0.000522906518     0.000183033231
       3        0.000047842861     0.000031992428     0.000032684957
       4       -0.001171329852    -0.000697103179    -0.000236132786
       5       -0.000009841442    -0.000010007699     0.000006115583
       6       -0.000001946306    -0.000001613115    -0.000018086391
       7       -0.000026968248    -0.000016364220    -0.000005028402
       8       -0.000813057806    -0.000555812611     0.000323725094
       9        0.000020643337    -0.000001052300    -0.000016876588
      10        0.001010275525     0.000677916880    -0.000214107248
      11        0.000010666544     0.000003435015    -0.000000723691
      12       -0.000007938729     0.000001739494     0.000009703661
      13        0.000009711303    -0.000007765512     0.000010345041
      14       -0.000000895117     0.000006857358     0.000012218062
      15       -0.000005198499    -0.000012937959     0.000000228922
      16        0.000003492558     0.000008937887    -0.000005106485
      17       -0.000001976664     0.000001609503     0.000000820137
      18        0.000000446480     0.000001965584    -0.000000908972
      19        0.000001503162    -0.000000102333     0.000004181438
      20       -0.000001913202     0.000000184426    -0.000006037422

  **** Optimization is complete! (in 7 steps) ****
    Final optimized geometry and variables:
    Molecular point group: c1

    Geometry (in Angstrom), charge = 0, multiplicity = 1:

    O           -1.304110867568    -0.288376952229     1.687128139644
    C           -1.493427532126     0.368216186417     0.720315085409
    C           -2.263107347820     1.658817195775     0.702784807665
    O           -1.058032367708     0.049317391566    -0.485443959832
    H           -3.102934467973     1.570973875667     0.025764472166
    H           -2.609497946320     1.886847215523     1.697598637840
    H           -1.628598927455     2.455731089827     0.336938174550
    C           -0.294052118014    -1.141587411017    -0.647131618511
    C            1.162589948045    -0.965500800449    -0.253974109751
    H           -0.371520113940    -1.368646434389    -1.700721373530
    H           -0.751933243474    -1.934604386800    -0.076442723913
    C            1.911986047203     0.068040351776    -1.091002845988
    H            1.640057397602    -1.935850401137    -0.364824306372
    H            1.220477253006    -0.711616768330     0.797560931762
    C            3.375100563544     0.204455965561    -0.683279208360
    H            1.853945247402    -0.208658732498    -2.140463136355
    H            1.421644010824     1.031355281926    -1.002820363431
    H            3.884231581070     0.941743464641    -1.293007038040
    H            3.902698061507    -0.737201893233    -0.793294249772
    H            3.464810059034     0.512608567785     0.352888364115

  Mulliken Charges: (a.u.)
   Center  Symbol    Alpha    Beta     Spin     Total
       1     O     4.19863  4.19863  0.00000 -0.39727
       2     C     2.80479  2.80479  0.00000  0.39042
       3     C     3.13827  3.13827  0.00000 -0.27653
       4     O     4.16037  4.16037  0.00000 -0.32073
       5     H     0.44517  0.44517  0.00000  0.10967
       6     H     0.43817  0.43817  0.00000  0.12367
       7     H     0.44636  0.44636  0.00000  0.10728
       8     C     2.99557  2.99557  0.00000  0.00886
       9     C     3.10703  3.10703  0.00000 -0.21405
      10     H     0.44491  0.44491  0.00000  0.11018
      11     H     0.43921  0.43921  0.00000  0.12157
      12     C     3.08369  3.08369  0.00000 -0.16738
      13     H     0.44745  0.44745  0.00000  0.10509
      14     H     0.43835  0.43835  0.00000  0.12330
      15     C     3.14945  3.14945  0.00000 -0.29891
      16     H     0.45632  0.45632  0.00000  0.08737
      17     H     0.44985  0.44985  0.00000  0.10030
      18     H     0.44787  0.44787  0.00000  0.10425
      19     H     0.45530  0.45530  0.00000  0.08941
      20     H     0.45326  0.45326  0.00000  0.09348

   Total alpha = 32.00000, Total beta = 32.00000, Total charge =  0.00000

*** Psi4 exiting successfully. Buy a developer a beer!
