  ==> Input File <==

--------------------------------------------------------------------------
set {
	reference rhf
	basis 6-31G*
}

set_num_threads( 4 )
memory 2 gb

molecule MOL {
0 1

H	 -4.080290	 -0.194313	 0.536820
O	 -3.517110	 -0.026191	 -0.205115
C	 -2.306886	 0.532354	 0.237577
C	 -1.177863	 -0.397191	 -0.171080
H	 -2.156308	 1.517575	 -0.201710
H	 -2.315015	 0.655684	 1.319734
C	 0.198102	 0.111031	 0.262842
H	 -1.208843	 -0.518759	 -1.250427
H	 -1.368741	 -1.376554	 0.258909
C	 1.331804	 -0.827780	 -0.158768
H	 0.361943	 1.100838	 -0.156218
H	 0.217265	 0.229072	 1.345532
C	 2.723619	 -0.410569	 0.329459
H	 1.342964	 -0.912588	 -1.244120
H	 1.116806	 -1.824343	 0.220779
C	 3.243875	 0.895854	 -0.272975
H	 3.424222	 -1.207124	 0.091250
H	 2.714788	 -0.329854	 1.414619
H	 3.251977	 0.848779	 -1.358681
H	 2.637085	 1.747371	 0.016682
H	 4.259473	 1.094070	 0.055697

	symmetry c1
}
set optking {
	frozen_dihedral = ("
		1 2 3 5
	")
}

ee = optimize('scf')
oeprop('DIPOLE', 'QUADRUPOLE', 'MULLIKEN_CHARGES')
f=open( 'psi4out.xyz', 'w' )
f.write( "21  " )
f.write( str(ee) + "\n" )
f.write( MOL.save_string_xyz() )
f.close()
--------------------------------------------------------------------------

    Molecular point group: c1
  Charge       = 0
  Multiplicity = 1
  Basis Set: 6-31G*
  Basis Set:
  @DF-RHF Final Energy:  -310.21036468084930
    Total Energy =                       -310.2103646808490112
    Molecular point group: c1
  Basis Set: 6-31G*
  Basis Set:
  Basis Set: 6-31G*
  Basis Set:
  @DF-RHF Final Energy:  -310.21077694284884
    Total Energy =                       -310.2107769428484403
  Basis Set: 6-31G*
  Basis Set:
  Basis Set: 6-31G*
  Basis Set:
  @DF-RHF Final Energy:  -310.21087040871760
    Total Energy =                       -310.2108704087177102
  Basis Set: 6-31G*
  Basis Set:
  Basis Set: 6-31G*
  Basis Set:
  @DF-RHF Final Energy:  -310.21087140907605
    Total Energy =                       -310.2108714090755939
  Basis Set: 6-31G*
  Basis Set:
  Charge       = 0
  Multiplicity = 1
  Basis Set: 6-31G*
  Basis Set:

    Orbital Energies (a.u.)
    -----------------------

    Doubly Occupied:

       1A    -20.550450     2A    -11.267447     3A    -11.216009
       4A    -11.215581     5A    -11.214162     6A    -11.210514
       7A    -11.208316     8A     -1.356925     9A     -1.086471
      10A     -1.033129    11A     -0.954457    12A     -0.876792
      13A     -0.810146    14A     -0.779007    15A     -0.699623
      16A     -0.650086    17A     -0.618646    18A     -0.609516
      19A     -0.586627    20A     -0.568672    21A     -0.541580
      22A     -0.524656    23A     -0.502249    24A     -0.495332
      25A     -0.471694    26A     -0.462607    27A     -0.460413
      28A     -0.455915    29A     -0.420446

  @DF-RHF Final Energy:  -310.21087141667959

   => Energetics <=

    Nuclear Repulsion Energy =            312.1046874954598138
    One-Electron Energy =               -1038.9361850995651366
    Two-Electron Energy =                 416.6206261874257848
    DFT Exchange-Correlation Energy =       0.0000000000000000
    Empirical Dispersion Energy =           0.0000000000000000
    PCM Polarization Energy =               0.0000000000000000
    EFP Energy =                            0.0000000000000000
    Total Energy =                       -310.2108714166795949
    Molecular point group: c1
  Basis Set: 6-31G*
  Basis Set:

  -Total Gradient:
     Atom            X                  Y                   Z
    ------   -----------------  -----------------  -----------------
       1       -0.000068728854     0.000179743887    -0.000007181332
       2        0.000074503819    -0.000210130039     0.000042327717
       3        0.000067204643    -0.000051805192    -0.000161560656
       4       -0.000020101907     0.000009840257     0.000007097274
       5       -0.000067702763     0.000065089542     0.000124141221
       6       -0.000001109658     0.000002490616     0.000012274586
       7       -0.000010355837    -0.000000946907    -0.000021256465
       8        0.000004104746     0.000000976530     0.000005383122
       9       -0.000007065625    -0.000002891181    -0.000004722261
      10        0.000013150686     0.000010322656     0.000001451742
      11       -0.000005376438    -0.000010860496    -0.000000494425
      12        0.000007738638     0.000003062572    -0.000005144152
      13        0.000000400857    -0.000006236126     0.000013697885
      14        0.000002086894     0.000011096116    -0.000000317012
      15       -0.000006209348     0.000000609091    -0.000005557738
      16        0.000003413209     0.000000435162    -0.000003934012
      17        0.000000260220    -0.000000512596     0.000003475815
      18        0.000002330873     0.000002115253     0.000003353705
      19        0.000001106812     0.000001598791    -0.000001695822
      20        0.000010980087    -0.000002699098    -0.000001492043
      21       -0.000000631050    -0.000001298838     0.000000152851

  **** Optimization is complete! (in 5 steps) ****
    Final optimized geometry and variables:
    Molecular point group: c1

    Geometry (in Angstrom), charge = 0, multiplicity = 1:

    H           -4.122967440112    -0.145845560525     0.489732560712
    O           -3.539938900017     0.030981500619    -0.231833428547
    C           -2.307767647665     0.519705824860     0.244342516316
    C           -1.174481107312    -0.409491059670    -0.163719198653
    H           -2.148374132329     1.509943565694    -0.172138636757
    H           -2.328898879189     0.629444203869     1.326317100073
    C            0.201512698473     0.105303743881     0.262622333347
    H           -1.208818118111    -0.533495104728    -1.242814816841
    H           -1.357116352385    -1.391298597964     0.266660803160
    C            1.339016978436    -0.828669624745    -0.159620366469
    H            0.357992140299     1.094472164699    -0.160559592259
    H            0.225118651303     0.228316716505     1.345032164799
    C            2.730058535541    -0.403449584280     0.323988539800
    H            1.347594408433    -0.915678089545    -1.244781412825
    H            1.130241813293    -1.825668724666     0.222527685384
    C            3.242246975890     0.904040543887    -0.283001742118
    H            3.433985244965    -1.197123835911     0.085902729271
    H            2.723693033997    -0.320115770760     1.409011759689
    H            3.247749556759     0.854295912826    -1.368573853354
    H            2.632000870136     1.753241422323     0.006077538940
    H            4.257696259694     1.108047295541     0.042553135114

  Mulliken Charges: (a.u.)
   Center  Symbol    Alpha    Beta     Spin     Total
       1     H     0.27972  0.27972  0.00000  0.44056
       2     O     4.37425  4.37425  0.00000 -0.74851
       3     C     2.99219  2.99219  0.00000  0.01562
       4     C     3.15704  3.15704  0.00000 -0.31409
       5     H     0.42362  0.42362  0.00000  0.15276
       6     H     0.43278  0.43278  0.00000  0.13444
       7     C     3.16281  3.16281  0.00000 -0.32561
       8     H     0.41433  0.41433  0.00000  0.17134
       9     H     0.42204  0.42204  0.00000  0.15592
      10     C     3.15142  3.15142  0.00000 -0.30284
      11     H     0.42043  0.42043  0.00000  0.15914
      12     H     0.42542  0.42542  0.00000  0.14916
      13     C     3.15244  3.15244  0.00000 -0.30489
      14     H     0.42265  0.42265  0.00000  0.15470
      15     H     0.42176  0.42176  0.00000  0.15648
      16     C     3.24121  3.24121  0.00000 -0.48243
      17     H     0.42068  0.42068  0.00000  0.15864
      18     H     0.42382  0.42382  0.00000  0.15236
      19     H     0.42176  0.42176  0.00000  0.15648
      20     H     0.42038  0.42038  0.00000  0.15924
      21     H     0.41924  0.41924  0.00000  0.16152

   Total alpha = 29.00000, Total beta = 29.00000, Total charge = -0.00000
