  ==> Input File <==

--------------------------------------------------------------------------
set {
	reference rhf
	basis cc-pvtz
}

set_num_threads( 4 )
memory 2 gb

molecule MOL {
0 1

H	 -0.087738	 3.648097	 -1.953275
O	 -0.562633	 2.852071	 -2.107278
C	 -0.350886	 1.951114	 -1.056763
C	 1.037690	 1.345927	 -1.115048
H	 -0.502141	 2.422029	 -0.090590
H	 -1.088964	 1.168482	 -1.158794
O	 1.172093	 0.457955	 -0.054438
H	 1.790034	 2.133895	 -1.051942
H	 1.174074	 0.840253	 -2.068603
C	 2.395478	 -0.199028	 -0.000366
H	 2.505946	 -0.901710	 -0.823354
H	 3.174616	 0.545641	 -0.071768
H	 2.513730	 -0.742241	 0.934223

	symmetry c1
}
set optking {
	frozen_dihedral = ("
		4 7 10 13
	")
}

ee = optimize('scf')
oeprop('DIPOLE', 'QUADRUPOLE', 'MULLIKEN_CHARGES')
f=open( 'psi4out.xyz', 'w' )
f.write( "13  " )
f.write( str(ee) + "\n" )
f.write( MOL.save_string_xyz() )
f.close()
--------------------------------------------------------------------------

    Molecular point group: c1
  Charge       = 0
  Multiplicity = 1
  Basis Set: CC-PVTZ
  Basis Set:
  @DF-RHF Final Energy:  -268.06109636913919
    Total Energy =                       -268.0610963691393636
    Molecular point group: c1
  Basis Set: CC-PVTZ
  Basis Set:
  Basis Set: CC-PVTZ
  Basis Set:
  @DF-RHF Final Energy:  -268.06186983281640
    Total Energy =                       -268.0618698328163418
  Basis Set: CC-PVTZ
  Basis Set:
  Basis Set: CC-PVTZ
  Basis Set:
  @DF-RHF Final Energy:  -268.06207543392975
    Total Energy =                       -268.0620754339296923
  Basis Set: CC-PVTZ
  Basis Set:
  Charge       = 0
  Multiplicity = 1
  Basis Set: CC-PVTZ
  Basis Set:

    Orbital Energies (a.u.)
    -----------------------

    Doubly Occupied:

       1A    -20.555854     2A    -20.552865     3A    -11.269331
       4A    -11.267782     5A    -11.267474     6A     -1.391876
       7A     -1.369252     8A     -1.019743     9A     -0.914028
      10A     -0.842886    11A     -0.711938    12A     -0.676580
      13A     -0.663073    14A     -0.639056    15A     -0.598444
      16A     -0.570067    17A     -0.547981    18A     -0.490688
      19A     -0.483928    20A     -0.441705    21A     -0.424516

  @DF-RHF Final Energy:  -268.06207637331556

   => Energetics <=

    Nuclear Repulsion Energy =            190.4981429998548208
    One-Electron Energy =                -743.7223031101684683
    Two-Electron Energy =                 285.1620837369980563
    DFT Exchange-Correlation Energy =       0.0000000000000000
    Empirical Dispersion Energy =           0.0000000000000000
    PCM Polarization Energy =               0.0000000000000000
    EFP Energy =                            0.0000000000000000
    Total Energy =                       -268.0620763733155627
    Molecular point group: c1
  Basis Set: CC-PVTZ
  Basis Set:

  -Total Gradient:
     Atom            X                  Y                   Z
    ------   -----------------  -----------------  -----------------
       1        0.000005541357     0.000008611057    -0.000001587521
       2        0.000087852339    -0.000063388329     0.000058418668
       3       -0.000065500639    -0.000066228501     0.000076377781
       4        0.000528044649     0.000804401136     0.000516087110
       5       -0.000014653016     0.000025678169     0.000000216790
       6       -0.000008621332    -0.000007186690     0.000005303052
       7       -0.000481257317    -0.000872828513    -0.000742009078
       8        0.000010716361    -0.000013361255     0.000025728572
       9        0.000003393300    -0.000006932090    -0.000008131309
      10       -0.000494351959    -0.000977177812    -0.000484620491
      11       -0.000049616057     0.000022375687    -0.000007519441
      12       -0.000028893334     0.000026160022    -0.000007002404
      13        0.000507345651     0.001119877116     0.000568738272

  **** Optimization is complete! (in 4 steps) ****
    Final optimized geometry and variables:
    Molecular point group: c1

    Geometry (in Angstrom), charge = 0, multiplicity = 1:

    H           -0.840332047038     2.341752623706    -1.063713522421
    O           -1.311371459052     1.544046680484    -1.220930081530
    C           -1.094429893223     0.639713218023    -0.174467090769
    C            0.297584727005     0.042956474873    -0.236063259811
    H           -1.247573499873     1.105653545614     0.793858959297
    H           -1.828309226058    -0.146460193399    -0.279469015906
    O            0.438777450884    -0.844000499706     0.824461299571
    H            1.045633903160     0.834609392543    -0.172534452480
    H            0.434979740591    -0.460344197713    -1.190942145006
    C            1.662598200642    -1.501236839512     0.873206696457
    H            1.760041170351    -2.221408462136     0.064720467800
    H            2.491637517692    -0.799743024850     0.811375073049
    H            1.724249513413    -2.017761802859     1.819943929293

  Mulliken Charges: (a.u.)
   Center  Symbol    Alpha    Beta     Spin     Total
       1     H     0.39405  0.39405  0.00000  0.21190
       2     O     4.20214  4.20214  0.00000 -0.40428
       3     C     2.97350  2.97350  0.00000  0.05301
       4     C     2.96509  2.96509  0.00000  0.06982
       5     H     0.46700  0.46700  0.00000  0.06601
       6     H     0.45259  0.45259  0.00000  0.09481
       7     O     4.17570  4.17570  0.00000 -0.35139
       8     H     0.48125  0.48125  0.00000  0.03751
       9     H     0.47037  0.47037  0.00000  0.05927
      10     C     3.03135  3.03135  0.00000 -0.06269
      11     H     0.46750  0.46750  0.00000  0.06500
      12     H     0.47296  0.47296  0.00000  0.05409
      13     H     0.44653  0.44653  0.00000  0.10695

   Total alpha = 21.00000, Total beta = 21.00000, Total charge = -0.00000
