  ==> Input File <==

--------------------------------------------------------------------------
set {
	reference rhf
	basis cc-pvtz
}

set_num_threads( 4 )
memory 2 gb

molecule MOL {
0 1

O	 1.333054	 -2.743886	 0.403399
C	 0.418092	 -2.017797	 0.214932
C	 -1.023549	 -2.438004	 0.187501
O	 0.550743	 -0.719877	 0.000412
H	 -1.574600	 -1.894063	 0.943725
H	 -1.094228	 -3.498439	 0.366430
H	 -1.454897	 -2.192028	 -0.774201
C	 1.863204	 -0.194033	 0.000410
H	 2.031502	 0.409177	 -0.879273
H	 2.524488	 -1.045142	 0.000793
H	 2.031291	 0.409823	 0.879686

	symmetry c1
}
set optking {
	frozen_dihedral = ("
		2 4 8 9
	")
}

ee = optimize('scf')
oeprop('DIPOLE', 'QUADRUPOLE', 'MULLIKEN_CHARGES')
f=open( 'psi4out.xyz', 'w' )
f.write( "11  " )
f.write( str(ee) + "\n" )
f.write( MOL.save_string_xyz() )
f.close()
--------------------------------------------------------------------------

    Molecular point group: c1
  Charge       = 0
  Multiplicity = 1
  Basis Set: CC-PVTZ
  Basis Set:
  @DF-RHF Final Energy:  -266.93536547746783
    Total Energy =                       -266.9353654774678830
    Molecular point group: c1
  Basis Set: CC-PVTZ
  Basis Set:
  Basis Set: CC-PVTZ
  Basis Set:
  @DF-RHF Final Energy:  -266.93643691566899
    Total Energy =                       -266.9364369156688781
  Basis Set: CC-PVTZ
  Basis Set:
  Basis Set: CC-PVTZ
  Basis Set:
  @DF-RHF Final Energy:  -266.93723858011043
    Total Energy =                       -266.9372385801106020
  Basis Set: CC-PVTZ
  Basis Set:
  Basis Set: CC-PVTZ
  Basis Set:
  @DF-RHF Final Energy:  -266.93697700756968
    Total Energy =                       -266.9369770075697943
  Basis Set: CC-PVTZ
  Basis Set:
  Basis Set: CC-PVTZ
  Basis Set:
  @DF-RHF Final Energy:  -266.93728123756409
    Total Energy =                       -266.9372812375642070
  Basis Set: CC-PVTZ
  Basis Set:
  Charge       = 0
  Multiplicity = 1
  Basis Set: CC-PVTZ
  Basis Set:

    Orbital Energies (a.u.)
    -----------------------

    Doubly Occupied:

       1A    -20.597655     2A    -20.534569     3A    -11.370159
       4A    -11.278476     5A    -11.232639     6A     -1.471683
       7A     -1.368219     8A     -1.036985     9A     -0.954070
      10A     -0.779085    11A     -0.699360    12A     -0.682296
      13A     -0.680944    14A     -0.598178    15A     -0.592531
      16A     -0.561486    17A     -0.530975    18A     -0.520418
      19A     -0.458563    20A     -0.446163

  @DF-RHF Final Energy:  -266.93728239093218

   => Energetics <=

    Nuclear Repulsion Energy =            183.2511520559438623
    One-Electron Energy =                -727.5879664333842811
    Two-Electron Energy =                 277.3995319865081228
    DFT Exchange-Correlation Energy =       0.0000000000000000
    Empirical Dispersion Energy =           0.0000000000000000
    PCM Polarization Energy =               0.0000000000000000
    EFP Energy =                            0.0000000000000000
    Total Energy =                       -266.9372823909322960
    Molecular point group: c1
  Basis Set: CC-PVTZ
  Basis Set:

  -Total Gradient:
     Atom            X                  Y                   Z
    ------   -----------------  -----------------  -----------------
       1        0.000028504273     0.000096415137     0.000006153631
       2        0.000037012894    -0.000116859173    -0.000636986575
       3       -0.000030449926    -0.000002174952     0.000021280416
       4        0.000040074911     0.000072289152     0.000788806483
       5       -0.000002131124    -0.000005833804    -0.000004290261
       6       -0.000005053338    -0.000000287302     0.000001481802
       7       -0.000001097624     0.000001218727    -0.000001037024
       8       -0.000298145449     0.000506714721     0.000157642068
       9        0.000195101384    -0.000534621788    -0.000324283709
      10        0.000055699548    -0.000014978698    -0.000000116338
      11       -0.000019515551    -0.000001882022    -0.000008650493

  **** Optimization is complete! (in 6 steps) ****
    Final optimized geometry and variables:
    Molecular point group: c1

    Geometry (in Angstrom), charge = 0, multiplicity = 1:

    O            0.664125064102    -1.174507112653     0.244241010257
    C           -0.225647980899    -0.418286613195     0.056503985332
    C           -1.678300535724    -0.799911967453     0.019627320029
    O           -0.069760138851     0.880006881914    -0.147936943484
    H           -2.217494273291    -0.246955571808     0.777802147153
    H           -1.777992759299    -1.859395337171     0.190154106009
    H           -2.098582902137    -0.534691059231    -0.941805526498
    C            1.232841881198     1.433408277090    -0.163649938217
    H            1.319846982316     2.032063330460    -1.057767159323
    H            1.980013415431     0.658756069999    -0.162055062092
    H            1.351958589765     2.061689956535     0.707325436966

  Mulliken Charges: (a.u.)
   Center  Symbol    Alpha    Beta     Spin     Total
       1     O     4.19705  4.19705  0.00000 -0.39411
       2     C     2.79797  2.79797  0.00000  0.40405
       3     C     3.13942  3.13942  0.00000 -0.27884
       4     O     4.15004  4.15004  0.00000 -0.30008
       5     H     0.44556  0.44556  0.00000  0.10887
       6     H     0.43800  0.43800  0.00000  0.12401
       7     H     0.44579  0.44579  0.00000  0.10843
       8     C     3.03701  3.03701  0.00000 -0.07402
       9     H     0.45143  0.45143  0.00000  0.09713
      10     H     0.44345  0.44345  0.00000  0.11309
      11     H     0.45427  0.45427  0.00000  0.09147

   Total alpha = 20.00000, Total beta = 20.00000, Total charge = -0.00000
