  ==> Input File <==

--------------------------------------------------------------------------
set {
	reference rhf
	basis 6-31G*
}

set_num_threads( 4 )
memory 2 gb

molecule MOL {
0 1

H	 3.893188	 0.355400	 -0.101367
N	 3.092854	 -0.246221	 -0.068770
C	 1.865559	 0.531981	 0.018834
H	 3.199514	 -0.826043	 0.741946
C	 0.645745	 -0.382037	 -0.029944
H	 1.841966	 1.207024	 -0.831236
H	 1.815756	 1.155410	 0.915079
C	 -0.679275	 0.379305	 0.025956
H	 0.698998	 -0.976915	 -0.937203
H	 0.693479	 -1.083846	 0.802235
C	 -1.771008	 -0.246377	 -0.844110
H	 -0.517402	 1.408829	 -0.289841
H	 -1.028178	 0.428532	 1.056340
C	 -3.092044	 0.519958	 -0.788395
H	 -1.425173	 -0.295397	 -1.874260
H	 -1.936806	 -1.274464	 -0.529143
H	 -2.966217	 1.543505	 -1.130207
H	 -3.845131	 0.052578	 -1.415308
H	 -3.481851	 0.556683	 0.225061

	symmetry c1
}
set optking {
	frozen_dihedral = ("
		12 8 5 9
	")
}

ee = optimize('scf')
oeprop('DIPOLE', 'QUADRUPOLE', 'MULLIKEN_CHARGES')
f=open( 'psi4out.xyz', 'w' )
f.write( "19  " )
f.write( str(ee) + "\n" )
f.write( MOL.save_string_xyz() )
f.close()
--------------------------------------------------------------------------

    Molecular point group: c1
  Charge       = 0
  Multiplicity = 1
  Basis Set: 6-31G*
  Basis Set:
  @DF-RHF Final Energy:  -251.34828202822231
    Total Energy =                       -251.3482820282223429
    Molecular point group: c1
  Basis Set: 6-31G*
  Basis Set:
  Basis Set: 6-31G*
  Basis Set:
  @DF-RHF Final Energy:  -251.34852410413689
    Total Energy =                       -251.3485241041369136
  Basis Set: 6-31G*
  Basis Set:
  Basis Set: 6-31G*
  Basis Set:
  @DF-RHF Final Energy:  -251.34857676093964
    Total Energy =                       -251.3485767609395225
  Basis Set: 6-31G*
  Basis Set:
  Basis Set: 6-31G*
  Basis Set:
  @DF-RHF Final Energy:  -251.34858885785994
    Total Energy =                       -251.3485888578597951
  Basis Set: 6-31G*
  Basis Set:
  Basis Set: 6-31G*
  Basis Set:
  @DF-RHF Final Energy:  -251.34859309203514
    Total Energy =                       -251.3485930920353439
  Basis Set: 6-31G*
  Basis Set:
  Charge       = 0
  Multiplicity = 1
  Basis Set: 6-31G*
  Basis Set:

    Orbital Energies (a.u.)
    -----------------------

    Doubly Occupied:

       1A    -15.532581     2A    -11.240311     3A    -11.214055
       4A    -11.212608     5A    -11.209238     6A    -11.207286
       7A     -1.176838     8A     -1.071675     9A     -0.997688
      10A     -0.900331    11A     -0.814796    12A     -0.789352
      13A     -0.661966    14A     -0.637855    15A     -0.621344
      16A     -0.585174    17A     -0.569314    18A     -0.549072
      19A     -0.525644    20A     -0.502035    21A     -0.480026
      22A     -0.466364    23A     -0.454389    24A     -0.450755
      25A     -0.381065

  @DF-RHF Final Energy:  -251.34859333332577

   => Energetics <=

    Nuclear Repulsion Energy =            245.6735212679123492
    One-Electron Energy =                -825.5407022890661892
    Two-Electron Energy =                 328.5185876878278464
    DFT Exchange-Correlation Energy =       0.0000000000000000
    Empirical Dispersion Energy =           0.0000000000000000
    PCM Polarization Energy =               0.0000000000000000
    EFP Energy =                            0.0000000000000000
    Total Energy =                       -251.3485933333259368
    Molecular point group: c1
  Basis Set: 6-31G*
  Basis Set:

  -Total Gradient:
     Atom            X                  Y                   Z
    ------   -----------------  -----------------  -----------------
       1        0.000005892938    -0.000003439256    -0.000003115791
       2        0.000022523723     0.000013125004    -0.000020822061
       3       -0.000010129669    -0.000036126623     0.000047852824
       4       -0.000007134379     0.000005466705    -0.000003104804
       5        0.002211947394     0.003922000751    -0.001456013927
       6       -0.000009495639    -0.000008643642     0.000006006095
       7        0.000008710706     0.000005443943     0.000004224739
       8       -0.001288568752    -0.001973585600    -0.004061470645
       9       -0.001630782278    -0.002964934826     0.001857695563
      10        0.000033570700     0.000012155961     0.000004067391
      11       -0.000001579490     0.000023105457     0.000028700551
      12        0.000705398508     0.001015603381     0.003606548411
      13       -0.000021699905    -0.000008220844    -0.000010774827
      14       -0.000016819001    -0.000008279416    -0.000007442734
      15        0.000006947452     0.000008939708     0.000011263292
      16       -0.000002993161    -0.000002705954    -0.000002506342
      17        0.000003050248    -0.000004245756    -0.000000538792
      18       -0.000009861042     0.000004144149     0.000000745166
      19        0.000001021652     0.000000196859    -0.000001314111

  **** Optimization is complete! (in 6 steps) ****
    Final optimized geometry and variables:
    Molecular point group: c1

    Geometry (in Angstrom), charge = 0, multiplicity = 1:

    H            3.867339424609     0.232238499409     0.259033269655
    N            3.059459797986    -0.360039971087     0.266328891407
    C            1.838706539369     0.431670400612     0.287250004468
    H            3.124145225300    -0.928566955196     1.089355236319
    C            0.611880923727    -0.467329768137     0.195866121653
    H            1.859227063632     1.094844654214    -0.572198120690
    H            1.753636439808     1.068855880819     1.171503987688
    C           -0.718397663918     0.303375502582     0.247005022021
    H            0.673933182292    -1.068675557153    -0.706386672010
    H            0.639763960624    -1.184145841744     1.015545735270
    C           -1.830571226266    -0.335719025705    -0.584498756782
    H           -0.563610993145     1.333682315538    -0.070328814328
    H           -1.048984232551     0.378223268028     1.281368363071
    C           -3.161827775565     0.406101269431    -0.475758328084
    H           -1.520584330494    -0.373918105342    -1.626351334248
    H           -1.964872426894    -1.368475113720    -0.269167889368
    H           -3.065491333585     1.434967538911    -0.811379707188
    H           -3.927766633370    -0.068595084825    -1.081300920077
    H           -3.517188962342     0.426406495543     0.550712003023

  Mulliken Charges: (a.u.)
   Center  Symbol    Alpha    Beta     Spin     Total
       1     H     0.33240  0.33240  0.00000  0.33520
       2     N     3.92208  3.92208  0.00000 -0.84416
       3     C     3.06200  3.06200  0.00000 -0.12401
       4     H     0.33525  0.33525  0.00000  0.32950
       5     C     3.15284  3.15284  0.00000 -0.30568
       6     H     0.42046  0.42046  0.00000  0.15908
       7     H     0.43437  0.43437  0.00000  0.13125
       8     C     3.15684  3.15684  0.00000 -0.31369
       9     H     0.41201  0.41201  0.00000  0.17597
      10     H     0.42626  0.42626  0.00000  0.14748
      11     C     3.15185  3.15185  0.00000 -0.30371
      12     H     0.42352  0.42352  0.00000  0.15295
      13     H     0.42302  0.42302  0.00000  0.15396
      14     C     3.23992  3.23992  0.00000 -0.47983
      15     H     0.42153  0.42153  0.00000  0.15694
      16     H     0.42233  0.42233  0.00000  0.15534
      17     H     0.42193  0.42193  0.00000  0.15614
      18     H     0.41926  0.41926  0.00000  0.16148
      19     H     0.42211  0.42211  0.00000  0.15578

   Total alpha = 25.00000, Total beta = 25.00000, Total charge =  0.00000
