                              Psi4 1.0.54 Driver

  ==> Input File <==

--------------------------------------------------------------------------
set {
	reference rhf
	basis cc-pvtz
}

set_num_threads( 4 )
memory 2 gb

molecule MOL {
0 1

H	 -3.144994	 -1.202467	 -0.018751
O	 -2.321472	 -0.864941	 -0.318626
C	 -2.021813	 0.336996	 0.342658
C	 -0.669613	 0.837286	 -0.127252
H	 -2.780861	 1.084746	 0.127159
H	 -2.006390	 0.184138	 1.420053
C	 0.490865	 -0.082543	 0.241244
H	 -0.708709	 0.967192	 -1.204587
H	 -0.507562	 1.822272	 0.303070
C	 0.050833	 -1.516947	 0.519568
H	 0.999264	 0.316400	 1.111550
H	 1.218170	 -0.082026	 -0.568169
C	 1.210995	 -2.438702	 0.880368
H	 -0.673982	 -1.518101	 1.329101
H	 -0.465485	 -1.912780	 -0.351306
H	 1.725884	 -2.088536	 1.768731
H	 0.866237	 -3.448152	 1.073908
H	 1.937940	 -2.486234	 0.076168

	symmetry c1
}
set optking {
	frozen_dihedral = ("
		10 7 4 8
	")
}

ee,wfn = optimize('scf', return_wfn=True)
oeprop( wfn, 'DIPOLE', 'QUADRUPOLE', 'MULLIKEN_CHARGES')
f=open( 'psi4out.xyz', 'w' )
f.write( "18  " )
f.write( str(ee) + "\n" )
f.write( MOL.save_string_xyz() )
f.close()
--------------------------------------------------------------------------

    Molecular point group: c1
  Charge       = 0
  Multiplicity = 1
  Basis Set: CC-PVTZ
  Basis Set:
  @DF-RHF Final Energy:  -271.26880742040129
    Total Energy =                       -271.2688074204012878
    Molecular point group: c1
  Basis Set: CC-PVTZ
  Basis Set:
  Basis Set: CC-PVTZ
  Basis Set:
  @DF-RHF Final Energy:  -271.27663184111339
    Total Energy =                       -271.2766318411134989
  Basis Set: CC-PVTZ
  Basis Set:
  Basis Set: CC-PVTZ
  Basis Set:
  @DF-RHF Final Energy:  -271.27809469484311
    Total Energy =                       -271.2780946948431051
  Basis Set: CC-PVTZ
  Basis Set:
  Basis Set: CC-PVTZ
  Basis Set:
  @DF-RHF Final Energy:  -271.27841670056648
    Total Energy =                       -271.2784167005665381
  Basis Set: CC-PVTZ
  Basis Set:
  Basis Set: CC-PVTZ
  Basis Set:
  @DF-RHF Final Energy:  -271.27847241660567
    Total Energy =                       -271.2784724166058368
  Basis Set: CC-PVTZ
  Basis Set:
  Basis Set: CC-PVTZ
  Basis Set:
  @DF-RHF Final Energy:  -271.27847786802505
    Total Energy =                       -271.2784778680251634
  Basis Set: CC-PVTZ
  Basis Set:
  Basis Set: CC-PVTZ
  Basis Set:
  @DF-RHF Final Energy:  -271.27848073533335
    Total Energy =                       -271.2784807353331189
  Basis Set: CC-PVTZ
  Basis Set:
  Charge       = 0
  Multiplicity = 1
  Basis Set: CC-PVTZ
  Basis Set:

    Orbital Energies (a.u.)
    -----------------------

    Doubly Occupied:

       1A    -20.546209     2A    -11.267129     3A    -11.211796
       4A    -11.208619     5A    -11.202865     6A    -11.200034
       7A     -1.364452     8A     -1.071844     9A     -1.007540
      10A     -0.914309    11A     -0.832104    12A     -0.768260
      13A     -0.706831    14A     -0.649329    15A     -0.621728
      16A     -0.581827    17A     -0.568005    18A     -0.552785
      19A     -0.534781    20A     -0.502288    21A     -0.486408
      22A     -0.468888    23A     -0.449344    24A     -0.447895
      25A     -0.428418

  @DF-RHF Final Energy:  -271.27848155173103

   => Energetics <=

    Nuclear Repulsion Energy =            255.0431972539448964
    One-Electron Energy =                -873.4559846402735275
    Two-Electron Energy =                 347.1343058345976260
    DFT Exchange-Correlation Energy =       0.0000000000000000
    Empirical Dispersion Energy =           0.0000000000000000
    PCM Polarization Energy =               0.0000000000000000
    EFP Energy =                            0.0000000000000000
    Total Energy =                       -271.2784815517310335
    Molecular point group: c1
  Basis Set: CC-PVTZ
  Basis Set:

  -Total Gradient:
     Atom            X                  Y                   Z
    ------   -----------------  -----------------  -----------------
       1        0.000004168371     0.000002137263    -0.000003707677
       2       -0.000023146818     0.000015731858     0.000016224012
       3        0.000004566307    -0.000003605501     0.000006220134
       4       -0.004011512839    -0.004574334984     0.001075364045
       5       -0.000012314182    -0.000011101971    -0.000013717565
       6       -0.000009605497    -0.000010912651    -0.000000785306
       7        0.001647911448    -0.000253731143    -0.005187631836
       8        0.003019819226     0.003984982873     0.000491893092
       9        0.000008165030     0.000006145097     0.000003856496
      10       -0.000619910852     0.000847671417     0.003617806850
      11       -0.000010272313     0.000009405530    -0.000009921563
      12       -0.000000701153    -0.000003654425     0.000000236334
      13       -0.000024851413     0.000001820112     0.000002440326
      14        0.000014648824    -0.000002957760    -0.000004425770
      15        0.000006824725    -0.000001798242     0.000006584372
      16        0.000000832939    -0.000002426057    -0.000006427228
      17        0.000005104877    -0.000003369443     0.000003685588
      18        0.000000273319    -0.000000001972     0.000002305696

  **** Optimization is complete! (in 8 steps) ****
    Final optimized geometry and variables:
    Molecular point group: c1

    Geometry (in Angstrom), charge = 0, multiplicity = 1:

    H           -2.826374955597    -0.284119660710    -0.402675089914
    O           -1.965483428998    -0.046872369742    -0.694063813493
    C           -1.484489460588     1.036902501799     0.057530854182
    C           -0.081688246541     1.397162573462    -0.393782756553
    H           -2.126952522932     1.901522299170    -0.087820829755
    H           -1.493564259943     0.801834529912     1.119501843980
    C            1.080690167828     0.469286000100     0.022998255707
    H           -0.086796319260     1.532803554056    -1.469742875298
    H            0.128967668253     2.384678195176     0.007632415659
    C            0.754741852953    -0.996570909353     0.310740437891
    H            1.536802346464     0.879898643248     0.920470785541
    H            1.847739308509     0.517388222142    -0.743069200227
    C            1.994325266775    -1.782297057528     0.727489364560
    H            0.012291337497    -1.061799406193     1.098208225274
    H            0.308001804137    -1.456656863337    -0.561962873138
    H            2.445121886353    -1.363857408807     1.621880407304
    H            1.749603949456    -2.817881228060     0.935111633483
    H            2.746753815377    -1.772111401044    -0.054404939786

  Mulliken Charges: (a.u.)
   Center  Symbol    Alpha    Beta     Spin     Total
       1     H     0.39643  0.39643  0.00000  0.20715
       2     O     4.19860  4.19860  0.00000 -0.39719
       3     C     2.98513  2.98513  0.00000  0.02974
       4     C     3.09244  3.09244  0.00000 -0.18488
       5     H     0.45874  0.45874  0.00000  0.08252
       6     H     0.46900  0.46900  0.00000  0.06200
       7     C     3.09575  3.09575  0.00000 -0.19150
       8     H     0.45031  0.45031  0.00000  0.09939
       9     H     0.45176  0.45176  0.00000  0.09647
      10     C     3.07749  3.07749  0.00000 -0.15499
      11     H     0.45643  0.45643  0.00000  0.08714
      12     H     0.45118  0.45118  0.00000  0.09764
      13     C     3.15156  3.15156  0.00000 -0.30313
      14     H     0.45807  0.45807  0.00000  0.08385
      15     H     0.44436  0.44436  0.00000  0.11129
      16     H     0.45794  0.45794  0.00000  0.08412
      17     H     0.44910  0.44910  0.00000  0.10180
      18     H     0.45571  0.45571  0.00000  0.08858

   Total alpha = 25.00000, Total beta = 25.00000, Total charge =  0.00000

*** Psi4 exiting successfully. Buy a developer a beer!
