                              Psi4 1.0.54 Driver

  ==> Input File <==

--------------------------------------------------------------------------
set {
	reference rhf
	basis cc-pvtz
}

set_num_threads( 4 )
memory 2 gb

molecule MOL {
0 1

H	 -2.598257	 -2.610270	 -4.549095
O	 -2.969389	 -3.472794	 -4.561083
C	 -2.191193	 -4.347118	 -3.786976
C	 -2.323927	 -4.112898	 -2.289575
H	 -2.536425	 -5.343120	 -4.029409
H	 -1.145607	 -4.287679	 -4.083060
C	 -1.784082	 -2.765536	 -1.815200
H	 -3.371186	 -4.203752	 -2.017267
H	 -1.794100	 -4.912905	 -1.778038
C	 -1.904185	 -2.579800	 -0.303276
H	 -2.317409	 -1.967431	 -2.320764
H	 -0.738204	 -2.674857	 -2.103648
C	 -1.311023	 -1.277304	 0.237018
H	 -2.951537	 -2.642541	 -0.018066
H	 -1.407529	 -3.412455	 0.187119
C	 -2.041121	 -0.006551	 -0.194127
H	 -1.314034	 -1.325862	 1.322450
H	 -0.266340	 -1.209531	 -0.058277
C	 -3.489218	 0.042606	 0.286507
H	 -2.022185	 0.066287	 -1.279394
H	 -1.518764	 0.869305	 0.178730
C	 -4.219984	 1.311773	 -0.139038
H	 -4.022855	 -0.824300	 -0.093339
H	 -3.510372	 -0.038577	 1.370031
H	 -4.244251	 1.405725	 -1.219696
H	 -5.244345	 1.313233	 0.215630
H	 -3.732090	 2.196311	 0.257073

	symmetry c1
}
set optking {
	frozen_dihedral = ("
		10 13 16 20
	")
}

ee,wfn = optimize('scf', return_wfn=True)
oeprop( wfn, 'DIPOLE', 'QUADRUPOLE', 'MULLIKEN_CHARGES')
f=open( 'psi4out.xyz', 'w' )
f.write( "27  " )
f.write( str(ee) + "\n" )
f.write( MOL.save_string_xyz() )
f.close()
--------------------------------------------------------------------------

    Molecular point group: c1
  Charge       = 0
  Multiplicity = 1
  Basis Set: CC-PVTZ
  Basis Set:
  @DF-RHF Final Energy:  -388.42530244748576
    Total Energy =                       -388.4253024474858194
    Molecular point group: c1
  Basis Set: CC-PVTZ
  Basis Set:
  Basis Set: CC-PVTZ
  Basis Set:
  @DF-RHF Final Energy:  -388.42548280693029
    Total Energy =                       -388.4254828069301766
  Basis Set: CC-PVTZ
  Basis Set:
  Basis Set: CC-PVTZ
  Basis Set:
  @DF-RHF Final Energy:  -388.42611481160696
    Total Energy =                       -388.4261148116067943
  Basis Set: CC-PVTZ
  Basis Set:
  Basis Set: CC-PVTZ
  Basis Set:
  @DF-RHF Final Energy:  -388.42615799113452
    Total Energy =                       -388.4261579911344597
  Basis Set: CC-PVTZ
  Basis Set:
  Basis Set: CC-PVTZ
  Basis Set:
  @DF-RHF Final Energy:  -388.42615627238092
    Total Energy =                       -388.4261562723806946
  Basis Set: CC-PVTZ
  Basis Set:
  Basis Set: CC-PVTZ
  Basis Set:
  @DF-RHF Final Energy:  -388.42616248716291
    Total Energy =                       -388.4261624871624008
  Basis Set: CC-PVTZ
  Basis Set:
  Charge       = 0
  Multiplicity = 1
  Basis Set: CC-PVTZ
  Basis Set:

    Orbital Energies (a.u.)
    -----------------------

    Doubly Occupied:

       1A    -20.545618     2A    -11.265192     3A    -11.216924
       4A    -11.214153     5A    -11.213505     6A    -11.213439
       7A    -11.213326     8A    -11.212015     9A    -11.207072
      10A     -1.363492    11A     -1.096309    12A     -1.061197
      13A     -1.011205    14A     -0.950225    15A     -0.888378
      16A     -0.830632    17A     -0.803564    18A     -0.764910
      19A     -0.696450    20A     -0.652475    21A     -0.639442
      22A     -0.614127    23A     -0.601829    24A     -0.589917
      25A     -0.576687    26A     -0.565945    27A     -0.533991
      28A     -0.523591    29A     -0.512444    30A     -0.495439
      31A     -0.489279    32A     -0.479315    33A     -0.468600
      34A     -0.453744    35A     -0.447057    36A     -0.445573
      37A     -0.426306

  @DF-RHF Final Energy:  -388.42616271224546

   => Energetics <=

    Nuclear Repulsion Energy =            468.4257695481651922
    One-Electron Energy =               -1455.1371353762215222
    Two-Electron Energy =                 598.2852031158112140
    DFT Exchange-Correlation Energy =       0.0000000000000000
    Empirical Dispersion Energy =           0.0000000000000000
    PCM Polarization Energy =               0.0000000000000000
    EFP Energy =                            0.0000000000000000
    Total Energy =                       -388.4261627122451728
    Molecular point group: c1
  Basis Set: CC-PVTZ
  Basis Set:

  -Total Gradient:
     Atom            X                  Y                   Z
    ------   -----------------  -----------------  -----------------
       1       -0.000001147698     0.000009759706     0.000002988927
       2        0.000014646039     0.000017651473     0.000002340904
       3       -0.000032779758    -0.000036588526     0.000004597036
       4        0.000020529764     0.000009444276    -0.000010326956
       5        0.000005608939    -0.000007196396     0.000001085823
       6       -0.000006206023     0.000008455236     0.000004119124
       7        0.000001370954    -0.000003258801     0.000007421241
       8        0.000003308536    -0.000000260247    -0.000006164153
       9        0.000006024956     0.000002980767     0.000000044859
      10        0.000143452176     0.000020230073    -0.000190084395
      11       -0.000000467000     0.000004133930    -0.000010643766
      12       -0.000005201260    -0.000005003419    -0.000000080930
      13       -0.000285061603    -0.000069044965     0.000276857637
      14       -0.000005397891    -0.000001556124     0.000005123283
      15       -0.000000425930    -0.000001380450    -0.000004788133
      16        0.000416456117     0.000226596505    -0.000070192066
      17       -0.000000960761     0.000001898896    -0.000000425715
      18        0.000004252945     0.000001752969     0.000002854775
      19        0.000001571880     0.000014909639     0.000018194362
      20       -0.000271731090    -0.000171867471    -0.000028444792
      21       -0.000007740593    -0.000004787493    -0.000003710322
      22        0.000003539678    -0.000017504628    -0.000003800308
      23        0.000001074634     0.000008481074    -0.000000355698
      24       -0.000005852381     0.000004555915     0.000000854440
      25        0.000003016790    -0.000000550655    -0.000002175852
      26       -0.000003769936    -0.000002575902     0.000000421947
      27        0.000001888518    -0.000009275385     0.000004288727

  **** Optimization is complete! (in 7 steps) ****
    Final optimized geometry and variables:
    Molecular point group: c1

    Geometry (in Angstrom), charge = 0, multiplicity = 1:

    H           -0.269270969324    -0.720900287196    -3.065772446117
    O           -0.575184425625    -1.608579002953    -3.066872156376
    C            0.308811318822    -2.427943455052    -2.348165960817
    C            0.236402228615    -2.223472271321    -0.842388674692
    H            0.031232491284    -3.445253703018    -2.589014237613
    H            1.329439537777    -2.281543837096    -2.696251223819
    C            0.684191361641    -0.840574316898    -0.374682763712
    H           -0.783499501142    -2.406737687221    -0.517871050455
    H            0.858276543777    -2.981292755837    -0.372001094510
    C            0.632256240158    -0.684875502354     1.144218340204
    H            0.056861477575    -0.085561647078    -0.837198039506
    H            1.700220385341    -0.655302860846    -0.718830272325
    C            1.170288763129     0.647467085468     1.673868323949
    H           -0.387558687477    -0.836944341599     1.483706850106
    H            1.216561134280    -1.483057009346     1.593630215996
    C            0.421853537392     1.910654981511     1.239177532447
    H            1.176395721961     0.606385874130     2.759734319062
    H            2.210072392471     0.743582638779     1.372172868064
    C           -1.023596558496     1.999132565450     1.725428083191
    H            0.439710917260     2.002038775385     0.157083167481
    H            0.967623255695     2.770357030926     1.618359080217
    C           -1.689798916180     3.321464940050     1.358672356301
    H           -1.606577894307     1.183541781518     1.310394509942
    H           -1.046503468776     1.871783398173     2.804626426737
    H           -1.707040545431     3.465914866243     0.283353667106
    H           -2.713814263539     3.357129583011     1.712324690503
    H           -1.159445207050     4.161491932561     1.794704904587

  Mulliken Charges: (a.u.)
   Center  Symbol    Alpha    Beta     Spin     Total
       1     H     0.39222  0.39222  0.00000  0.21556
       2     O     4.20562  4.20562  0.00000 -0.41124
       3     C     2.98043  2.98043  0.00000  0.03913
       4     C     3.08867  3.08867  0.00000 -0.17735
       5     H     0.44838  0.44838  0.00000  0.10324
       6     H     0.46951  0.46951  0.00000  0.06099
       7     C     3.10209  3.10209  0.00000 -0.20417
       8     H     0.45068  0.45068  0.00000  0.09863
       9     H     0.45511  0.45511  0.00000  0.08978
      10     C     3.10597  3.10597  0.00000 -0.21193
      11     H     0.45657  0.45657  0.00000  0.08685
      12     H     0.45289  0.45289  0.00000  0.09421
      13     C     3.10454  3.10454  0.00000 -0.20908
      14     H     0.44845  0.44845  0.00000  0.10311
      15     H     0.44433  0.44433  0.00000  0.11134
      16     C     3.10313  3.10313  0.00000 -0.20626
      17     H     0.44717  0.44717  0.00000  0.10567
      18     H     0.44808  0.44808  0.00000  0.10383
      19     C     3.08450  3.08450  0.00000 -0.16900
      20     H     0.45318  0.45318  0.00000  0.09365
      21     H     0.44448  0.44448  0.00000  0.11103
      22     C     3.14953  3.14953  0.00000 -0.29906
      23     H     0.45284  0.45284  0.00000  0.09433
      24     H     0.45355  0.45355  0.00000  0.09291
      25     H     0.45535  0.45535  0.00000  0.08929
      26     H     0.44805  0.44805  0.00000  0.10391
      27     H     0.45469  0.45469  0.00000  0.09062

   Total alpha = 37.00000, Total beta = 37.00000, Total charge = -0.00000

*** Psi4 exiting successfully. Buy a developer a beer!
