  ==> Input File <==

--------------------------------------------------------------------------
set {
	reference rhf
	basis 6-31G*
}

set_num_threads( 4 )
memory 2 gb

molecule MOL {
0 1

H	 2.465338	 -2.224223	 0.000000
O	 2.784187	 -1.332015	 0.000000
C	 1.765313	 -0.449364	 0.000000
C	 0.522022	 -0.909167	 0.422789
C	 1.919172	 0.864406	 -0.398083
H	 0.428114	 -1.934520	 0.727242
C	 -0.560041	 -0.053776	 0.445348
H	 2.865371	 1.245372	 -0.728382
C	 0.811578	 1.696163	 -0.362939
H	 -1.516260	 -0.417127	 0.773188
C	 -0.431053	 1.271002	 0.050163
N	 0.979813	 3.085032	 -0.785107
H	 -1.261097	 1.946493	 0.062151
O	 2.067337	 3.428813	 -1.138857
O	 0.021611	 3.794263	 -0.751859

	symmetry c1
}
set optking {
	frozen_dihedral = ("
		4 3 2 1
	")
}

ee = optimize('scf')
oeprop('DIPOLE', 'QUADRUPOLE', 'MULLIKEN_CHARGES')
f=open( 'psi4out.xyz', 'w' )
f.write( "15  " )
f.write( str(ee) + "\n" )
f.write( MOL.save_string_xyz() )
f.close()
--------------------------------------------------------------------------

    Molecular point group: c1
  Charge       = 0
  Multiplicity = 1
  Basis Set: 6-31G*
  Basis Set:
  @DF-RHF Final Energy:  -509.02396927582367
    Total Energy =                       -509.0239692758232195
    Molecular point group: c1
  Basis Set: 6-31G*
  Basis Set:
  Basis Set: 6-31G*
  Basis Set:
  @DF-RHF Final Energy:  -509.02617649972586
    Total Energy =                       -509.0261764997261480
  Basis Set: 6-31G*
  Basis Set:
  Basis Set: 6-31G*
  Basis Set:
  @DF-RHF Final Energy:  -509.02230242934036
    Total Energy =                       -509.0223024293404706
  Basis Set: 6-31G*
  Basis Set:
  Basis Set: 6-31G*
  Basis Set:
  @DF-RHF Final Energy:  -509.02633657777852
    Total Energy =                       -509.0263365777784657
  Basis Set: 6-31G*
  Basis Set:
  Basis Set: 6-31G*
  Basis Set:
  @DF-RHF Final Energy:  -509.02639701671177
    Total Energy =                       -509.0263970167118259
  Basis Set: 6-31G*
  Basis Set:
  Basis Set: 6-31G*
  Basis Set:
  @DF-RHF Final Energy:  -509.02640730859417
    Total Energy =                       -509.0264073085941163
  Basis Set: 6-31G*
  Basis Set:
  Charge       = 0
  Multiplicity = 1
  Basis Set: 6-31G*
  Basis Set:

    Orbital Energies (a.u.)
    -----------------------

    Doubly Occupied:

       1A    -20.614290     2A    -20.602308     3A    -20.602028
       4A    -15.856711     5A    -11.329788     6A    -11.309493
       7A    -11.268496     8A    -11.266049     9A    -11.263492
      10A    -11.262788    11A     -1.635682    12A     -1.434722
      13A     -1.419064    14A     -1.199847    15A     -1.094154
      16A     -1.047462    17A     -0.964345    18A     -0.863981
      19A     -0.847159    20A     -0.795108    21A     -0.734539
      22A     -0.732573    23A     -0.718259    24A     -0.710635
      25A     -0.678330    26A     -0.636256    27A     -0.620414
      28A     -0.589267    29A     -0.565467    30A     -0.537034
      31A     -0.514802    32A     -0.489815    33A     -0.487448
      34A     -0.451953    35A     -0.378563    36A     -0.343322

  @DF-RHF Final Energy:  -509.02640860504954

   => Energetics <=

    Nuclear Repulsion Energy =            503.3263505553090340
    One-Electron Energy =               -1692.9742219050820040
    Two-Electron Energy =                 680.6214627447233170
    DFT Exchange-Correlation Energy =       0.0000000000000000
    Empirical Dispersion Energy =           0.0000000000000000
    PCM Polarization Energy =               0.0000000000000000
    EFP Energy =                            0.0000000000000000
    Total Energy =                       -509.0264086050495962
    Molecular point group: c1
  Basis Set: 6-31G*
  Basis Set:

  -Total Gradient:
     Atom            X                  Y                   Z
    ------   -----------------  -----------------  -----------------
       1       -0.000040326480     0.000013800328    -0.001515339170
       2        0.000165185369     0.000108313102     0.002501724791
       3       -0.000304701135    -0.000411597724    -0.002064747070
       4        0.000271667653     0.000207381933     0.001096406144
       5       -0.000078867175     0.000137169628    -0.000020793623
       6        0.000003943396     0.000039651346    -0.000018836020
       7       -0.000027370284     0.000074842531    -0.000010231575
       8        0.000037450374    -0.000022802318    -0.000003449973
       9        0.000024923231    -0.000033247811     0.000017811483
      10       -0.000027829339     0.000025276551    -0.000002277381
      11        0.000006077573    -0.000021535684     0.000005355602
      12        0.000063626932     0.000060010932    -0.000113801623
      13       -0.000028472948    -0.000017744238     0.000011318666
      14        0.000082625997    -0.000121591937     0.000041618841
      15       -0.000147933168    -0.000037926643     0.000075240910

  **** Optimization is complete! (in 7 steps) ****
    Final optimized geometry and variables:
    Molecular point group: c1

    Geometry (in Angstrom), charge = 0, multiplicity = 1:

    H            1.553155280615    -3.370194187900     0.264097002866
    O            1.797604971556    -2.455200280465     0.253020461795
    C            0.707406327558    -1.658849591646     0.272827388840
    C           -0.534302955539    -2.100766920734     0.702861351261
    C            0.877013104335    -0.341670671070    -0.123813597902
    H           -0.658099178184    -3.120900593954     1.022904291465
    C           -1.614010340203    -1.231982674559     0.723405913974
    H            1.834795056084     0.005151092207    -0.452219835333
    C           -0.215984917233     0.498027035200    -0.082576657758
    H           -2.572492254729    -1.586414173592     1.054479453516
    C           -1.469691955493     0.085114086920     0.331223853379
    N           -0.037565791943     1.887432065927    -0.502560770638
    H           -2.290964412836     0.771001156145     0.344196189103
    O            1.050474531715     2.224971928193    -0.856124373549
    O           -0.993040751903     2.601618565483    -0.466028230567

  Mulliken Charges: (a.u.)
   Center  Symbol    Alpha    Beta     Spin     Total
       1     H     0.26879  0.26879  0.00000  0.46242
       2     O     4.37505  4.37505  0.00000 -0.75009
       3     C     2.79809  2.79809  0.00000  0.40381
       4     C     3.12642  3.12642  0.00000 -0.25283
       5     C     3.11265  3.11265  0.00000 -0.22531
       6     H     0.39310  0.39310  0.00000  0.21380
       7     C     3.09985  3.09985  0.00000 -0.19971
       8     H     0.35730  0.35730  0.00000  0.28539
       9     C     2.91314  2.91314  0.00000  0.17372
      10     H     0.38699  0.38699  0.00000  0.22602
      11     C     3.09727  3.09727  0.00000 -0.19455
      12     N     3.24109  3.24109  0.00000  0.51781
      13     H     0.36523  0.36523  0.00000  0.26954
      14     O     4.23198  4.23198  0.00000 -0.46396
      15     O     4.23304  4.23304  0.00000 -0.46607

   Total alpha = 36.00000, Total beta = 36.00000, Total charge = -0.00000
