  ==> Input File <==

--------------------------------------------------------------------------
set {
	reference rhf
	basis 6-31G*
}

set_num_threads( 1 )
memory 2 gb

molecule MOL {
0 1

H	 -1.730512	 -0.947887	 0.234402
O	 -2.035884	 -0.060112	 0.102722
C	 -0.955155	 0.788182	 -0.092531
C	 0.353668	 0.040312	 -0.004810
H	 -0.985057	 1.290372	 -1.054184
H	 -0.974469	 1.533190	 0.688632
F	 0.394464	 -0.937475	 -0.903053
F	 1.368604	 0.853376	 -0.249821
F	 0.546173	 -0.502608	 1.179981

	symmetry c1
}
set optking {
	frozen_dihedral = ("
		7 4 3 5
	")
}

ee = energy('scf')
oeprop('DIPOLE', 'QUADRUPOLE', 'MULLIKEN_CHARGES')
f=open( 'psi4out.xyz', 'w' )
f.write( "9  " )
f.write( str(ee) + "\n" )
f.write( MOL.save_string_xyz() )
f.close()
--------------------------------------------------------------------------

    Molecular point group: c1

    Geometry (in Angstrom), charge = 0, multiplicity = 1:

       Center              X                  Y                   Z               Mass
    ------------   -----------------  -----------------  -----------------  -----------------
           H         -1.734224937447    -0.945130352378     0.225825655502     1.007825032070
           O         -2.039596937447    -0.057355352378     0.094145655502    15.994914619560
           C         -0.958867937447     0.790938647622    -0.101107344498    12.000000000000
           C          0.349955062553     0.043068647622    -0.013386344498    12.000000000000
           H         -0.988769937447     1.293128647622    -1.062760344498     1.007825032070
           H         -0.978181937447     1.535946647622     0.680055655502     1.007825032070
           F          0.390751062553    -0.934718352378    -0.911629344498    18.998403224000
           F          1.364891062553     0.856132647622    -0.258397344498    18.998403224000
           F          0.542460062553    -0.499851352378     1.171404655502    18.998403224000

  Charge       = 0
  Multiplicity = 1
  Basis Set: 6-31G*
  Basis Set:

    Orbital Energies (a.u.)
    -----------------------

    Doubly Occupied:

       1A    -26.353622     2A    -26.349851     3A    -26.349185
       4A    -20.586781     5A    -11.509729     6A    -11.309111
       7A     -1.749410     8A     -1.648556     9A     -1.644901
      10A     -1.401499    11A     -1.050811    12A     -0.930161
      13A     -0.838641    14A     -0.838260    15A     -0.816879
      16A     -0.722698    17A     -0.720455    18A     -0.677953
      19A     -0.676294    20A     -0.670935    21A     -0.651807
      22A     -0.645240    23A     -0.623378    24A     -0.525708
      25A     -0.475912

  @DF-RHF Final Energy:  -450.65737315419119

   => Energetics <=

    Nuclear Repulsion Energy =            277.8077600360830957
    One-Electron Energy =               -1177.3947174905570137
    Two-Electron Energy =                 448.9295843002831816
    DFT Exchange-Correlation Energy =       0.0000000000000000
    Empirical Dispersion Energy =           0.0000000000000000
    PCM Polarization Energy =               0.0000000000000000
    EFP Energy =                            0.0000000000000000
    Total Energy =                       -450.6573731541907364

  Mulliken Charges: (a.u.)
   Center  Symbol    Alpha    Beta     Spin     Total
       1     H     0.27026  0.27026  0.00000  0.45947
       2     O     4.37012  4.37012  0.00000 -0.74025
       3     C     3.02191  3.02191  0.00000 -0.04382
       4     C     2.49032  2.49032  0.00000  1.01936
       5     H     0.40459  0.40459  0.00000  0.19082
       6     H     0.40458  0.40458  0.00000  0.19085
       7     F     4.68220  4.68220  0.00000 -0.36440
       8     F     4.67993  4.67993  0.00000 -0.35987
       9     F     4.67608  4.67608  0.00000 -0.35216

   Total alpha = 25.00000, Total beta = 25.00000, Total charge =  0.00000
