                              Psi4 1.0.54 Driver

  ==> Input File <==

--------------------------------------------------------------------------
set {
	reference rhf
	basis cc-pvtz
}

set_num_threads( 4 )
memory 2 gb

molecule MOL {
0 1

H	 -1.443332	 3.616892	 1.254913
O	 -1.299788	 2.698788	 1.118771
C	 -0.174641	 2.501419	 0.302005
C	 0.027642	 1.012027	 0.090274
H	 0.712563	 2.916332	 0.773686
H	 -0.303367	 3.009093	 -0.649919
C	 -1.138737	 0.285728	 -0.581921
H	 0.214280	 0.558549	 1.058277
H	 0.931484	 0.878248	 -0.499122
C	 -1.933983	 -0.631436	 0.343653
H	 -0.763151	 -0.285569	 -1.422081
H	 -1.808359	 1.035291	 -0.992333
H	 -2.789188	 -1.049673	 -0.174718
H	 -1.335629	 -1.461368	 0.700418
H	 -2.305435	 -0.092167	 1.209725

	symmetry c1
}
set optking {
	frozen_dihedral = ("
		8 4 7 11
	")
}

ee,wfn = optimize('scf', return_wfn=True)
oeprop( wfn, 'DIPOLE', 'QUADRUPOLE', 'MULLIKEN_CHARGES')
f=open( 'psi4out.xyz', 'w' )
f.write( "15  " )
f.write( str(ee) + "\n" )
f.write( MOL.save_string_xyz() )
f.close()
--------------------------------------------------------------------------

    Molecular point group: c1
  Charge       = 0
  Multiplicity = 1
  Basis Set: CC-PVTZ
  Basis Set:
  @DF-RHF Final Energy:  -232.23395967656410
    Total Energy =                       -232.2339596765639840
    Molecular point group: c1
  Basis Set: CC-PVTZ
  Basis Set:
  Basis Set: CC-PVTZ
  Basis Set:
  @DF-RHF Final Energy:  -232.23439177306733
    Total Energy =                       -232.2343917730672729
  Basis Set: CC-PVTZ
  Basis Set:
  Basis Set: CC-PVTZ
  Basis Set:
  @DF-RHF Final Energy:  -232.23444932926813
    Total Energy =                       -232.2344493292680454
  Basis Set: CC-PVTZ
  Basis Set:
  Basis Set: CC-PVTZ
  Basis Set:
  @DF-RHF Final Energy:  -232.23445256898876
    Total Energy =                       -232.2344525689887860
  Basis Set: CC-PVTZ
  Basis Set:
  Charge       = 0
  Multiplicity = 1
  Basis Set: CC-PVTZ
  Basis Set:

    Orbital Energies (a.u.)
    -----------------------

    Doubly Occupied:

       1A    -20.547363     2A    -11.266358     3A    -11.210537
       4A    -11.208006     5A    -11.197341     6A     -1.365185
       7A     -1.062575     8A     -0.973125     9A     -0.857057
      10A     -0.785490    11A     -0.708853    12A     -0.642050
      13A     -0.602681    14A     -0.593314    15A     -0.547652
      16A     -0.534798    17A     -0.508536    18A     -0.473993
      19A     -0.464432    20A     -0.453289    21A     -0.433679

  @DF-RHF Final Energy:  -232.23445325797090

   => Energetics <=

    Nuclear Repulsion Energy =            191.4940602103359026
    One-Electron Energy =                -694.5844031362120177
    Two-Electron Energy =                 270.8558896679052168
    DFT Exchange-Correlation Energy =       0.0000000000000000
    Empirical Dispersion Energy =           0.0000000000000000
    PCM Polarization Energy =               0.0000000000000000
    EFP Energy =                            0.0000000000000000
    Total Energy =                       -232.2344532579709266
    Molecular point group: c1
  Basis Set: CC-PVTZ
  Basis Set:

  -Total Gradient:
     Atom            X                  Y                   Z
    ------   -----------------  -----------------  -----------------
       1        0.000016156737    -0.000009504475    -0.000018468581
       2        0.000009738007    -0.000025943056     0.000032305372
       3       -0.000042543562     0.000062115082    -0.000016590239
       4        0.001181888305    -0.000961506844    -0.000971903609
       5       -0.000005473628    -0.000021952459    -0.000006158803
       6        0.000032293872    -0.000018039066    -0.000020696078
       7       -0.000015186309    -0.001244418597     0.001293684821
       8       -0.001011998145     0.000998211468     0.000618183240
       9       -0.000000848436     0.000013473734    -0.000004071737
      10       -0.000020904737    -0.000035129579     0.000004754412
      11       -0.000192806005     0.001215778805    -0.000938741278
      12        0.000022176006    -0.000000077810     0.000027447780
      13        0.000024795333     0.000005606603     0.000009354851
      14        0.000015119309     0.000003973487    -0.000010915769
      15       -0.000012406747     0.000017412704     0.000001815617

  **** Optimization is complete! (in 5 steps) ****
    Final optimized geometry and variables:
    Molecular point group: c1

    Geometry (in Angstrom), charge = 0, multiplicity = 1:

    H           -0.548023523462     2.385137105182     0.926382734992
    O           -0.365204706064     1.468183998673     0.838633332794
    C            0.745159195521     1.272915499150     0.001440798551
    C            0.961412926919    -0.216047109006    -0.189150607153
    H            1.633779728924     1.718563103317     0.441719762741
    H            0.580632499542     1.748505266983    -0.963350213819
    C           -0.221064774753    -0.934275375156    -0.868564504717
    H            1.147024398757    -0.649520048321     0.788000886882
    H            1.868908512572    -0.344307917173    -0.769682391778
    C           -1.021228260342    -1.825918963905     0.075435058171
    H            0.143423399293    -1.524807582635    -1.702518357990
    H           -0.887591452134    -0.194560547955    -1.299004529383
    H           -1.850668514997    -2.296557148945    -0.440863278620
    H           -0.399143565596    -2.613754706136     0.487977405342
    H           -1.420369329587    -1.248632751881     0.900303386280

  Mulliken Charges: (a.u.)
   Center  Symbol    Alpha    Beta     Spin     Total
       1     H     0.39629  0.39629  0.00000  0.20742
       2     O     4.19888  4.19888  0.00000 -0.39776
       3     C     2.97353  2.97353  0.00000  0.05294
       4     C     3.09636  3.09636  0.00000 -0.19271
       5     H     0.46507  0.46507  0.00000  0.06987
       6     H     0.47356  0.47356  0.00000  0.05288
       7     C     3.08328  3.08328  0.00000 -0.16655
       8     H     0.45292  0.45292  0.00000  0.09417
       9     H     0.44769  0.44769  0.00000  0.10463
      10     C     3.14748  3.14748  0.00000 -0.29496
      11     H     0.45102  0.45102  0.00000  0.09796
      12     H     0.45573  0.45573  0.00000  0.08853
      13     H     0.45277  0.45277  0.00000  0.09446
      14     H     0.45819  0.45819  0.00000  0.08361
      15     H     0.44724  0.44724  0.00000  0.10551

   Total alpha = 21.00000, Total beta = 21.00000, Total charge =  0.00000

*** Psi4 exiting successfully. Buy a developer a beer!
