  ==> Input File <==

--------------------------------------------------------------------------
set {
	reference rhf
	basis 6-31G*
}

set_num_threads( 4 )
memory 2 gb

molecule MOL {
0 1

O	 2.127462	 0.783874	 0.889831
C	 1.705091	 0.115954	 0.001797
C	 0.381791	 -0.609817	 0.001258
O	 2.360352	 -0.078441	 -1.135735
C	 -0.823008	 0.326187	 0.001381
H	 0.371250	 -1.265087	 -0.865474
H	 0.370908	 -1.265746	 0.867490
C	 -2.149452	 -0.435131	 -0.000098
H	 -0.770201	 0.977095	 -0.865636
H	 -0.771220	 0.975655	 0.869608
C	 -3.368779	 0.488503	 -0.000883
H	 -2.193746	 -1.087250	 -0.871175
H	 -2.195311	 -1.087803	 0.870418
C	 -4.693822	 -0.272754	 -0.001129
H	 -3.325798	 1.139422	 -0.871284
H	 -3.326423	 1.139959	 0.869145
H	 -4.781274	 -0.907928	 -0.878124
H	 -5.538651	 0.408946	 -0.001420
H	 -4.781694	 -0.907783	 0.875984
C	 3.621563	 0.551767	 -1.266659
H	 3.519667	 1.624920	 -1.192589
H	 3.988565	 0.277466	 -2.243360
H	 4.300643	 0.205853	 -0.500695

	symmetry c1
}
set optking {
	frozen_dihedral = ("
		1 2 3 6
	")
}

ee = optimize('scf')
oeprop('DIPOLE', 'QUADRUPOLE', 'MULLIKEN_CHARGES')
f=open( 'psi4out.xyz', 'w' )
f.write( "23  " )
f.write( str(ee) + "\n" )
f.write( MOL.save_string_xyz() )
f.close()
--------------------------------------------------------------------------

    Molecular point group: c1
  Charge       = 0
  Multiplicity = 1
  Basis Set: 6-31G*
  Basis Set:
  @DF-RHF Final Energy:  -422.97404597357712
    Total Energy =                       -422.9740459735775175
    Molecular point group: c1
  Basis Set: 6-31G*
  Basis Set:
  Basis Set: 6-31G*
  Basis Set:
  @DF-RHF Final Energy:  -422.97471221388264
    Total Energy =                       -422.9747122138828672
  Basis Set: 6-31G*
  Basis Set:
  Basis Set: 6-31G*
  Basis Set:
  @DF-RHF Final Energy:  -422.97475593383570
    Total Energy =                       -422.9747559338358087
  Basis Set: 6-31G*
  Basis Set:
  Basis Set: 6-31G*
  Basis Set:
  @DF-RHF Final Energy:  -422.97472098666827
    Total Energy =                       -422.9747209866679896
  Basis Set: 6-31G*
  Basis Set:
  Basis Set: 6-31G*
  Basis Set:
  @DF-RHF Final Energy:  -422.97476313666658
    Total Energy =                       -422.9747631366665246
  Basis Set: 6-31G*
  Basis Set:
  Charge       = 0
  Multiplicity = 1
  Basis Set: 6-31G*
  Basis Set:

    Orbital Energies (a.u.)
    -----------------------

    Doubly Occupied:

       1A    -20.605632     2A    -20.541794     3A    -11.371005
       4A    -11.280616     5A    -11.233502     6A    -11.227419
       7A    -11.220810     8A    -11.219028     9A    -11.211363
      10A     -1.469183    11A     -1.360929    12A     -1.095768
      13A     -1.044364    14A     -0.986207    15A     -0.934012
      16A     -0.845263    17A     -0.797579    18A     -0.772023
      19A     -0.694816    20A     -0.680227    21A     -0.672362
      22A     -0.653195    23A     -0.606860    24A     -0.597704
      25A     -0.576941    26A     -0.570637    27A     -0.543110
      28A     -0.532293    29A     -0.523918    30A     -0.506370
      31A     -0.489108    32A     -0.474488    33A     -0.469192
      34A     -0.464595    35A     -0.452862    36A     -0.429826

  @DF-RHF Final Energy:  -422.97476310986190

   => Energetics <=

    Nuclear Repulsion Energy =            453.3412270160119988
    One-Electron Energy =               -1474.3219826589461263
    Two-Electron Energy =                 598.0059925330720034
    DFT Exchange-Correlation Energy =       0.0000000000000000
    Empirical Dispersion Energy =           0.0000000000000000
    PCM Polarization Energy =               0.0000000000000000
    EFP Energy =                            0.0000000000000000
    Total Energy =                       -422.9747631098621241
    Molecular point group: c1
  Basis Set: 6-31G*
  Basis Set:

  -Total Gradient:
     Atom            X                  Y                   Z
    ------   -----------------  -----------------  -----------------
       1        0.000140824460    -0.000136425573     0.000097476539
       2       -0.000167538568     0.000239994312    -0.000147737848
       3       -0.000029806624     0.000048571157    -0.000106638387
       4       -0.000003993193     0.000008459861     0.000048930429
       5       -0.000015992466     0.000020070052     0.000031056419
       6        0.000057161018    -0.000174636171     0.000066757140
       7       -0.000023248024     0.000027307987    -0.000030325430
       8        0.000011777732    -0.000012429763     0.000021076352
       9        0.000012548482    -0.000023376218     0.000022477511
      10       -0.000009883930     0.000000344833     0.000013034925
      11        0.000007226971     0.000015056085    -0.000021888831
      12        0.000019031639    -0.000009575576     0.000011445033
      13       -0.000001019884     0.000009420468     0.000009362530
      14        0.000001140656    -0.000001916515    -0.000010233403
      15       -0.000003566370     0.000013754904    -0.000001433875
      16       -0.000003310911    -0.000008411691    -0.000001564697
      17       -0.000003238757    -0.000000495480    -0.000001677374
      18        0.000002066492     0.000000326692     0.000000138999
      19        0.000002983356    -0.000000249047     0.000000092410
      20        0.000011505427    -0.000028750929     0.000009761244
      21       -0.000007364720     0.000003727711    -0.000000314847
      22       -0.000001090113     0.000003253398    -0.000003177768
      23        0.000003787310     0.000005979504    -0.000006617067

  **** Optimization is complete! (in 6 steps) ****
    Final optimized geometry and variables:
    Molecular point group: c1

    Geometry (in Angstrom), charge = 0, multiplicity = 1:

    O            2.132627501279     0.638036612894     1.075837102393
    C            1.752978994170    -0.025034241850     0.163604828530
    C            0.444463932736    -0.777181976446     0.150086598101
    O            2.434773157204    -0.165629751954    -0.964019758224
    C           -0.748043523610     0.189216064062     0.143187493314
    H            0.411216620622    -1.437304224554    -0.707218755882
    H            0.415492112660    -1.383302259609     1.049448366692
    C           -2.090002823012    -0.542319775199     0.182389853408
    H           -0.700172893419     0.811210923234    -0.747937232313
    H           -0.663279843344     0.854978749713     0.995936744275
    C           -3.289136796281     0.407382433889     0.168424702955
    H           -2.158335968156    -1.220175675683    -0.666689129463
    H           -2.134398061874    -1.164220367381     1.074786310073
    C           -4.629492594102    -0.325518295184     0.209719827824
    H           -3.245201905021     1.029396024395    -0.722949895628
    H           -3.221156600343     1.084379720976     1.016953664128
    H           -4.742060656067    -0.986036058979    -0.645404599119
    H           -5.459745744458     0.373649275370     0.198824112657
    H           -4.718239122708    -0.930278829981     1.107747067170
    C            3.670563547797     0.520353000776    -1.055599406747
    H            3.520818074101     1.586080942540    -0.959723743730
    H            4.067626081394     0.283907051211    -2.030448571126
    H            4.348022372972     0.185975192875    -0.283271351616

  Mulliken Charges: (a.u.)
   Center  Symbol    Alpha    Beta     Spin     Total
       1     O     4.28724  4.28724  0.00000 -0.57448
       2     C     2.61211  2.61211  0.00000  0.77577
       3     C     3.19945  3.19945  0.00000 -0.39890
       4     O     4.30275  4.30275  0.00000 -0.60550
       5     C     3.16413  3.16413  0.00000 -0.32826
       6     H     0.40158  0.40158  0.00000  0.19685
       7     H     0.40124  0.40124  0.00000  0.19752
       8     C     3.15222  3.15222  0.00000 -0.30444
       9     H     0.41611  0.41611  0.00000  0.16778
      10     H     0.40467  0.40467  0.00000  0.19065
      11     C     3.15240  3.15240  0.00000 -0.30480
      12     H     0.42242  0.42242  0.00000  0.15516
      13     H     0.42142  0.42142  0.00000  0.15715
      14     C     3.23981  3.23981  0.00000 -0.47962
      15     H     0.42201  0.42201  0.00000  0.15598
      16     H     0.42058  0.42058  0.00000  0.15884
      17     H     0.42152  0.42152  0.00000  0.15697
      18     H     0.41817  0.41817  0.00000  0.16366
      19     H     0.42104  0.42104  0.00000  0.15793
      20     C     3.09346  3.09346  0.00000 -0.18692
      21     H     0.40874  0.40874  0.00000  0.18253
      22     H     0.40853  0.40853  0.00000  0.18293
      23     H     0.40840  0.40840  0.00000  0.18321

   Total alpha = 36.00000, Total beta = 36.00000, Total charge = -0.00000
