  ==> Input File <==

--------------------------------------------------------------------------
set {
	reference rhf
	basis cc-pvtz
}

set_num_threads( 4 )
memory 2 gb

molecule MOL {
0 1

O	 1.436442	 0.531889	 0.993571
C	 0.860843	 0.273204	 -0.013120
C	 -0.623368	 -0.117453	 -0.005652
C	 1.600805	 0.320767	 -1.335322
C	 -0.892588	 -1.253841	 -1.002900
C	 -1.473463	 1.100646	 -0.372896
C	 -0.981836	 -0.579025	 1.418506
H	 -0.609333	 -0.970024	 -2.010649
H	 -1.950451	 -1.487353	 -1.013175
H	 -0.360848	 -2.161259	 -0.746463
H	 -1.232203	 1.461623	 -1.364827
H	 -2.524364	 0.834451	 -0.354500
H	 -1.312381	 1.914833	 0.318657
H	 -2.035706	 -0.826342	 1.468082
H	 -0.425078	 -1.458934	 1.716857
H	 -0.788494	 0.205047	 2.140903
H	 1.351866	 1.242287	 -1.849709
H	 2.661959	 0.308961	 -1.139667
H	 1.336231	 -0.499072	 -1.988848

	symmetry c1
}
set optking {
	frozen_dihedral = ("
		1 2 3 5
	")
}

ee = optimize('scf')
oeprop('DIPOLE', 'QUADRUPOLE', 'MULLIKEN_CHARGES')
f=open( 'psi4out.xyz', 'w' )
f.write( "19  " )
f.write( str(ee) + "\n" )
f.write( MOL.save_string_xyz() )
f.close()
--------------------------------------------------------------------------

    Molecular point group: c1
  Charge       = 0
  Multiplicity = 1
  Basis Set: CC-PVTZ
  Basis Set:
  @DF-RHF Final Energy:  -309.17119824687762
    Total Energy =                       -309.1711982468776796
    Molecular point group: c1
  Basis Set: CC-PVTZ
  Basis Set:
  Basis Set: CC-PVTZ
  Basis Set:
  @DF-RHF Final Energy:  -309.17180134226777
    Total Energy =                       -309.1718013422678268
  Basis Set: CC-PVTZ
  Basis Set:
  Basis Set: CC-PVTZ
  Basis Set:
  @DF-RHF Final Energy:  -309.17292546910943
    Total Energy =                       -309.1729254691098276
  Basis Set: CC-PVTZ
  Basis Set:
  Basis Set: CC-PVTZ
  Basis Set:
  @DF-RHF Final Energy:  -309.17263254089829
    Total Energy =                       -309.1726325408982916
  Basis Set: CC-PVTZ
  Basis Set:
  @DF-RHF Final Energy:  -309.17336114973858
    Total Energy =                       -309.1733611497381844
  @DF-RHF Final Energy:  -309.17376398087242
    Total Energy =                       -309.1737639808726499
  @DF-RHF Final Energy:  -309.17405890149365
    Total Energy =                       -309.1740589014935949
  @DF-RHF Final Energy:  -309.17419217104850
    Total Energy =                       -309.1741921710486167
  Basis Set: CC-PVTZ
  Basis Set:
  @DF-RHF Final Energy:  -309.17423535571362
    Total Energy =                       -309.1742353557135630
  Basis Set: CC-PVTZ
  Basis Set:
  Basis Set: CC-PVTZ
  Basis Set:
  @DF-RHF Final Energy:  -309.17425921986120
    Total Energy =                       -309.1742592198611419
  Basis Set: CC-PVTZ
  Basis Set:
  Basis Set: CC-PVTZ
  Basis Set:
  @DF-RHF Final Energy:  -309.17426769919797
    Total Energy =                       -309.1742676991979124
  Basis Set: CC-PVTZ
  Basis Set:
  Charge       = 0
  Multiplicity = 1
  Basis Set: CC-PVTZ
  Basis Set:

    Orbital Energies (a.u.)
    -----------------------

    Doubly Occupied:

       1A    -20.537272     2A    -11.317828     3A    -11.245693
       4A    -11.225302     5A    -11.222236     6A    -11.221705
       7A    -11.206733     8A     -1.398397     9A     -1.110848
      10A     -1.003311    11A     -0.947505    12A     -0.936137
      13A     -0.835678    14A     -0.705470    15A     -0.666766
      16A     -0.634132    17A     -0.621905    18A     -0.598364
      19A     -0.592344    20A     -0.566519    21A     -0.546646
      22A     -0.545772    23A     -0.524837    24A     -0.514568
      25A     -0.502231    26A     -0.473043    27A     -0.467627
      28A     -0.394627

  @DF-RHF Final Energy:  -309.17426788246252

   => Energetics <=

    Nuclear Repulsion Energy =            326.9285234715710544
    One-Electron Energy =               -1067.0785908586540245
    Two-Electron Energy =                 430.9757995046206815
    DFT Exchange-Correlation Energy =       0.0000000000000000
    Empirical Dispersion Energy =           0.0000000000000000
    PCM Polarization Energy =               0.0000000000000000
    EFP Energy =                            0.0000000000000000
    Total Energy =                       -309.1742678824623454
    Molecular point group: c1
  Basis Set: CC-PVTZ
  Basis Set:

  -Total Gradient:
     Atom            X                  Y                   Z
    ------   -----------------  -----------------  -----------------
       1       -0.000100386028     0.000364084971    -0.000030897130
       2        0.000134601281    -0.000433005765    -0.000022873098
       3        0.000016862287    -0.000101967094     0.000219981482
       4       -0.000009215428     0.000019248304     0.000013966963
       5       -0.000044557428     0.000179648877    -0.000180231072
       6        0.000008638606    -0.000017462939     0.000020275863
       7       -0.000002706243     0.000000911853     0.000005204106
       8        0.000001610130    -0.000001074598    -0.000001463752
       9       -0.000000307006     0.000002089688    -0.000001618092
      10        0.000000438688    -0.000000308339    -0.000002915811
      11        0.000000565232    -0.000003506142     0.000000013349
      12       -0.000005033124     0.000002369448    -0.000000542103
      13        0.000002841972     0.000006053472    -0.000001909866
      14       -0.000002117059     0.000001949506    -0.000002002844
      15        0.000002225656     0.000002799966    -0.000008543256
      16        0.000000776423     0.000001540420    -0.000000407141
      17       -0.000001823866    -0.000004759489     0.000003555685
      18       -0.000002427348    -0.000005362009    -0.000003957245
      19        0.000000013255    -0.000013250128    -0.000005636037

  **** Optimization is complete! (in 12 steps) ****
    Final optimized geometry and variables:
    Molecular point group: c1

    Geometry (in Angstrom), charge = 0, multiplicity = 1:

    O            1.470666529106     0.414727711030     1.045696359208
    C            0.880587646332     0.199810194185     0.037040045110
    C           -0.612452991496    -0.157123714414     0.049927419040
    C            1.600583219977     0.300289256739    -1.292679173195
    C           -0.930406646242    -1.256121191959    -0.973785646794
    C           -1.393403439524     1.121943823139    -0.303348303962
    C           -1.013063180634    -0.626683792317     1.450227630861
    H           -0.726640075909    -0.944269605307    -1.990122144425
    H           -1.980952203475    -1.514493424820    -0.916534279658
    H           -0.360241187320    -2.157514565252    -0.776762407216
    H           -1.153991057513     1.485924917443    -1.295401958527
    H           -2.457857909671     0.920436952012    -0.276529748914
    H           -1.183724997572     1.912465987785     0.406986113706
    H           -2.072116183129    -0.858042222921     1.471661153262
    H           -0.466339753804    -1.517180870845     1.735298771228
    H           -0.810842131156     0.132385750512     2.191454297395
    H            1.013574329301     0.818667991428    -2.038887536883
    H            2.538798440850     0.811440749319    -1.141795357253
    H            1.800862404745    -0.696161233449    -1.670121000222

  Mulliken Charges: (a.u.)
   Center  Symbol    Alpha    Beta     Spin     Total
       1     O     4.17624  4.17624  0.00000 -0.35247
       2     C     2.85213  2.85213  0.00000  0.29574
       3     C     3.00830  3.00830  0.00000 -0.01660
       4     C     3.16384  3.16384  0.00000 -0.32769
       5     C     3.16444  3.16444  0.00000 -0.32889
       6     C     3.15796  3.15796  0.00000 -0.31591
       7     C     3.15055  3.15055  0.00000 -0.30111
       8     H     0.44576  0.44576  0.00000  0.10848
       9     H     0.44276  0.44276  0.00000  0.11449
      10     H     0.44327  0.44327  0.00000  0.11346
      11     H     0.44636  0.44636  0.00000  0.10728
      12     H     0.44570  0.44570  0.00000  0.10860
      13     H     0.44111  0.44111  0.00000  0.11779
      14     H     0.45189  0.45189  0.00000  0.09622
      15     H     0.44735  0.44735  0.00000  0.10530
      16     H     0.43832  0.43832  0.00000  0.12337
      17     H     0.44659  0.44659  0.00000  0.10682
      18     H     0.43178  0.43178  0.00000  0.13644
      19     H     0.44566  0.44566  0.00000  0.10869

   Total alpha = 28.00000, Total beta = 28.00000, Total charge = -0.00000
