                              Psi4 1.0.54 Driver

  ==> Input File <==

--------------------------------------------------------------------------
set {
	reference rhf
	basis cc-pvtz
}

set_num_threads( 4 )
memory 2 gb

molecule MOL {
0 1

O	 2.866900	 1.355782	 -0.050911
C	 2.836758	 0.173238	 -0.154789
C	 1.538442	 -0.607905	 -0.150096
C	 4.104731	 -0.637550	 -0.300026
C	 0.288398	 0.247429	 0.000314
H	 1.501186	 -1.186445	 -1.070407
H	 1.601279	 -1.342577	 0.649476
C	 -0.993089	 -0.581367	 -0.000217
H	 0.256888	 0.975149	 -0.802521
H	 0.357169	 0.818985	 0.918861
C	 -2.258482	 0.271340	 0.000669
H	 -1.002280	 -1.233920	 -0.870484
H	 -1.002061	 -1.235367	 0.868958
C	 -3.544441	 -0.550271	 -0.000253
H	 -2.250545	 0.925250	 -0.867923
H	 -2.250598	 0.923423	 0.870642
C	 -4.804551	 0.308747	 0.000556
H	 -3.553737	 -1.201524	 -0.870151
H	 -3.553831	 -1.203282	 0.868313
H	 -4.842050	 0.949078	 -0.874436
H	 -5.698404	 -0.304480	 -0.000254
H	 -4.842277	 0.947103	 0.876982
H	 4.084661	 -1.200579	 -1.226655
H	 4.961629	 0.018231	 -0.291755
H	 4.185329	 -1.353759	 0.510277

	symmetry c1
}
set optking {
	frozen_dihedral = ("
		9 5 8 12
	")
}

ee,wfn = optimize('scf', return_wfn=True)
oeprop( wfn, 'DIPOLE', 'QUADRUPOLE', 'MULLIKEN_CHARGES')
f=open( 'psi4out.xyz', 'w' )
f.write( "25  " )
f.write( str(ee) + "\n" )
f.write( MOL.save_string_xyz() )
f.close()
--------------------------------------------------------------------------

    Molecular point group: c1
  Charge       = 0
  Multiplicity = 1
  Basis Set: CC-PVTZ
  Basis Set:
  @DF-RHF Final Energy:  -387.27452579804657
    Total Energy =                       -387.2745257980466249
    Molecular point group: c1
  Basis Set: CC-PVTZ
  Basis Set:
  Basis Set: CC-PVTZ
  Basis Set:
  @DF-RHF Final Energy:  -387.27454358932823
    Total Energy =                       -387.2745435893284593
  Basis Set: CC-PVTZ
  Basis Set:
  Basis Set: CC-PVTZ
  Basis Set:
  @DF-RHF Final Energy:  -387.27451134958125
    Total Energy =                       -387.2745113495817577
  Basis Set: CC-PVTZ
  Basis Set:
  Basis Set: CC-PVTZ
  Basis Set:
  @DF-RHF Final Energy:  -387.27455090291107
    Total Energy =                       -387.2745509029109598
  Basis Set: CC-PVTZ
  Basis Set:
  Charge       = 0
  Multiplicity = 1
  Basis Set: CC-PVTZ
  Basis Set:

    Orbital Energies (a.u.)
    -----------------------

    Doubly Occupied:

       1A    -20.538913     2A    -11.320553     3A    -11.230267
       4A    -11.226615     5A    -11.215190     6A    -11.214566
       7A    -11.213566     8A    -11.211609     9A    -11.206474
      10A     -1.398953    11A     -1.095183    12A     -1.057740
      13A     -1.015595    14A     -0.970251    15A     -0.891635
      16A     -0.814809    17A     -0.791572    18A     -0.731130
      19A     -0.662530    20A     -0.654297    21A     -0.633332
      22A     -0.626958    23A     -0.596700    24A     -0.585410
      25A     -0.567755    26A     -0.559840    27A     -0.541556
      28A     -0.527430    29A     -0.513128    30A     -0.492041
      31A     -0.490176    32A     -0.473266    33A     -0.464275
      34A     -0.462659    35A     -0.452927    36A     -0.401489

  @DF-RHF Final Energy:  -387.27455186322220

   => Energetics <=

    Nuclear Repulsion Energy =            439.1126889982332386
    One-Electron Energy =               -1395.0736999070277307
    Two-Electron Energy =                 568.6864590455722919
    DFT Exchange-Correlation Energy =       0.0000000000000000
    Empirical Dispersion Energy =           0.0000000000000000
    PCM Polarization Energy =               0.0000000000000000
    EFP Energy =                            0.0000000000000000
    Total Energy =                       -387.2745518632222002
    Molecular point group: c1
  Basis Set: CC-PVTZ
  Basis Set:

  -Total Gradient:
     Atom            X                  Y                   Z
    ------   -----------------  -----------------  -----------------
       1       -0.000017720378     0.000026719604    -0.000005568625
       2        0.000002093258    -0.000011592714     0.000023496589
       3        0.000013642825    -0.000017908885    -0.000016727024
       4       -0.000002069228    -0.000005698332    -0.000011451953
       5        0.000754075023    -0.001142046124    -0.000725369811
       6        0.000003810665     0.000000447166    -0.000001136401
       7       -0.000010485863     0.000009695753    -0.000003277993
       8       -0.000786437847     0.001195232752    -0.000580892779
       9       -0.000495814353     0.000771757102     0.000727867610
      10       -0.000004364102     0.000008005239    -0.000007858898
      11       -0.000011193191     0.000026534656    -0.000012955349
      12        0.000520106845    -0.000827660911     0.000629521295
      13        0.000010458186    -0.000005001969    -0.000007852711
      14        0.000003437890    -0.000014065541    -0.000010956999
      15       -0.000004200484     0.000000248969    -0.000000227215
      16        0.000009760295    -0.000009970929    -0.000003348066
      17        0.000007324069     0.000007419182     0.000006490526
      18        0.000001441874    -0.000000313504     0.000000646637
      19        0.000003753753     0.000002363511    -0.000004435275
      20       -0.000000769767    -0.000004774875     0.000004318362
      21        0.000007680731     0.000001987288     0.000002477733
      22       -0.000002948450     0.000000844679    -0.000003823793
      23        0.000006188328    -0.000006642786     0.000000564230
      24       -0.000011735483    -0.000002376241    -0.000000005457
      25        0.000003965401    -0.000003203086     0.000000505366

  **** Optimization is complete! (in 5 steps) ****
    Final optimized geometry and variables:
    Molecular point group: c1

    Geometry (in Angstrom), charge = 0, multiplicity = 1:

    O            2.870199141311     1.350069353058     0.046656017879
    C            2.840449684429     0.168329208157    -0.065449909443
    C            1.541346364979    -0.611350029075    -0.087569791498
    C            4.109626418432    -0.643325035629    -0.195221308821
    C            0.290187308206     0.244364960432     0.045214649350
    H            1.519822145589    -1.185239541209    -1.011175468819
    H            1.589051623958    -1.349994181611     0.709493805724
    C           -0.992855999117    -0.582596645801     0.041056944503
    H            0.263897429945     0.973300209054    -0.756872164148
    H            0.349903850738     0.820480850965     0.961710535428
    C           -2.257957148025     0.269580198186     0.053714918891
    H           -1.003705006350    -1.235980588528    -0.828660596015
    H           -0.996968451492    -1.241337864414     0.906911783571
    C           -3.543566873919    -0.552191005484     0.075644423914
    H           -2.261933787587     0.917950477890    -0.818998509939
    H           -2.238143201606     0.927185295428     0.919404675369
    C           -4.803716377756     0.306673485326     0.085280828455
    H           -3.563551694385    -1.210524189302    -0.788758605465
    H           -3.541886245436    -1.198047633870     0.949551353660
    H           -4.852797199880     0.939288263871    -0.794744583897
    H           -5.697347654577    -0.306663776155     0.101517161998
    H           -4.830175329122     0.952707903789     0.956482065548
    H            4.103962461426    -1.200186913565    -1.125754679307
    H            4.967230278813     0.011081883800    -0.168641796257
    H            4.175921262410    -1.364909997071     0.611611369125

  Mulliken Charges: (a.u.)
   Center  Symbol    Alpha    Beta     Spin     Total
       1     O     4.17070  4.17070  0.00000 -0.34141
       2     C     2.86223  2.86223  0.00000  0.27555
       3     C     3.11393  3.11393  0.00000 -0.22785
       4     C     3.15127  3.15127  0.00000 -0.30254
       5     C     3.08321  3.08321  0.00000 -0.16642
       6     H     0.44555  0.44555  0.00000  0.10891
       7     H     0.44549  0.44549  0.00000  0.10902
       8     C     3.09020  3.09020  0.00000 -0.18039
       9     H     0.44640  0.44640  0.00000  0.10720
      10     H     0.44587  0.44587  0.00000  0.10826
      11     C     3.08608  3.08608  0.00000 -0.17215
      12     H     0.45653  0.45653  0.00000  0.08694
      13     H     0.45569  0.45569  0.00000  0.08862
      14     C     3.08431  3.08431  0.00000 -0.16861
      15     H     0.45390  0.45390  0.00000  0.09220
      16     H     0.45362  0.45362  0.00000  0.09276
      17     C     3.15036  3.15036  0.00000 -0.30073
      18     H     0.45521  0.45521  0.00000  0.08958
      19     H     0.45508  0.45508  0.00000  0.08985
      20     H     0.45484  0.45484  0.00000  0.09032
      21     H     0.44867  0.44867  0.00000  0.10265
      22     H     0.45474  0.45474  0.00000  0.09052
      23     H     0.45040  0.45040  0.00000  0.09920
      24     H     0.43534  0.43534  0.00000  0.12931
      25     H     0.45039  0.45039  0.00000  0.09922

   Total alpha = 36.00000, Total beta = 36.00000, Total charge = -0.00000

*** Psi4 exiting successfully. Buy a developer a beer!
