                              Psi4 1.0.54 Driver

  ==> Input File <==

--------------------------------------------------------------------------
set {
	reference rhf
	basis cc-pvtz
}

set_num_threads( 4 )
memory 2 gb

molecule MOL {
0 1

H	 -3.436671	 1.252971	 -1.023948
O	 -3.458794	 0.315287	 -0.960921
C	 -3.176833	 -0.080797	 0.355545
C	 -1.763569	 0.265293	 0.799635
H	 -3.322023	 -1.153411	 0.379446
H	 -3.895666	 0.357412	 1.043326
C	 -0.673588	 -0.426921	 -0.013448
H	 -1.631247	 1.344940	 0.747504
H	 -1.664785	 -0.001597	 1.849111
C	 0.737644	 -0.043132	 0.423703
H	 -0.806301	 -0.190491	 -1.063401
H	 -0.797419	 -1.503726	 0.074090
C	 1.823802	 -0.743197	 -0.390679
H	 0.850390	 1.033804	 0.343784
H	 0.868389	 -0.286287	 1.476147
C	 3.255759	 -0.453040	 0.062263
H	 1.718052	 -0.470572	 -1.438220
H	 1.657907	 -1.815823	 -0.339960
C	 3.706831	 0.992364	 -0.133913
H	 3.928003	 -1.104069	 -0.488214
H	 3.362469	 -0.724534	 1.109318
H	 3.605613	 1.294071	 -1.171605
H	 4.748135	 1.111056	 0.143287
H	 3.129684	 1.683105	 0.468900

	symmetry c1
}
ee,wfn = energy('scf', return_wfn=True)
oeprop( wfn, 'DIPOLE', 'QUADRUPOLE', 'MULLIKEN_CHARGES')
oeprop( wfn, 'GRID_ESP')
f=open( 'psi4out.xyz', 'w' )
f.write( "24  " )
f.write( str(ee) + "\n" )
f.write( MOL.save_string_xyz() )
f.close()
--------------------------------------------------------------------------

    Molecular point group: c1

    Geometry (in Angstrom), charge = 0, multiplicity = 1:

       Center              X                  Y                   Z               Mass
    ------------   -----------------  -----------------  -----------------  -----------------
           H         -3.436473176800     1.252943892159    -1.023891980960     1.007825032070
           O         -3.458596176800     0.315259892159    -0.960864980960    15.994914619560
           C         -3.176635176800    -0.080824107841     0.355601019040    12.000000000000
           C         -1.763371176800     0.265265892159     0.799691019040    12.000000000000
           H         -3.321825176800    -1.153438107841     0.379502019040     1.007825032070
           H         -3.895468176800     0.357384892159     1.043382019040     1.007825032070
           C         -0.673390176800    -0.426948107841    -0.013391980960    12.000000000000
           H         -1.631049176800     1.344912892159     0.747560019040     1.007825032070
           H         -1.664587176800    -0.001624107841     1.849167019040     1.007825032070
           C          0.737841823200    -0.043159107841     0.423759019040    12.000000000000
           H         -0.806103176800    -0.190518107841    -1.063344980960     1.007825032070
           H         -0.797221176800    -1.503753107841     0.074146019040     1.007825032070
           C          1.823999823200    -0.743224107841    -0.390622980960    12.000000000000
           H          0.850587823200     1.033776892159     0.343840019040     1.007825032070
           H          0.868586823200    -0.286314107841     1.476203019040     1.007825032070
           C          3.255956823200    -0.453067107841     0.062319019040    12.000000000000
           H          1.718249823200    -0.470599107841    -1.438163980960     1.007825032070
           H          1.658104823200    -1.815850107841    -0.339903980960     1.007825032070
           C          3.707028823200     0.992336892159    -0.133856980960    12.000000000000
           H          3.928200823200    -1.104096107841    -0.488157980960     1.007825032070
           H          3.362666823200    -0.724561107841     1.109374019040     1.007825032070
           H          3.605810823200     1.294043892159    -1.171548980960     1.007825032070
           H          4.748332823200     1.111028892159     0.143343019040     1.007825032070
           H          3.129881823200     1.683077892159     0.468956019040     1.007825032070

  Charge       = 0
  Multiplicity = 1
  Basis Set: CC-PVTZ
  Basis Set:

    Orbital Energies (a.u.)
    -----------------------

    Doubly Occupied:

       1A    -20.546265     2A    -11.265502     3A    -11.215158
       4A    -11.212100     5A    -11.210196     6A    -11.209434
       7A    -11.208927     8A    -11.205303     9A     -1.364077
      10A     -1.089874    11A     -1.049440    12A     -0.986752
      13A     -0.916021    14A     -0.851185    15A     -0.801502
      16A     -0.776641    17A     -0.681866    18A     -0.654629
      19A     -0.626339    20A     -0.621404    21A     -0.598001
      22A     -0.585836    23A     -0.558781    24A     -0.541723
      25A     -0.515956    26A     -0.509945    27A     -0.499836
      28A     -0.473203    29A     -0.468037    30A     -0.461141
      31A     -0.456311    32A     -0.451257    33A     -0.421262

  @DF-RHF Final Energy:  -349.38043213913699

   => Energetics <=

    Nuclear Repulsion Energy =            384.8841481516475937
    One-Electron Energy =               -1236.4612718411603964
    Two-Electron Energy =                 502.1966915503761584
    DFT Exchange-Correlation Energy =       0.0000000000000000
    Empirical Dispersion Energy =           0.0000000000000000
    PCM Polarization Energy =               0.0000000000000000
    EFP Energy =                            0.0000000000000000
    Total Energy =                       -349.3804321391365875

  Mulliken Charges: (a.u.)
   Center  Symbol    Alpha    Beta     Spin     Total
       1     H     0.39530  0.39530  0.00000  0.20941
       2     O     4.20374  4.20374  0.00000 -0.40748
       3     C     2.97766  2.97766  0.00000  0.04469
       4     C     3.10172  3.10172  0.00000 -0.20344
       5     H     0.45892  0.45892  0.00000  0.08215
       6     H     0.46033  0.46033  0.00000  0.07935
       7     C     3.08683  3.08683  0.00000 -0.17366
       8     H     0.45933  0.45933  0.00000  0.08133
       9     H     0.45339  0.45339  0.00000  0.09322
      10     C     3.09169  3.09169  0.00000 -0.18337
      11     H     0.44641  0.44641  0.00000  0.10718
      12     H     0.45506  0.45506  0.00000  0.08988
      13     C     3.09455  3.09455  0.00000 -0.18909
      14     H     0.45341  0.45341  0.00000  0.09318
      15     H     0.45619  0.45619  0.00000  0.08763
      16     C     3.09016  3.09016  0.00000 -0.18032
      17     H     0.45358  0.45358  0.00000  0.09285
      18     H     0.44971  0.44971  0.00000  0.10059
      19     C     3.15250  3.15250  0.00000 -0.30500
      20     H     0.44859  0.44859  0.00000  0.10282
      21     H     0.45522  0.45522  0.00000  0.08957
      22     H     0.45485  0.45485  0.00000  0.09030
      23     H     0.44663  0.44663  0.00000  0.10675
      24     H     0.45426  0.45426  0.00000  0.09148

   Total alpha = 33.00000, Total beta = 33.00000, Total charge =  0.00000

*** Psi4 exiting successfully. Buy a developer a beer!
