                              Psi4 1.0.54 Driver

  ==> Input File <==

--------------------------------------------------------------------------
set {
	reference rhf
	basis cc-pvtz
}

set_num_threads( 4 )
memory 2 gb

molecule MOL {
0 1

H	 0.041373	 -2.586798	 -0.008286
C	 -0.846745	 -1.952220	 -0.010289
N	 -0.537714	 -0.645117	 0.000000
O	 -1.944980	 -2.411016	 -0.020573
C	 -1.522613	 0.412524	 0.000000
H	 0.422548	 -0.404664	 0.007983
H	 -2.150256	 0.356137	 -0.880771
H	 -1.005621	 1.357208	 0.000000
H	 -2.150256	 0.356137	 0.880771

	symmetry c1
}
set optking {
	frozen_dihedral = ("
		6 3 5 7
	")
}

ee,wfn = optimize('scf', return_wfn=True)
oeprop( wfn, 'DIPOLE', 'QUADRUPOLE', 'MULLIKEN_CHARGES')
f=open( 'psi4out.xyz', 'w' )
f.write( "9  " )
f.write( str(ee) + "\n" )
f.write( MOL.save_string_xyz() )
f.close()
--------------------------------------------------------------------------

    Molecular point group: c1
  Charge       = 0
  Multiplicity = 1
  Basis Set: CC-PVTZ
  Basis Set:
  @DF-RHF Final Energy:  -208.04347859995789
    Total Energy =                       -208.0434785999578935
    Molecular point group: c1
  Basis Set: CC-PVTZ
  Basis Set:
  Basis Set: CC-PVTZ
  Basis Set:
  @DF-RHF Final Energy:  -208.04364756592673
    Total Energy =                       -208.0436475659267330
  Basis Set: CC-PVTZ
  Basis Set:
  Basis Set: CC-PVTZ
  Basis Set:
  @DF-RHF Final Energy:  -208.04366221086002
    Total Energy =                       -208.0436622108600204
  Basis Set: CC-PVTZ
  Basis Set:
  Basis Set: CC-PVTZ
  Basis Set:
  @DF-RHF Final Energy:  -208.04366136504751
    Total Energy =                       -208.0436613650476261
  Basis Set: CC-PVTZ
  Basis Set:
  Charge       = 0
  Multiplicity = 1
  Basis Set: CC-PVTZ
  Basis Set:

    Orbital Energies (a.u.)
    -----------------------

    Doubly Occupied:

       1A    -20.516570     2A    -15.584352     3A    -11.335892
       4A    -11.260614     5A     -1.393908     6A     -1.239262
       7A     -0.969763     8A     -0.809341     9A     -0.749199
      10A     -0.645742    11A     -0.629925    12A     -0.596177
      13A     -0.559752    14A     -0.536704    15A     -0.428163
      16A     -0.396731

  @DF-RHF Final Energy:  -208.04366284828203

   => Energetics <=

    Nuclear Repulsion Energy =            122.9448275781138307
    One-Electron Energy =                -526.6727868870639213
    Two-Electron Energy =                 195.6842964606681221
    DFT Exchange-Correlation Energy =       0.0000000000000000
    Empirical Dispersion Energy =           0.0000000000000000
    PCM Polarization Energy =               0.0000000000000000
    EFP Energy =                            0.0000000000000000
    Total Energy =                       -208.0436628482819401
    Molecular point group: c1
  Basis Set: CC-PVTZ
  Basis Set:

  -Total Gradient:
     Atom            X                  Y                   Z
    ------   -----------------  -----------------  -----------------
       1       -0.000029679985    -0.000045885956     0.000016891142
       2        0.000061868073    -0.000032632833    -0.000049606461
       3        0.000056676527     0.000047899066     0.000032223566
       4       -0.000017985019    -0.000023205808     0.000014071919
       5        0.000063059038     0.000100308299    -0.000008532188
       6       -0.000031762667    -0.000015022922    -0.000006578253
       7       -0.000024135726     0.000007733121    -0.000052614730
       8       -0.000063782728    -0.000048272734     0.000003385409
       9       -0.000014257514     0.000009079764     0.000050759595

  **** Optimization is complete! (in 5 steps) ****
    Final optimized geometry and variables:
    Molecular point group: c1

    Geometry (in Angstrom), charge = 0, multiplicity = 1:

    H            1.239259233686    -1.480580358918     0.000296517549
    C            0.369455244664    -0.820997106993    -0.001627251630
    N            0.699215977604     0.479176756897     0.005914655475
    O           -0.744266644383    -1.241482962502    -0.009387137516
    C           -0.297930680229     1.526648328794     0.005002549204
    H            1.658557445531     0.719089118070     0.012054262379
    H           -0.925678907370     1.462303684635    -0.873294442547
    H            0.203990782681     2.483160355313     0.008159430017
    H           -0.930859248628     1.459344828602     0.879395532191

  Mulliken Charges: (a.u.)
   Center  Symbol    Alpha    Beta     Spin     Total
       1     H     0.46447  0.46447  0.00000  0.07107
       2     C     2.87935  2.87935  0.00000  0.24129
       3     N     3.60565  3.60565  0.00000 -0.21130
       4     O     4.21445  4.21445  0.00000 -0.42890
       5     C     3.07475  3.07475  0.00000 -0.14950
       6     H     0.40992  0.40992  0.00000  0.18016
       7     H     0.44832  0.44832  0.00000  0.10335
       8     H     0.45463  0.45463  0.00000  0.09074
       9     H     0.44845  0.44845  0.00000  0.10309

   Total alpha = 16.00000, Total beta = 16.00000, Total charge = -0.00000

*** Psi4 exiting successfully. Buy a developer a beer!
