                              Psi4 1.0.54 Driver

  ==> Input File <==

--------------------------------------------------------------------------
set {
	reference rhf
	basis cc-pvtz
}

set_num_threads( 4 )
memory 2 gb

molecule MOL {
0 1

H	 2.858918	 -1.623953	 -0.688246
O	 2.824271	 -1.154299	 0.131461
C	 2.076458	 -0.067370	 -0.038225
C	 0.626018	 -0.337582	 0.258241
O	 2.538288	 0.965419	 -0.381593
C	 -0.267326	 0.883135	 0.076490
H	 0.325620	 -1.161483	 -0.378003
H	 0.574537	 -0.713685	 1.275261
C	 -1.726822	 0.642622	 0.463839
H	 -0.210803	 1.217591	 -0.953497
H	 0.129920	 1.693110	 0.675679
C	 -2.480891	 -0.340606	 -0.429852
H	 -2.243098	 1.597649	 0.438609
H	 -1.776542	 0.301208	 1.495542
C	 -3.955933	 -0.460128	 -0.060472
H	 -2.393755	 -0.020485	 -1.464726
H	 -2.024244	 -1.323637	 -0.374360
H	 -4.467673	 -1.160944	 -0.709827
H	 -4.458917	 0.497287	 -0.144505
H	 -4.076458	 -0.806900	 0.960497

	symmetry c1
}
set optking {
	frozen_dihedral = ("
		1 2 3 5
	")
}

ee,wfn = optimize('scf', return_wfn=True)
oeprop( wfn, 'DIPOLE', 'QUADRUPOLE', 'MULLIKEN_CHARGES')
f=open( 'psi4out.xyz', 'w' )
f.write( "20  " )
f.write( str(ee) + "\n" )
f.write( MOL.save_string_xyz() )
f.close()
--------------------------------------------------------------------------

    Molecular point group: c1
  Charge       = 0
  Multiplicity = 1
  Basis Set: CC-PVTZ
  Basis Set:
  @DF-RHF Final Energy:  -384.07362341133074
    Total Energy =                       -384.0736234113307432
    Molecular point group: c1
  Basis Set: CC-PVTZ
  Basis Set:
  Basis Set: CC-PVTZ
  Basis Set:
  @DF-RHF Final Energy:  -384.07401632548880
    Total Energy =                       -384.0740163254889694
  Basis Set: CC-PVTZ
  Basis Set:
  Basis Set: CC-PVTZ
  Basis Set:
  @DF-RHF Final Energy:  -384.07501987544890
    Total Energy =                       -384.0750198754491294
  Basis Set: CC-PVTZ
  Basis Set:
  Basis Set: CC-PVTZ
  Basis Set:
  @DF-RHF Final Energy:  -384.07530000519910
    Total Energy =                       -384.0753000051986419
  Basis Set: CC-PVTZ
  Basis Set:
  Basis Set: CC-PVTZ
  Basis Set:
  @DF-RHF Final Energy:  -384.07530905912927
    Total Energy =                       -384.0753090591294949
  Basis Set: CC-PVTZ
  Basis Set:
  Basis Set: CC-PVTZ
  Basis Set:
  @DF-RHF Final Energy:  -384.07526454830611
    Total Energy =                       -384.0752645483067340
  Basis Set: CC-PVTZ
  Basis Set:
  Basis Set: CC-PVTZ
  Basis Set:
  @DF-RHF Final Energy:  -384.07531763234800
    Total Energy =                       -384.0753176323476623
  Basis Set: CC-PVTZ
  Basis Set:
  Charge       = 0
  Multiplicity = 1
  Basis Set: CC-PVTZ
  Basis Set:

    Orbital Energies (a.u.)
    -----------------------

    Doubly Occupied:

       1A    -20.585448     2A    -20.550577     3A    -11.373980
       4A    -11.240925     5A    -11.222646     6A    -11.220981
       7A    -11.220098     8A    -11.212406     9A     -1.462948
      10A     -1.370085    11A     -1.098729    12A     -1.042357
      13A     -0.960491    14A     -0.866952    15A     -0.819059
      16A     -0.783596    17A     -0.714021    18A     -0.678438
      19A     -0.666810    20A     -0.634538    21A     -0.618633
      22A     -0.588790    23A     -0.561913    24A     -0.557420
      25A     -0.530624    26A     -0.511916    27A     -0.506716
      28A     -0.493696    29A     -0.472423    30A     -0.468044
      31A     -0.460130    32A     -0.446170

  @DF-RHF Final Energy:  -384.07531752155251

   => Energetics <=

    Nuclear Repulsion Energy =            375.7274403841595358
    One-Electron Energy =               -1267.7223922316616154
    Two-Electron Energy =                 507.9196343259491755
    DFT Exchange-Correlation Energy =       0.0000000000000000
    Empirical Dispersion Energy =           0.0000000000000000
    PCM Polarization Energy =               0.0000000000000000
    EFP Energy =                            0.0000000000000000
    Total Energy =                       -384.0753175215529041
    Molecular point group: c1
  Basis Set: CC-PVTZ
  Basis Set:

  -Total Gradient:
     Atom            X                  Y                   Z
    ------   -----------------  -----------------  -----------------
       1       -0.001869220583    -0.001248692964     0.000452783119
       2        0.002386003196     0.001797928761     0.000298004068
       3       -0.000655618008    -0.001080135730    -0.002675352646
       4        0.000013848131    -0.000010127828    -0.000015808191
       5        0.000120902802     0.000553629591     0.001929773062
       6       -0.000004381235    -0.000009316989    -0.000026600031
       7        0.000021963311     0.000014934078     0.000015794280
       8       -0.000002573237    -0.000008448817     0.000016743528
       9        0.000016086272    -0.000042856078     0.000010456423
      10        0.000001516017    -0.000013648223    -0.000010375254
      11       -0.000013391199     0.000020376324    -0.000000297545
      12       -0.000003359311     0.000002024991     0.000005339784
      13        0.000008364340     0.000013878854     0.000009695484
      14        0.000011527581    -0.000017564470     0.000005495033
      15        0.000002565694     0.000012076249    -0.000001973085
      16        0.000005846325    -0.000002093655    -0.000016433351
      17       -0.000037426907     0.000014985625     0.000007690518
      18       -0.000001037999     0.000003434568    -0.000003238477
      19       -0.000005622304    -0.000000058757    -0.000001506526
      20        0.000004007107    -0.000000325529    -0.000000190194

  **** Optimization is complete! (in 8 steps) ****
    Final optimized geometry and variables:
    Molecular point group: c1

    Geometry (in Angstrom), charge = 0, multiplicity = 1:

    H            3.010964253412    -1.667778569635    -0.511493000146
    O            2.862836649277    -1.158596585865     0.268035325073
    C            2.082607401513    -0.070780927966     0.022943643874
    C            0.619170879285    -0.328525488567     0.267688724465
    O            2.549882019298     0.960652007878    -0.285928180883
    C           -0.267987802590     0.891090081164     0.054278658148
    H            0.332413294697    -1.156769321524    -0.372246052054
    H            0.536475845952    -0.704458848662     1.283045576467
    C           -1.738532382758     0.656430986660     0.401796847565
    H           -0.182125880840     1.221115271821    -0.975465603032
    H            0.114550921114     1.702913375026     0.660469225990
    C           -2.471751565054    -0.325646674694    -0.510437195215
    H           -2.250462881606     1.613207518633     0.360798900492
    H           -1.817511248780     0.317243230998     1.432335080153
    C           -3.956355823445    -0.441023317540    -0.179760605587
    H           -2.356749814672    -0.007061259779    -1.543197029125
    H           -2.019590202732    -1.310080042682    -0.441629014375
    H           -4.452215323672    -1.143547026577    -0.839521130071
    H           -4.454968054257     0.516950060699    -0.281067057628
    H           -4.104499690292    -0.783197181409     0.839086948471

  Mulliken Charges: (a.u.)
   Center  Symbol    Alpha    Beta     Spin     Total
       1     H     0.38844  0.38844  0.00000  0.22312
       2     O     4.17601  4.17601  0.00000 -0.35202
       3     C     2.79763  2.79763  0.00000  0.40475
       4     C     3.11647  3.11647  0.00000 -0.23294
       5     O     4.16119  4.16119  0.00000 -0.32239
       6     C     3.09479  3.09479  0.00000 -0.18958
       7     H     0.44814  0.44814  0.00000  0.10372
       8     H     0.43595  0.43595  0.00000  0.12809
       9     C     3.09925  3.09925  0.00000 -0.19850
      10     H     0.44634  0.44634  0.00000  0.10732
      11     H     0.43776  0.43776  0.00000  0.12448
      12     C     3.08676  3.08676  0.00000 -0.17352
      13     H     0.44520  0.44520  0.00000  0.10961
      14     H     0.45324  0.45324  0.00000  0.09352
      15     C     3.14936  3.14936  0.00000 -0.29871
      16     H     0.45289  0.45289  0.00000  0.09422
      17     H     0.45502  0.45502  0.00000  0.08997
      18     H     0.44784  0.44784  0.00000  0.10432
      19     H     0.45325  0.45325  0.00000  0.09350
      20     H     0.45448  0.45448  0.00000  0.09103

   Total alpha = 32.00000, Total beta = 32.00000, Total charge =  0.00000

*** Psi4 exiting successfully. Buy a developer a beer!
