                              Psi4 1.0.54 Driver

  ==> Input File <==

--------------------------------------------------------------------------
set {
	reference rhf
	basis cc-pvtz
}

set_num_threads( 4 )
memory 2 gb

molecule MOL {
0 1

H	 3.721907	 -0.933076	 -0.066039
O	 2.824271	 -1.154299	 0.131461
C	 2.076458	 -0.067370	 -0.038225
C	 0.626018	 -0.337582	 0.258241
O	 2.538288	 0.965419	 -0.381593
C	 -0.267326	 0.883135	 0.076490
H	 0.325620	 -1.161483	 -0.378003
H	 0.574537	 -0.713685	 1.275261
C	 -1.726822	 0.642622	 0.463839
H	 -0.210803	 1.217591	 -0.953497
H	 0.129920	 1.693110	 0.675679
C	 -2.480891	 -0.340606	 -0.429852
H	 -2.243098	 1.597649	 0.438609
H	 -1.776542	 0.301208	 1.495542
C	 -2.148890	 -1.795793	 -0.115716
H	 -3.549504	 -0.181700	 -0.312173
H	 -2.256012	 -0.146601	 -1.473761
H	 -2.697670	 -2.471780	 -0.761135
H	 -2.399533	 -2.041272	 0.910742
H	 -1.090981	 -1.993818	 -0.252723

	symmetry c1
}
set optking {
	frozen_dihedral = ("
		16 12 9 6
	")
}

ee,wfn = optimize('scf', return_wfn=True)
oeprop( wfn, 'DIPOLE', 'QUADRUPOLE', 'MULLIKEN_CHARGES')
f=open( 'psi4out.xyz', 'w' )
f.write( "20  " )
f.write( str(ee) + "\n" )
f.write( MOL.save_string_xyz() )
f.close()
--------------------------------------------------------------------------

    Molecular point group: c1
  Charge       = 0
  Multiplicity = 1
  Basis Set: CC-PVTZ
  Basis Set:
  @DF-RHF Final Energy:  -384.08422317366075
    Total Energy =                       -384.0842231736612575
    Molecular point group: c1
  Basis Set: CC-PVTZ
  Basis Set:
  Basis Set: CC-PVTZ
  Basis Set:
  @DF-RHF Final Energy:  -384.08444388794533
    Total Energy =                       -384.0844438879453264
  Basis Set: CC-PVTZ
  Basis Set:
  Basis Set: CC-PVTZ
  Basis Set:
  @DF-RHF Final Energy:  -384.08937105088597
    Total Energy =                       -384.0893710508863705
  Basis Set: CC-PVTZ
  Basis Set:
  Basis Set: CC-PVTZ
  Basis Set:
  @DF-RHF Final Energy:  -384.08989416603794
    Total Energy =                       -384.0898941660377659
  Basis Set: CC-PVTZ
  Basis Set:
  @DF-RHF Final Energy:  -384.08989176137749
    Total Energy =                       -384.0898917613774302
  @DF-RHF Final Energy:  -384.09000408084955
    Total Energy =                       -384.0900040808496669
  @DF-RHF Final Energy:  -384.09004621856081
    Total Energy =                       -384.0900462185603601
  @DF-RHF Final Energy:  -384.09005324314762
    Total Energy =                       -384.0900532431480769
  @DF-RHF Final Energy:  -384.09005457896222
    Total Energy =                       -384.0900545789623948
  @DF-RHF Final Energy:  -384.09005777441035
    Total Energy =                       -384.0900577744098428
  Basis Set: CC-PVTZ
  Basis Set:
  @DF-RHF Final Energy:  -384.09006052535926
    Total Energy =                       -384.0900605253593767
  Basis Set: CC-PVTZ
  Basis Set:
  Basis Set: CC-PVTZ
  Basis Set:
  @DF-RHF Final Energy:  -384.09006603192904
    Total Energy =                       -384.0900660319290409
  Basis Set: CC-PVTZ
  Basis Set:
  Basis Set: CC-PVTZ
  Basis Set:
  @DF-RHF Final Energy:  -384.09006856229735
    Total Energy =                       -384.0900685622976880
  Basis Set: CC-PVTZ
  Basis Set:
  Charge       = 0
  Multiplicity = 1
  Basis Set: CC-PVTZ
  Basis Set:

    Orbital Energies (a.u.)
    -----------------------

    Doubly Occupied:

       1A    -20.603785     2A    -20.540445     3A    -11.373196
       4A    -11.238165     5A    -11.221067     6A    -11.219284
       7A    -11.218679     8A    -11.211702     9A     -1.477359
      10A     -1.368863    11A     -1.094937    12A     -1.040302
      13A     -0.964887    14A     -0.878292    15A     -0.811503
      16A     -0.776684    17A     -0.703646    18A     -0.691839
      19A     -0.667629    20A     -0.627309    21A     -0.613234
      22A     -0.598548    23A     -0.579655    24A     -0.555734
      25A     -0.535171    26A     -0.522376    27A     -0.498014
      28A     -0.484291    29A     -0.470294    30A     -0.466676
      31A     -0.455515    32A     -0.443417

  @DF-RHF Final Energy:  -384.09006903277924

   => Energetics <=

    Nuclear Repulsion Energy =            381.6313198417291801
    One-Electron Energy =               -1279.5377931872781119
    Two-Electron Energy =                 513.8164043127694640
    DFT Exchange-Correlation Energy =       0.0000000000000000
    Empirical Dispersion Energy =           0.0000000000000000
    PCM Polarization Energy =               0.0000000000000000
    EFP Energy =                            0.0000000000000000
    Total Energy =                       -384.0900690327794109
    Molecular point group: c1
  Basis Set: CC-PVTZ
  Basis Set:

  -Total Gradient:
     Atom            X                  Y                   Z
    ------   -----------------  -----------------  -----------------
       1        0.000010390896     0.000005795650    -0.000003210062
       2       -0.000015797776    -0.000008715513     0.000002285041
       3        0.000001182536    -0.000042440113     0.000019971299
       4       -0.000014679699     0.000003008015    -0.000018640289
       5        0.000012646116     0.000047029203    -0.000021313092
       6       -0.000004763153    -0.000010758013     0.000016489819
       7        0.000010166026    -0.000004604128    -0.000001702546
       8        0.000002338308     0.000001743427     0.000019462965
       9       -0.000005405998     0.000006070560    -0.000014940638
      10        0.000000456205    -0.000001293231    -0.000005955913
      11        0.000000589242     0.000006821260     0.000004512877
      12        0.000009190502    -0.000006842721    -0.000003423785
      13        0.000003688294     0.000006129380    -0.000001077978
      14        0.000003441103    -0.000001452967     0.000000587033
      15       -0.000007677189     0.000005770951    -0.000007569226
      16       -0.000004495523    -0.000001275131     0.000008786180
      17       -0.000001374936     0.000000680805    -0.000001783225
      18        0.000001458284     0.000000683582     0.000000071947
      19        0.000002966855    -0.000001400590     0.000002431869
      20       -0.000004320089    -0.000004950425     0.000005017725

  **** Optimization is complete! (in 14 steps) ****
    Final optimized geometry and variables:
    Molecular point group: c1

    Geometry (in Angstrom), charge = 0, multiplicity = 1:

    H            3.610388834161    -0.569702322423     0.157343810722
    O            2.723727394119    -0.805413739637     0.385399805774
    C            1.912147820584     0.166386935690    -0.022882732867
    C            0.474428513030    -0.135517741045     0.307282747481
    O            2.315654688594     1.131449375183    -0.574125803197
    C           -0.489278024145     0.946949492568    -0.164882073155
    H            0.256071209115    -1.103520604234    -0.122624017552
    H            0.419101534927    -0.268768904084     1.383103987485
    C           -1.937185155187     0.803849808936     0.318053684145
    H           -0.469023472091     0.998470982146    -1.248167468028
    H           -0.110332568618     1.900204839736     0.181933317598
    C           -2.812483818697    -0.257885517819    -0.360683746315
    H           -2.413827879345     1.764508216367     0.153362852534
    H           -1.949536023880     0.648136833826     1.394665951640
    C           -2.612999100542    -1.702138714960     0.096373603301
    H           -3.848383526246     0.006472903683    -0.172826259109
    H           -2.680132789229    -0.195456459526    -1.437495916508
    H           -3.369468963340    -2.343404073918    -0.341478565745
    H           -2.698049912840    -1.784518493814     1.175003659560
    H           -1.650235600349    -2.103193851281    -0.190597609099

  Mulliken Charges: (a.u.)
   Center  Symbol    Alpha    Beta     Spin     Total
       1     H     0.38236  0.38236  0.00000  0.23528
       2     O     4.16049  4.16049  0.00000 -0.32098
       3     C     2.80458  2.80458  0.00000  0.39084
       4     C     3.11553  3.11553  0.00000 -0.23106
       5     O     4.19092  4.19092  0.00000 -0.38184
       6     C     3.08975  3.08975  0.00000 -0.17950
       7     H     0.43543  0.43543  0.00000  0.12914
       8     H     0.43638  0.43638  0.00000  0.12724
       9     C     3.10657  3.10657  0.00000 -0.21313
      10     H     0.44692  0.44692  0.00000  0.10616
      11     H     0.43841  0.43841  0.00000  0.12318
      12     C     3.08800  3.08800  0.00000 -0.17601
      13     H     0.44206  0.44206  0.00000  0.11588
      14     H     0.45396  0.45396  0.00000  0.09208
      15     C     3.15539  3.15539  0.00000 -0.31079
      16     H     0.44768  0.44768  0.00000  0.10465
      17     H     0.45323  0.45323  0.00000  0.09354
      18     H     0.44423  0.44423  0.00000  0.11154
      19     H     0.45272  0.45272  0.00000  0.09456
      20     H     0.45539  0.45539  0.00000  0.08922

   Total alpha = 32.00000, Total beta = 32.00000, Total charge = -0.00000

*** Psi4 exiting successfully. Buy a developer a beer!
