                              Psi4 1.0.54 Driver

  ==> Input File <==

--------------------------------------------------------------------------
set {
	reference rhf
	basis cc-pvtz
}

set_num_threads( 4 )
memory 2 gb

molecule MOL {
0 1

H	 -2.504828	 2.441958	 0.475612
O	 -1.822531	 1.847246	 0.224648
C	 -2.302264	 0.528872	 0.237390
C	 -1.175688	 -0.398187	 -0.171891
H	 -2.658650	 0.263034	 1.230412
H	 -3.138602	 0.421439	 -0.450234
C	 0.196029	 0.106276	 0.266738
H	 -1.201873	 -0.515469	 -1.250677
H	 -1.365975	 -1.378728	 0.252664
C	 1.330220	 -0.826136	 -0.155230
H	 0.359542	 1.097229	 -0.145561
H	 0.212134	 0.218135	 1.348778
C	 2.719700	 -0.407669	 0.328325
H	 1.339388	 -0.911200	 -1.239363
H	 1.119001	 -1.821953	 0.224128
C	 3.241564	 0.893452	 -0.276737
H	 3.418299	 -1.204729	 0.093035
H	 2.711776	 -0.323368	 1.411960
H	 3.254204	 0.841071	 -1.360784
H	 2.634460	 1.745075	 0.005842
H	 4.254264	 1.092401	 0.054971

	symmetry c1
}
set optking {
	frozen_dihedral = ("
		2 3 4 8
	")
}

ee,wfn = optimize('scf', return_wfn=True)
oeprop( wfn, 'DIPOLE', 'QUADRUPOLE', 'MULLIKEN_CHARGES')
f=open( 'psi4out.xyz', 'w' )
f.write( "21  " )
f.write( str(ee) + "\n" )
f.write( MOL.save_string_xyz() )
f.close()
--------------------------------------------------------------------------

    Molecular point group: c1
  Charge       = 0
  Multiplicity = 1
  Basis Set: CC-PVTZ
  Basis Set:
  @DF-RHF Final Energy:  -310.32779022934426
    Total Energy =                       -310.3277902293441457
    Molecular point group: c1
  Basis Set: CC-PVTZ
  Basis Set:
  Basis Set: CC-PVTZ
  Basis Set:
  @DF-RHF Final Energy:  -310.32853475105645
    Total Energy =                       -310.3285347510565089
  Basis Set: CC-PVTZ
  Basis Set:
  Basis Set: CC-PVTZ
  Basis Set:
  @DF-RHF Final Energy:  -310.32915263854966
    Total Energy =                       -310.3291526385498855
  Basis Set: CC-PVTZ
  Basis Set:
  Basis Set: CC-PVTZ
  Basis Set:
  @DF-RHF Final Energy:  -310.32918299231187
    Total Energy =                       -310.3291829923117575
  Basis Set: CC-PVTZ
  Basis Set:
  Basis Set: CC-PVTZ
  Basis Set:
  @DF-RHF Final Energy:  -310.32918423279551
    Total Energy =                       -310.3291842327955692
  Basis Set: CC-PVTZ
  Basis Set:
  Basis Set: CC-PVTZ
  Basis Set:
  @DF-RHF Final Energy:  -310.32918621501204
    Total Energy =                       -310.3291862150121005
  Basis Set: CC-PVTZ
  Basis Set:
  Charge       = 0
  Multiplicity = 1
  Basis Set: CC-PVTZ
  Basis Set:

    Orbital Energies (a.u.)
    -----------------------

    Doubly Occupied:

       1A    -20.546009     2A    -11.266482     3A    -11.210844
       4A    -11.208137     5A    -11.205879     6A    -11.202694
       7A    -11.200441     8A     -1.364019     9A     -1.080762
      10A     -1.029134    11A     -0.953422    12A     -0.876148
      13A     -0.800918    14A     -0.773208    15A     -0.702456
      16A     -0.651888    17A     -0.621315    18A     -0.602803
      19A     -0.587046    20A     -0.563011    21A     -0.537703
      22A     -0.520964    23A     -0.499280    24A     -0.494113
      25A     -0.479871    26A     -0.457299    27A     -0.448200
      28A     -0.438799    29A     -0.430094

  @DF-RHF Final Energy:  -310.32918643886444

   => Energetics <=

    Nuclear Repulsion Energy =            318.3756567442695768
    One-Electron Energy =               -1051.9038083279992861
    Two-Electron Energy =                 423.1989651448649852
    DFT Exchange-Correlation Energy =       0.0000000000000000
    Empirical Dispersion Energy =           0.0000000000000000
    PCM Polarization Energy =               0.0000000000000000
    EFP Energy =                            0.0000000000000000
    Total Energy =                       -310.3291864388647241
    Molecular point group: c1
  Basis Set: CC-PVTZ
  Basis Set:

  -Total Gradient:
     Atom            X                  Y                   Z
    ------   -----------------  -----------------  -----------------
       1        0.000007121605    -0.000039992556    -0.000001442400
       2        0.001472418993    -0.000254239244     0.004660669082
       3       -0.002793065039    -0.000815781168    -0.005975408445
       4        0.004978805235     0.006203376299     0.000525536063
       5        0.000004651967    -0.000025587656    -0.000006710693
       6       -0.000003216820    -0.000034807360     0.000002786255
       7        0.000000315682    -0.000006001575     0.000019322188
       8       -0.003669617780    -0.005057199395     0.000764787723
       9       -0.000007386553     0.000021594759     0.000010128308
      10        0.000024992349     0.000016809520    -0.000023489210
      11       -0.000010768572    -0.000021076144    -0.000000259207
      12        0.000002863359     0.000010464750     0.000019907886
      13       -0.000020057782     0.000014410642     0.000018079547
      14       -0.000002051537    -0.000001454401    -0.000010655086
      15        0.000006166249    -0.000000032629    -0.000001381813
      16        0.000006896787    -0.000006404527    -0.000008580759
      17       -0.000003924574    -0.000002776549     0.000003152452
      18       -0.000003421640     0.000005265538     0.000006232214
      19       -0.000004851634     0.000003118521    -0.000004634612
      20        0.000008610345    -0.000004968696     0.000006820491
      21        0.000005519360    -0.000004718129    -0.000004859984

  **** Optimization is complete! (in 7 steps) ****
    Final optimized geometry and variables:
    Molecular point group: c1

    Geometry (in Angstrom), charge = 0, multiplicity = 1:

    H           -2.917485659160     2.178332144602     0.305553670608
    O           -2.187134552427     1.628058902986     0.092040348037
    C           -2.579793289324     0.280042681825     0.125567089280
    C           -1.417567191602    -0.621241587416    -0.282111940084
    H           -2.893154858965     0.023649556776     1.135393335781
    H           -3.426461707916     0.106802290599    -0.532392925706
    C           -0.043725436715    -0.156969186404     0.188867810935
    H           -1.431899665689    -0.777119490242    -1.356827544910
    H           -1.622935045786    -1.603466217248     0.138026463137
    C            1.056462602426    -1.155608099606    -0.165376122046
    H            0.170348597596     0.810453743913    -0.242440745145
    H           -0.064920078681    -0.012481482409     1.266570742712
    C            2.450242070070    -0.774417107074     0.336917198210
    H            1.090454856959    -1.285453182844    -1.245045100362
    H            0.796598995527    -2.126912594520     0.247486300386
    C            3.043197782637     0.473159905100    -0.313522117267
    H            3.119921703094    -1.610563834632     0.159226923294
    H            2.417195282770    -0.637431854910     1.414674015485
    H            3.083273234512     0.367099274096    -1.393008347378
    H            2.464264513654     1.360796529419    -0.090275015434
    H            4.054163632800     0.646066561965     0.037991096063

  Mulliken Charges: (a.u.)
   Center  Symbol    Alpha    Beta     Spin     Total
       1     H     0.39712  0.39712  0.00000  0.20576
       2     O     4.19473  4.19473  0.00000 -0.38946
       3     C     2.97208  2.97208  0.00000  0.05585
       4     C     3.09639  3.09639  0.00000 -0.19278
       5     H     0.47317  0.47317  0.00000  0.05367
       6     H     0.46719  0.46719  0.00000  0.06562
       7     C     3.08724  3.08724  0.00000 -0.17448
       8     H     0.45330  0.45330  0.00000  0.09341
       9     H     0.45715  0.45715  0.00000  0.08571
      10     C     3.09542  3.09542  0.00000 -0.19084
      11     H     0.44074  0.44074  0.00000  0.11852
      12     H     0.45625  0.45625  0.00000  0.08749
      13     C     3.08941  3.08941  0.00000 -0.17883
      14     H     0.45520  0.45520  0.00000  0.08959
      15     H     0.45166  0.45166  0.00000  0.09668
      16     C     3.15220  3.15220  0.00000 -0.30441
      17     H     0.44978  0.44978  0.00000  0.10045
      18     H     0.45555  0.45555  0.00000  0.08889
      19     H     0.45570  0.45570  0.00000  0.08860
      20     H     0.45183  0.45183  0.00000  0.09634
      21     H     0.44789  0.44789  0.00000  0.10421

   Total alpha = 29.00000, Total beta = 29.00000, Total charge = -0.00000

*** Psi4 exiting successfully. Buy a developer a beer!
