  ==> Input File <==

--------------------------------------------------------------------------
set {
	reference rhf
	basis 6-31G*
}

set_num_threads( 4 )
memory 2 gb

molecule MOL {
0 1

H	 1.148083	 -1.049780	 0.784252
O	 1.319262	 -0.618148	 -0.041729
C	 0.709265	 0.639550	 -0.033818
C	 1.591009	 1.749950	 0.474236
H	 -0.163964	 0.548111	 0.602038
H	 0.344741	 0.899114	 -1.027183
C	 2.775401	 1.588584	 1.029159
H	 1.183961	 2.742788	 0.359922
H	 3.203573	 0.613551	 1.175481
H	 3.352728	 2.429190	 1.369822

	symmetry c1
}
set optking {
	frozen_dihedral = ("
		5 3 2 1
	")
}

ee = optimize('scf')
oeprop('DIPOLE', 'QUADRUPOLE', 'MULLIKEN_CHARGES')
f=open( 'psi4out.xyz', 'w' )
f.write( "10  " )
f.write( str(ee) + "\n" )
f.write( MOL.save_string_xyz() )
f.close()
--------------------------------------------------------------------------

    Molecular point group: c1
  Charge       = 0
  Multiplicity = 1
  Basis Set: 6-31G*
  Basis Set:
  @DF-RHF Final Energy:  -191.91396861057461
    Total Energy =                       -191.9139686105745568
    Molecular point group: c1
  Basis Set: 6-31G*
  Basis Set:
  Basis Set: 6-31G*
  Basis Set:
  @DF-RHF Final Energy:  -191.91548523198850
    Total Energy =                       -191.9154852319884412
  Basis Set: 6-31G*
  Basis Set:
  Basis Set: 6-31G*
  Basis Set:
  @DF-RHF Final Energy:  -191.91589771456958
    Total Energy =                       -191.9158977145695530
  Basis Set: 6-31G*
  Basis Set:
  Basis Set: 6-31G*
  Basis Set:
  @DF-RHF Final Energy:  -191.91598492862732
    Total Energy =                       -191.9159849286273811
  Basis Set: 6-31G*
  Basis Set:
  Basis Set: 6-31G*
  Basis Set:
  @DF-RHF Final Energy:  -191.91600318400396
    Total Energy =                       -191.9160031840039267
  Basis Set: 6-31G*
  Basis Set:
  Charge       = 0
  Multiplicity = 1
  Basis Set: 6-31G*
  Basis Set:

    Orbital Energies (a.u.)
    -----------------------

    Doubly Occupied:

       1A    -20.560215     2A    -11.278794     3A    -11.225593
       4A    -11.213214     5A     -1.368342     6A     -1.054265
       7A     -0.925701     8A     -0.762005     9A     -0.696860
      10A     -0.654814    11A     -0.612033    12A     -0.572613
      13A     -0.520969    14A     -0.501642    15A     -0.444328
      16A     -0.359660

  @DF-RHF Final Energy:  -191.91600399395915

   => Energetics <=

    Nuclear Repulsion Energy =            119.2527771003562123
    One-Electron Energy =                -496.8354660092756490
    Two-Electron Energy =                 185.6666849149603138
    DFT Exchange-Correlation Energy =       0.0000000000000000
    Empirical Dispersion Energy =           0.0000000000000000
    PCM Polarization Energy =               0.0000000000000000
    EFP Energy =                            0.0000000000000000
    Total Energy =                       -191.9160039939590945
    Molecular point group: c1
  Basis Set: 6-31G*
  Basis Set:

  -Total Gradient:
     Atom            X                  Y                   Z
    ------   -----------------  -----------------  -----------------
       1       -0.001721965066    -0.000924482065    -0.001006264070
       2        0.002379807327     0.001262390616     0.001688627657
       3       -0.001604339617    -0.000892422391    -0.002220160429
       4        0.000074872759     0.000023536184    -0.000119701852
       5        0.000863110734     0.000513395966     0.001602513683
       6        0.000016721422     0.000015836084    -0.000002174178
       7        0.000083451260     0.000050836452    -0.000149477644
       8       -0.000030280552    -0.000013295019     0.000057839388
       9       -0.000035294548    -0.000023829632     0.000076253193
      10       -0.000026083720    -0.000011966189     0.000072544250

  **** Optimization is complete! (in 6 steps) ****
    Final optimized geometry and variables:
    Molecular point group: c1

    Geometry (in Angstrom), charge = 0, multiplicity = 1:

    H           -0.499572119443    -1.813701912646     0.469756127896
    O           -0.251713969562    -1.382982477778    -0.334907768273
    C           -0.857667094306    -0.122109947498    -0.401380506813
    C            0.000693664643     0.985847691636     0.150311321980
    H           -1.809473986640    -0.120695590811     0.127530640891
    H           -1.076739742378     0.074257529612    -1.445376869420
    C            1.222558987417     0.840039563864     0.619865881106
    H           -0.459207135320     1.962419133939     0.139954620798
    H            1.708156056572    -0.118069848763     0.632159742005
    H            1.778755683074     1.678141695106     1.000005975272

  Mulliken Charges: (a.u.)
   Center  Symbol    Alpha    Beta     Spin     Total
       1     H     0.27849  0.27849  0.00000  0.44301
       2     O     4.36792  4.36792  0.00000 -0.73584
       3     C     3.00333  3.00333  0.00000 -0.00665
       4     C     3.09040  3.09040  0.00000 -0.18080
       5     H     0.42630  0.42630  0.00000  0.14739
       6     H     0.41080  0.41080  0.00000  0.17839
       7     C     3.19374  3.19374  0.00000 -0.38748
       8     H     0.41257  0.41257  0.00000  0.17486
       9     H     0.40326  0.40326  0.00000  0.19349
      10     H     0.41319  0.41319  0.00000  0.17363

   Total alpha = 16.00000, Total beta = 16.00000, Total charge =  0.00000
