  ==> Input File <==

--------------------------------------------------------------------------
set {
	reference rhf
	basis cc-pvtz
}

set_num_threads( 4 )
memory 2 gb

molecule MOL {
0 1

H	 -3.941973	 0.934228	 -0.390224
C	 -3.240162	 0.342701	 0.161016
C	 -2.105997	 -0.000418	 -0.398703
H	 -3.485368	 0.047206	 1.162193
O	 -1.189946	 -0.765863	 0.237511
H	 -1.846458	 0.297311	 -1.398265
C	 0.026572	 -0.995256	 -0.379403
C	 1.057223	 0.049888	 -0.004615
H	 -0.054361	 -1.010670	 -1.459674
H	 0.397526	 -1.952058	 -0.044198
F	 1.954651	 0.145459	 -0.965120
F	 0.515565	 1.238354	 0.155578
F	 1.685998	 -0.253598	 1.104888

	symmetry c1
}
set optking {
	frozen_dihedral = ("
		11 8 7 9
	")
}

ee = optimize('scf')
oeprop('DIPOLE', 'QUADRUPOLE', 'MULLIKEN_CHARGES')
f=open( 'psi4out.xyz', 'w' )
f.write( "13  " )
f.write( str(ee) + "\n" )
f.write( MOL.save_string_xyz() )
f.close()
--------------------------------------------------------------------------

    Molecular point group: c1
  Charge       = 0
  Multiplicity = 1
  Basis Set: CC-PVTZ
  Basis Set:
  @DF-RHF Final Energy:  -527.73892260934838
    Total Energy =                       -527.7389226093484922
    Molecular point group: c1
  Basis Set: CC-PVTZ
  Basis Set:
  Basis Set: CC-PVTZ
  Basis Set:
  @DF-RHF Final Energy:  -527.73918430292474
    Total Energy =                       -527.7391843029249685
  Basis Set: CC-PVTZ
  Basis Set:
  Basis Set: CC-PVTZ
  Basis Set:
  @DF-RHF Final Energy:  -527.73924926217069
    Total Energy =                       -527.7392492621704605
  Basis Set: CC-PVTZ
  Basis Set:
  Basis Set: CC-PVTZ
  Basis Set:
  @DF-RHF Final Energy:  -527.73925524694141
    Total Energy =                       -527.7392552469412976
  Basis Set: CC-PVTZ
  Basis Set:
  Basis Set: CC-PVTZ
  Basis Set:
  @DF-RHF Final Energy:  -527.73925766447269
    Total Energy =                       -527.7392576644725750
  Basis Set: CC-PVTZ
  Basis Set:
  Basis Set: CC-PVTZ
  Basis Set:
  @DF-RHF Final Energy:  -527.73925996998685
    Total Energy =                       -527.7392599699868470
  Basis Set: CC-PVTZ
  Basis Set:
  Charge       = 0
  Multiplicity = 1
  Basis Set: CC-PVTZ
  Basis Set:

    Orbital Energies (a.u.)
    -----------------------

    Doubly Occupied:

       1A    -26.341329     2A    -26.339610     3A    -26.339193
       4A    -20.604360     5A    -11.498778     6A    -11.319774
       7A    -11.298616     8A    -11.213892     9A     -1.750680
      10A     -1.646657    11A     -1.645465    12A     -1.445098
      13A     -1.086837    14A     -1.020038    15A     -0.932571
      16A     -0.844739    17A     -0.838446    18A     -0.828151
      19A     -0.796106    20A     -0.731989    21A     -0.721737
      22A     -0.703048    23A     -0.680985    24A     -0.667860
      25A     -0.662045    26A     -0.650806    27A     -0.636836
      28A     -0.587765    29A     -0.565298    30A     -0.530231
      31A     -0.516756    32A     -0.356795

  @DF-RHF Final Energy:  -527.73926042371784

   => Energetics <=

    Nuclear Repulsion Energy =            412.9292763748369453
    One-Electron Energy =               -1549.7320878714681385
    Two-Electron Energy =                 609.0635510729134694
    DFT Exchange-Correlation Energy =       0.0000000000000000
    Empirical Dispersion Energy =           0.0000000000000000
    PCM Polarization Energy =               0.0000000000000000
    EFP Energy =                            0.0000000000000000
    Total Energy =                       -527.7392604237177238
    Molecular point group: c1
  Basis Set: CC-PVTZ
  Basis Set:

  -Total Gradient:
     Atom            X                  Y                   Z
    ------   -----------------  -----------------  -----------------
       1        0.000011403651     0.000026693863     0.000013851753
       2        0.000021449131    -0.000013637873     0.000012581534
       3       -0.000108605114    -0.000032093491    -0.000097530948
       4        0.000003285377     0.000002426917    -0.000001499756
       5        0.000116422937    -0.000029439954     0.000000905859
       6        0.000026970404     0.000016759693     0.000023628379
       7       -0.005107362733     0.005392934492    -0.000452125662
       8        0.003686691252    -0.004663699693     0.002517517423
       9        0.003580698093    -0.003651001297    -0.000063687283
      10        0.000004110537    -0.000003313489     0.000001305133
      11       -0.002219494652     0.002954620525    -0.002031635028
      12       -0.000041695344     0.000005132771     0.000022429215
      13        0.000026126454    -0.000005382463     0.000054259384

  **** Optimization is complete! (in 7 steps) ****
    Final optimized geometry and variables:
    Molecular point group: c1

    Geometry (in Angstrom), charge = 0, multiplicity = 1:

    H           -3.964617658480     0.927415289503    -0.369721834954
    C           -3.275436776510     0.309649907436     0.168518337000
    C           -2.109961285312     0.030465668451    -0.361417411890
    H           -3.557354552335    -0.061058792995     1.134414655437
    O           -1.202220121787    -0.753125439853     0.265026688165
    H           -1.813737519317     0.403276964520    -1.324857916883
    C            0.004772841262    -0.991689900951    -0.360457856547
    C            1.067582246201     0.044412498233    -0.013606494311
    H           -0.070031406045    -1.050628360967    -1.439134503442
    H            0.370990244130    -1.946208515774    -0.011710596840
    F            1.981266627455     0.083606288232    -0.963671163911
    F            0.560100477367     1.252389030726     0.086922713086
    F            1.674322553798    -0.226805371802     1.118412353929

  Mulliken Charges: (a.u.)
   Center  Symbol    Alpha    Beta     Spin     Total
       1     H     0.42530  0.42530  0.00000  0.14940
       2     C     3.19727  3.19727  0.00000 -0.39455
       3     C     2.95584  2.95584  0.00000  0.08832
       4     H     0.42507  0.42507  0.00000  0.14985
       5     O     4.14253  4.14253  0.00000 -0.28506
       6     H     0.43452  0.43452  0.00000  0.13096
       7     C     3.02795  3.02795  0.00000 -0.05589
       8     C     2.67232  2.67232  0.00000  0.65537
       9     H     0.45474  0.45474  0.00000  0.09051
      10     H     0.43707  0.43707  0.00000  0.12586
      11     F     4.61261  4.61261  0.00000 -0.22522
      12     F     4.60738  4.60738  0.00000 -0.21475
      13     F     4.60740  4.60740  0.00000 -0.21481

   Total alpha = 32.00000, Total beta = 32.00000, Total charge = -0.00000
