                              Psi4 1.0.54 Driver

  ==> Input File <==

--------------------------------------------------------------------------
set {
	reference rhf
	basis cc-pvtz
}

set_num_threads( 4 )
memory 2 gb

molecule MOL {
0 1

O	 -0.164246	 -1.707229	 -2.582471
C	 -0.540774	 -0.653548	 -2.183204
C	 -0.881910	 -0.448129	 -0.720509
C	 -0.681118	 0.537117	 -3.101566
C	 0.376695	 -0.140025	 0.100361
H	 -1.336947	 -1.361472	 -0.358768
H	 -1.600021	 0.357615	 -0.611157
C	 1.630207	 -0.772146	 -0.501001
H	 0.486632	 0.935267	 0.162725
H	 0.248225	 -0.501310	 1.117842
C	 2.907848	 -0.545876	 0.309149
H	 1.772784	 -0.391628	 -1.509394
H	 1.468529	 -1.842059	 -0.599744
C	 3.373802	 0.906639	 0.372125
H	 3.699140	 -1.146831	 -0.127906
H	 2.764321	 -0.923458	 1.318191
H	 3.519798	 1.311927	 -0.623875
H	 4.316899	 0.983758	 0.900700
H	 2.661122	 1.540651	 0.885346
H	 -1.732338	 0.787362	 -3.203116
H	 -0.269893	 0.308406	 -4.072728
H	 -0.184543	 1.404895	 -2.682085

	symmetry c1
}
set optking {
	frozen_dihedral = ("
		6 3 5 8
	")
}

ee,wfn = optimize('scf', return_wfn=True)
oeprop( wfn, 'DIPOLE', 'QUADRUPOLE', 'MULLIKEN_CHARGES')
f=open( 'psi4out.xyz', 'w' )
f.write( "22  " )
f.write( str(ee) + "\n" )
f.write( MOL.save_string_xyz() )
f.close()
--------------------------------------------------------------------------

    Molecular point group: c1
  Charge       = 0
  Multiplicity = 1
  Basis Set: CC-PVTZ
  Basis Set:
  @DF-RHF Final Energy:  -348.21430911656000
    Total Energy =                       -348.2143091165597752
    Molecular point group: c1
  Basis Set: CC-PVTZ
  Basis Set:
  Basis Set: CC-PVTZ
  Basis Set:
  @DF-RHF Final Energy:  -348.20936597055646
    Total Energy =                       -348.2093659705561777
  Basis Set: CC-PVTZ
  Basis Set:
  Basis Set: CC-PVTZ
  Basis Set:
  @DF-RHF Final Energy:  -348.21758104492898
    Total Energy =                       -348.2175810449285791
  Basis Set: CC-PVTZ
  Basis Set:
  Basis Set: CC-PVTZ
  Basis Set:
  @DF-RHF Final Energy:  -348.21658340872875
    Total Energy =                       -348.2165834087288090
  Basis Set: CC-PVTZ
  Basis Set:
  @DF-RHF Final Energy:  -348.21825588218184
    Total Energy =                       -348.2182558821812108
  @DF-RHF Final Energy:  -348.21846152926645
    Total Energy =                       -348.2184615292667331
  @DF-RHF Final Energy:  -348.21857066387167
    Total Energy =                       -348.2185706638717875
  @DF-RHF Final Energy:  -348.21861509090786
    Total Energy =                       -348.2186150909077469
  Basis Set: CC-PVTZ
  Basis Set:
  @DF-RHF Final Energy:  -348.21863239563595
    Total Energy =                       -348.2186323956356091
  Basis Set: CC-PVTZ
  Basis Set:
  Basis Set: CC-PVTZ
  Basis Set:
  @DF-RHF Final Energy:  -348.21863558407136
    Total Energy =                       -348.2186355840714214
  Basis Set: CC-PVTZ
  Basis Set:
  Basis Set: CC-PVTZ
  Basis Set:
  @DF-RHF Final Energy:  -348.21863245709221
    Total Energy =                       -348.2186324570924398
  Basis Set: CC-PVTZ
  Basis Set:
  Charge       = 0
  Multiplicity = 1
  Basis Set: CC-PVTZ
  Basis Set:

    Orbital Energies (a.u.)
    -----------------------

    Doubly Occupied:

       1A    -20.536984     2A    -11.319323     3A    -11.229765
       4A    -11.227762     5A    -11.226473     6A    -11.218467
       7A    -11.217745     8A    -11.211251     9A     -1.396943
      10A     -1.096289    11A     -1.044687    12A     -0.997849
      13A     -0.940394    14A     -0.862293    15A     -0.792201
      16A     -0.727143    17A     -0.658710    18A     -0.646146
      19A     -0.629001    20A     -0.623777    21A     -0.599820
      22A     -0.579773    23A     -0.569693    24A     -0.544336
      25A     -0.536806    26A     -0.520633    27A     -0.502313
      28A     -0.489740    29A     -0.471336    30A     -0.463128
      31A     -0.454559    32A     -0.399947

  @DF-RHF Final Energy:  -348.21863283491217

   => Energetics <=

    Nuclear Repulsion Energy =            383.3062299248655904
    One-Electron Energy =               -1231.5791489219591313
    Two-Electron Energy =                 500.0542861621810857
    DFT Exchange-Correlation Energy =       0.0000000000000000
    Empirical Dispersion Energy =           0.0000000000000000
    PCM Polarization Energy =               0.0000000000000000
    EFP Energy =                            0.0000000000000000
    Total Energy =                       -348.2186328349123983
    Molecular point group: c1
  Basis Set: CC-PVTZ
  Basis Set:

  -Total Gradient:
     Atom            X                  Y                   Z
    ------   -----------------  -----------------  -----------------
       1        0.000254724661     0.000152835028     0.000237067222
       2       -0.000385252268    -0.000043243548    -0.000082659218
       3        0.005759552579    -0.000796856969    -0.005306068857
       4       -0.000010433275    -0.000067854198     0.000086880108
       5       -0.000858817690    -0.004677731518     0.004265370715
       6       -0.004384893014     0.002364566901     0.003584353438
       7       -0.000146779501    -0.000245307165    -0.000128134882
       8       -0.000135099056     0.003587774862    -0.002363264850
       9       -0.000153458036     0.000018612523    -0.000285813094
      10        0.000014421290    -0.000268199491    -0.000066026006
      11       -0.000027656995    -0.000004428801    -0.000013010283
      12        0.000011291832    -0.000019066742     0.000006579634
      13       -0.000018033817     0.000005028528    -0.000002495812
      14        0.000030916472     0.000006721601     0.000011022089
      15        0.000000266893     0.000022840008    -0.000004765370
      16        0.000018492966    -0.000016912717     0.000012681679
      17        0.000004655088    -0.000002133743     0.000007850290
      18       -0.000003484682     0.000017895600     0.000005496819
      19        0.000001678246    -0.000004507566    -0.000003748526
      20       -0.000007709596     0.000017071307     0.000060660705
      21       -0.000018499757    -0.000023301953    -0.000014019948
      22        0.000054117666    -0.000023801946    -0.000007955854

  **** Optimization is complete! (in 12 steps) ****
    Final optimized geometry and variables:
    Molecular point group: c1

    Geometry (in Angstrom), charge = 0, multiplicity = 1:

    O           -0.873442427838    -1.564808306013    -1.855316813171
    C           -1.192974625275    -0.556935583247    -1.314481538583
    C           -1.533428595876    -0.519118724551     0.159794631500
    C           -1.298786108797     0.745343717381    -2.074322271273
    C           -0.428054361106     0.066711848959     1.067653870878
    H           -1.796530715094    -1.516737397305     0.483160050591
    H           -2.429388860481     0.082404269675     0.284205234489
    C            1.003295937267    -0.215781348836     0.608177100291
    H           -0.570995738406     1.138625863139     1.141880680652
    H           -0.575404776425    -0.329822984298     2.065807044382
    C            2.076632828363     0.215832433055     1.609118533426
    H            1.189753391338     0.276953482848    -0.341838338630
    H            1.111686964420    -1.278742094114     0.418904804818
    C            2.165218951926     1.721827134487     1.845336591163
    H            3.037680509120    -0.136367942126     1.248454716480
    H            1.906221793582    -0.288478289837     2.556533708354
    H            2.325740045406     2.253775096421     0.912837461467
    H            2.992293998894     1.958486078181     2.504578799230
    H            1.265027003942     2.116545988683     2.301175066919
    H           -2.346606568766     1.009150543283    -2.176815473444
    H           -0.861056574521     0.637511355544    -3.054917918733
    H           -0.815320879146     1.552618222663    -1.536920177081

  Mulliken Charges: (a.u.)
   Center  Symbol    Alpha    Beta     Spin     Total
       1     O     4.17918  4.17918  0.00000 -0.35836
       2     C     2.85173  2.85173  0.00000  0.29655
       3     C     3.10404  3.10404  0.00000 -0.20809
       4     C     3.15672  3.15672  0.00000 -0.31343
       5     C     3.11710  3.11710  0.00000 -0.23420
       6     H     0.43716  0.43716  0.00000  0.12568
       7     H     0.44550  0.44550  0.00000  0.10900
       8     C     3.09926  3.09926  0.00000 -0.19853
       9     H     0.44814  0.44814  0.00000  0.10373
      10     H     0.44170  0.44170  0.00000  0.11659
      11     C     3.09222  3.09222  0.00000 -0.18444
      12     H     0.45018  0.45018  0.00000  0.09963
      13     H     0.43630  0.43630  0.00000  0.12740
      14     C     3.15443  3.15443  0.00000 -0.30885
      15     H     0.44586  0.44586  0.00000  0.10828
      16     H     0.45376  0.45376  0.00000  0.09247
      17     H     0.45464  0.45464  0.00000  0.09073
      18     H     0.44464  0.44464  0.00000  0.11073
      19     H     0.45425  0.45425  0.00000  0.09150
      20     H     0.44647  0.44647  0.00000  0.10706
      21     H     0.43563  0.43563  0.00000  0.12875
      22     H     0.45110  0.45110  0.00000  0.09779

   Total alpha = 32.00000, Total beta = 32.00000, Total charge =  0.00000

*** Psi4 exiting successfully. Buy a developer a beer!
