  ==> Input File <==

--------------------------------------------------------------------------
set {
	reference rhf
	basis 6-31G*
}

set_num_threads( 4 )
memory 2 gb

molecule MOL {
0 1

H	 0.625506	 1.313023	 -0.921172
O	 0.055946	 1.300438	 -0.164479
C	 0.004957	 -0.004114	 0.366649
C	 1.201664	 -0.828089	 -0.095740
C	 -1.317755	 -0.601827	 -0.081511
H	 0.013527	 0.048298	 1.454924
H	 1.216388	 -0.895289	 -1.178704
H	 2.135132	 -0.372895	 0.226467
H	 1.166770	 -1.832878	 0.313827
H	 -1.355732	 -0.658248	 -1.164429
H	 -2.141614	 0.017037	 0.254547
H	 -1.447303	 -1.600817	 0.322594

	symmetry c1
}
set optking {
	frozen_dihedral = ("
		1 2 3 4
	")
}

ee = optimize('scf')
oeprop('DIPOLE', 'QUADRUPOLE', 'MULLIKEN_CHARGES')
f=open( 'psi4out.xyz', 'w' )
f.write( "12  " )
f.write( str(ee) + "\n" )
f.write( MOL.save_string_xyz() )
f.close()
--------------------------------------------------------------------------

    Molecular point group: c1
  Charge       = 0
  Multiplicity = 1
  Basis Set: 6-31G*
  Basis Set:
  @DF-RHF Final Energy:  -193.11205032697234
    Total Energy =                       -193.1120503269723372
    Molecular point group: c1
  Basis Set: 6-31G*
  Basis Set:
  Basis Set: 6-31G*
  Basis Set:
  @DF-RHF Final Energy:  -193.11285733135827
    Total Energy =                       -193.1128573313583843
  Basis Set: 6-31G*
  Basis Set:
  Basis Set: 6-31G*
  Basis Set:
  @DF-RHF Final Energy:  -193.11315276286049
    Total Energy =                       -193.1131527628605795
  Basis Set: 6-31G*
  Basis Set:
  Basis Set: 6-31G*
  Basis Set:
  @DF-RHF Final Energy:  -193.11315436368736
    Total Energy =                       -193.1131543636873573
  Basis Set: 6-31G*
  Basis Set:
  Charge       = 0
  Multiplicity = 1
  Basis Set: 6-31G*
  Basis Set:

    Orbital Energies (a.u.)
    -----------------------

    Doubly Occupied:

       1A    -20.549037     2A    -11.275549     3A    -11.219913
       4A    -11.206742     5A     -1.358524     6A     -1.042599
       7A     -0.942535     8A     -0.815313     9A     -0.661913
      10A     -0.649633    11A     -0.605683    12A     -0.562316
      13A     -0.546292    14A     -0.515759    15A     -0.513471
      16A     -0.465961    17A     -0.427980

  @DF-RHF Final Energy:  -193.11315482562756

   => Energetics <=

    Nuclear Repulsion Energy =            135.3930391848679449
    One-Electron Energy =                -530.2939468139895780
    Two-Electron Energy =                 201.7877528034940156
    DFT Exchange-Correlation Energy =       0.0000000000000000
    Empirical Dispersion Energy =           0.0000000000000000
    PCM Polarization Energy =               0.0000000000000000
    EFP Energy =                            0.0000000000000000
    Total Energy =                       -193.1131548256276460
    Molecular point group: c1
  Basis Set: 6-31G*
  Basis Set:

  -Total Gradient:
     Atom            X                  Y                   Z
    ------   -----------------  -----------------  -----------------
       1        0.001203583280     0.000255282226     0.000979528946
       2       -0.001686139116    -0.000453276845    -0.001508314266
       3        0.000946560537     0.000407389261     0.001294728513
       4       -0.000456661708    -0.000211711713    -0.000770045139
       5       -0.000024084723     0.000050260061    -0.000013473736
       6        0.000017415176    -0.000024898078    -0.000013412611
       7       -0.000027954897     0.000018150117     0.000038821500
       8        0.000024509034    -0.000010705717    -0.000028911903
       9        0.000001205958    -0.000020794743     0.000008960656
      10        0.000002661226     0.000001723042     0.000015444912
      11       -0.000008628867    -0.000005032252    -0.000007785505
      12        0.000007534099    -0.000006385360     0.000004458634

  **** Optimization is complete! (in 5 steps) ****
    Final optimized geometry and variables:
    Molecular point group: c1

    Geometry (in Angstrom), charge = 0, multiplicity = 1:

    H            0.670792299508     1.370592485311    -0.857758424284
    O            0.081387539279     1.328015429423    -0.118934705350
    C            0.000456060741     0.003123792416     0.362990678981
    C            1.196985659805    -0.825153638781    -0.089649298607
    C           -1.323743934461    -0.615630010464    -0.067361898439
    H            0.016533008106     0.076517478648     1.445199894734
    H            1.209416598782    -0.921200460556    -1.173441640071
    H            2.126933015368    -0.360746938431     0.223939064821
    H            1.160814579397    -1.824888028905     0.329718532506
    H           -1.368552825572    -0.707927746494    -1.148932063135
    H           -2.148380962835     0.012078779125     0.250306995592
    H           -1.455376199126    -1.603024530009     0.365985318775

  Mulliken Charges: (a.u.)
   Center  Symbol    Alpha    Beta     Spin     Total
       1     H     0.28092  0.28092  0.00000  0.43817
       2     O     4.37775  4.37775  0.00000 -0.75551
       3     C     2.90779  2.90779  0.00000  0.18441
       4     C     3.26426  3.26426  0.00000 -0.52852
       5     C     3.23917  3.23917  0.00000 -0.47833
       6     H     0.41977  0.41977  0.00000  0.16046
       7     H     0.42285  0.42285  0.00000  0.15430
       8     H     0.41294  0.41294  0.00000  0.17412
       9     H     0.41434  0.41434  0.00000  0.17133
      10     H     0.42400  0.42400  0.00000  0.15199
      11     H     0.41092  0.41092  0.00000  0.17816
      12     H     0.42528  0.42528  0.00000  0.14943

   Total alpha = 17.00000, Total beta = 17.00000, Total charge = -0.00000
