  ==> Input File <==

--------------------------------------------------------------------------
set {
	reference rhf
	basis 6-31G*
}

set_num_threads( 4 )
memory 2 gb

molecule MOL {
0 1

H	 -1.359830	 1.345070	 -0.175291
C	 -0.790252	 0.431209	 0.000000
N	 0.538815	 0.649616	 0.000000
O	 -1.324952	 -0.624696	 0.168432
C	 1.521968	 -0.411503	 0.000000
H	 0.852804	 1.592852	 0.000000
H	 2.150599	 -0.357004	 -0.881901
H	 0.999455	 -1.354525	 0.000000
H	 2.150599	 -0.357004	 0.881901

	symmetry c1
}
set optking {
	frozen_dihedral = ("
		1 2 3 6
	")
}

ee = optimize('scf')
oeprop('DIPOLE', 'QUADRUPOLE', 'MULLIKEN_CHARGES')
f=open( 'psi4out.xyz', 'w' )
f.write( "9  " )
f.write( str(ee) + "\n" )
f.write( MOL.save_string_xyz() )
f.close()
--------------------------------------------------------------------------

    Molecular point group: c1
  Charge       = 0
  Multiplicity = 1
  Basis Set: 6-31G*
  Basis Set:
  @DF-RHF Final Energy:  -207.95980170852880
    Total Energy =                       -207.9598017085287438
    Molecular point group: c1
  Basis Set: 6-31G*
  Basis Set:
  Basis Set: 6-31G*
  Basis Set:
  @DF-RHF Final Energy:  -207.95978837264278
    Total Energy =                       -207.9597883726427767
  Basis Set: 6-31G*
  Basis Set:
  Basis Set: 6-31G*
  Basis Set:
  @DF-RHF Final Energy:  -207.96073684781004
    Total Energy =                       -207.9607368478100113
  Basis Set: 6-31G*
  Basis Set:
  Basis Set: 6-31G*
  Basis Set:
  @DF-RHF Final Energy:  -207.96077332252594
    Total Energy =                       -207.9607733225259949
  Basis Set: 6-31G*
  Basis Set:
  @DF-RHF Final Energy:  -207.96080291468840
    Total Energy =                       -207.9608029146884292
  @DF-RHF Final Energy:  -207.96094618424269
    Total Energy =                       -207.9609461842427152
  Basis Set: 6-31G*
  Basis Set:
  @DF-RHF Final Energy:  -207.96101835062433
    Total Energy =                       -207.9610183506243288
  Basis Set: 6-31G*
  Basis Set:
  Basis Set: 6-31G*
  Basis Set:
  @DF-RHF Final Energy:  -207.96104235642446
    Total Energy =                       -207.9610423564244854
  Basis Set: 6-31G*
  Basis Set:
  Basis Set: 6-31G*
  Basis Set:
  @DF-RHF Final Energy:  -207.96104532815991
    Total Energy =                       -207.9610453281599405
  Basis Set: 6-31G*
  Basis Set:
  Charge       = 0
  Multiplicity = 1
  Basis Set: 6-31G*
  Basis Set:

    Orbital Energies (a.u.)
    -----------------------

    Doubly Occupied:

       1A    -20.526887     2A    -15.590432     3A    -11.343436
       4A    -11.260779     5A     -1.390021     6A     -1.236180
       7A     -0.967611     8A     -0.807509     9A     -0.746341
      10A     -0.641584    11A     -0.626925    12A     -0.592417
      13A     -0.556646    14A     -0.533999    15A     -0.424555
      16A     -0.391767

  @DF-RHF Final Energy:  -207.96104580615338

   => Energetics <=

    Nuclear Repulsion Energy =            122.6482080220329181
    One-Electron Energy =                -525.9443307853384795
    Two-Electron Energy =                 195.3350769571521823
    DFT Exchange-Correlation Energy =       0.0000000000000000
    Empirical Dispersion Energy =           0.0000000000000000
    PCM Polarization Energy =               0.0000000000000000
    EFP Energy =                            0.0000000000000000
    Total Energy =                       -207.9610458061533791
    Molecular point group: c1
  Basis Set: 6-31G*
  Basis Set:

  -Total Gradient:
     Atom            X                  Y                   Z
    ------   -----------------  -----------------  -----------------
       1       -0.000077716324    -0.000124258072    -0.000403927610
       2        0.000145736165     0.000199566071     0.000710369566
       3       -0.000126579117    -0.000141344320    -0.000835632739
       4       -0.000016771232    -0.000019459478     0.000000197006
       5       -0.000040289835     0.000047094186    -0.000005196764
       6        0.000101076397     0.000054309226     0.000480714916
       7       -0.000010523360     0.000024288502     0.000006515750
       8       -0.000009444446     0.000010649052     0.000021647417
       9        0.000034511753    -0.000050845166     0.000025312458

  **** Optimization is complete! (in 10 steps) ****
    Final optimized geometry and variables:
    Molecular point group: c1

    Geometry (in Angstrom), charge = 0, multiplicity = 1:

    H           -1.379159905444     1.345049411529    -0.124071663808
    C           -0.786765302039     0.439009272649     0.012688919764
    N            0.514032100759     0.616061648777    -0.289958129474
    O           -1.274609065085    -0.591200996681     0.372336776285
    C            1.492457967036    -0.434540360843    -0.105422678688
    H            0.832389419986     1.544119008464    -0.449146000119
    H            2.375337549842    -0.199417227275    -0.684975917380
    H            1.081636400957    -1.370079788040    -0.454290778959
    H            1.774063635989    -0.549869465633     0.936174317241

  Mulliken Charges: (a.u.)
   Center  Symbol    Alpha    Beta     Spin     Total
       1     H     0.42678  0.42678  0.00000  0.14644
       2     C     2.74749  2.74749  0.00000  0.50503
       3     N     3.87334  3.87334  0.00000 -0.74668
       4     O     4.28248  4.28248  0.00000 -0.56495
       5     C     3.13946  3.13946  0.00000 -0.27893
       6     H     0.30920  0.30920  0.00000  0.38160
       7     H     0.41486  0.41486  0.00000  0.17028
       8     H     0.39497  0.39497  0.00000  0.21006
       9     H     0.41142  0.41142  0.00000  0.17716

   Total alpha = 16.00000, Total beta = 16.00000, Total charge =  0.00000
