  ==> Input File <==

--------------------------------------------------------------------------
set {
	reference rhf
	basis 6-31G*
}

set_num_threads( 4 )
memory 2 gb

molecule MOL {
0 1

H	 3.893188	 0.355400	 -0.101367
N	 3.092854	 -0.246221	 -0.068770
C	 1.865559	 0.531981	 0.018834
H	 3.199514	 -0.826043	 0.741946
C	 0.645745	 -0.382037	 -0.029944
H	 1.841966	 1.207024	 -0.831236
H	 1.815756	 1.155410	 0.915079
C	 -0.679275	 0.379305	 0.025956
H	 0.698998	 -0.976915	 -0.937203
H	 0.693479	 -1.083846	 0.802235
C	 -1.876994	 -0.462046	 -0.418985
H	 -0.612662	 1.266009	 -0.602668
H	 -0.851343	 0.737504	 1.039827
C	 -3.198313	 0.303954	 -0.365418
H	 -1.707916	 -0.819936	 -1.432169
H	 -1.947667	 -1.347572	 0.209111
H	 -3.171354	 1.177701	 -1.010520
H	 -4.027633	 -0.318526	 -0.686902
H	 -3.413039	 0.645734	 0.643279

	symmetry c1
}
set optking {
	frozen_dihedral = ("
		12 8 5 9
	")
}

ee = optimize('scf')
oeprop('DIPOLE', 'QUADRUPOLE', 'MULLIKEN_CHARGES')
f=open( 'psi4out.xyz', 'w' )
f.write( "19  " )
f.write( str(ee) + "\n" )
f.write( MOL.save_string_xyz() )
f.close()
--------------------------------------------------------------------------

    Molecular point group: c1
  Charge       = 0
  Multiplicity = 1
  Basis Set: 6-31G*
  Basis Set:
  @DF-RHF Final Energy:  -251.35083717011977
    Total Energy =                       -251.3508371701198030
    Molecular point group: c1
  Basis Set: 6-31G*
  Basis Set:
  Basis Set: 6-31G*
  Basis Set:
  @DF-RHF Final Energy:  -251.35092592499495
    Total Energy =                       -251.3509259249950674
  Basis Set: 6-31G*
  Basis Set:
  Basis Set: 6-31G*
  Basis Set:
  @DF-RHF Final Energy:  -251.35096729636351
    Total Energy =                       -251.3509672963633648
  Basis Set: 6-31G*
  Basis Set:
  Basis Set: 6-31G*
  Basis Set:
  @DF-RHF Final Energy:  -251.35097622438394
    Total Energy =                       -251.3509762243837713
  Basis Set: 6-31G*
  Basis Set:
  Basis Set: 6-31G*
  Basis Set:
  @DF-RHF Final Energy:  -251.35097728052227
    Total Energy =                       -251.3509772805221019
  Basis Set: 6-31G*
  Basis Set:
  Charge       = 0
  Multiplicity = 1
  Basis Set: 6-31G*
  Basis Set:

    Orbital Energies (a.u.)
    -----------------------

    Doubly Occupied:

       1A    -15.532586     2A    -11.240054     3A    -11.214071
       4A    -11.212721     5A    -11.209408     6A    -11.207487
       7A     -1.176744     8A     -1.072688     9A     -0.998316
      10A     -0.900326    11A     -0.813636    12A     -0.789516
      13A     -0.663768    14A     -0.640550    15A     -0.618826
      16A     -0.586480    17A     -0.567207    18A     -0.548948
      19A     -0.527332    20A     -0.501344    21A     -0.479277
      22A     -0.465846    23A     -0.458564    24A     -0.450720
      25A     -0.381031

  @DF-RHF Final Energy:  -251.35097752925185

   => Energetics <=

    Nuclear Repulsion Energy =            245.6220734074023540
    One-Electron Energy =                -825.4312117210214410
    Two-Electron Energy =                 328.4581607843671236
    DFT Exchange-Correlation Energy =       0.0000000000000000
    Empirical Dispersion Energy =           0.0000000000000000
    PCM Polarization Energy =               0.0000000000000000
    EFP Energy =                            0.0000000000000000
    Total Energy =                       -251.3509775292519635
    Molecular point group: c1
  Basis Set: 6-31G*
  Basis Set:

  -Total Gradient:
     Atom            X                  Y                   Z
    ------   -----------------  -----------------  -----------------
       1        0.000001009264    -0.000000943294     0.000000398597
       2        0.000006662001     0.000004177115    -0.000007064062
       3       -0.000001941279    -0.000008247582     0.000022815949
       4       -0.000001638864     0.000001677794    -0.000000591408
       5        0.001610698532     0.002885067644    -0.001120077932
       6       -0.000002207256    -0.000008485217     0.000002065581
       7        0.000006872617     0.000008822662     0.000001207285
       8       -0.001369591383    -0.002235692020    -0.002241406468
       9       -0.001127972989    -0.002046134985     0.001275783049
      10        0.000008805798     0.000007751509     0.000002511985
      11       -0.000003745322     0.000001191046     0.000011427893
      12        0.000886740712     0.001400995858     0.002053830559
      13       -0.000007220131    -0.000006774525    -0.000001741433
      14       -0.000003799982    -0.000004020713     0.000000261788
      15        0.000004778311     0.000005150584     0.000003720506
      16       -0.000006308164    -0.000005155481    -0.000002016455
      17        0.000000709765    -0.000001303966    -0.000001039178
      18       -0.000002288508     0.000001448470     0.000000547004
      19        0.000000436880     0.000000475101    -0.000000633261

  **** Optimization is complete! (in 6 steps) ****
    Final optimized geometry and variables:
    Molecular point group: c1

    Geometry (in Angstrom), charge = 0, multiplicity = 1:

    H            3.892309229337     0.316339228030     0.103214397166
    N            3.087596404419    -0.280109388369     0.117748100296
    C            1.862803130838     0.506136198773     0.142096906522
    H            3.159770750346    -0.843864764171     0.943427963990
    C            0.640511318615    -0.400413480599     0.061162766408
    H            1.876578709333     1.165542549959    -0.720258584849
    H            1.780552978422     1.146510566877     1.024147030266
    C           -0.686118714126     0.362648164282     0.113123403104
    H            0.700653859561    -0.999882922461    -0.842776980232
    H            0.670973389339    -1.111509774918     0.886492016078
    C           -1.890605542003    -0.483384117864    -0.300068313451
    H           -0.625044736950     1.249612388833    -0.516169568633
    H           -0.842794529785     0.736298154032     1.124070495042
    C           -3.215642876805     0.270583506421    -0.195424752852
    H           -1.751461523747    -0.829993961383    -1.321505540697
    H           -1.932680425084    -1.375720779725     0.321188821600
    H           -3.215303125197     1.153072308998    -0.829128005374
    H           -4.049414617980    -0.354500575945    -0.499985668338
    H           -3.402099053991     0.597004103722     0.823882244731

  Mulliken Charges: (a.u.)
   Center  Symbol    Alpha    Beta     Spin     Total
       1     H     0.33245  0.33245  0.00000  0.33510
       2     N     3.92195  3.92195  0.00000 -0.84389
       3     C     3.06069  3.06069  0.00000 -0.12138
       4     H     0.33529  0.33529  0.00000  0.32941
       5     C     3.15151  3.15151  0.00000 -0.30302
       6     H     0.42055  0.42055  0.00000  0.15890
       7     H     0.43464  0.43464  0.00000  0.13071
       8     C     3.15535  3.15535  0.00000 -0.31071
       9     H     0.41336  0.41336  0.00000  0.17329
      10     H     0.42731  0.42731  0.00000  0.14538
      11     C     3.15106  3.15106  0.00000 -0.30212
      12     H     0.42419  0.42419  0.00000  0.15162
      13     H     0.42434  0.42434  0.00000  0.15132
      14     C     3.23948  3.23948  0.00000 -0.47896
      15     H     0.42161  0.42161  0.00000  0.15679
      16     H     0.42290  0.42290  0.00000  0.15420
      17     H     0.42181  0.42181  0.00000  0.15637
      18     H     0.41932  0.41932  0.00000  0.16137
      19     H     0.42219  0.42219  0.00000  0.15563

   Total alpha = 25.00000, Total beta = 25.00000, Total charge = -0.00000
