  ==> Input File <==

--------------------------------------------------------------------------
set {
	reference rhf
	basis 6-31G*
}

set_num_threads( 1 )
memory 2 gb

molecule MOL {
0 1

H	 -2.825556	 -0.600416	 0.014903
N	 -1.882491	 -0.449761	 0.316408
C	 -1.296345	 0.685343	 -0.374299
H	 -1.363331	 -1.278043	 0.098390
C	 0.140153	 0.873256	 0.066495
H	 -1.313350	 0.594325	 -1.461234
H	 -1.857223	 1.577607	 -0.113412
O	 0.874168	 -0.245412	 -0.342030
H	 0.555701	 1.776794	 -0.379125
H	 0.180143	 0.976134	 1.148646
C	 2.202317	 -0.244239	 0.074611
H	 2.711377	 -1.041390	 -0.449894
H	 2.692099	 0.699270	 -0.159667
H	 2.283185	 -0.418429	 1.145558

	symmetry c1
}
set optking {
	frozen_dihedral = ("
		8 5 3 6,
		6 3 2 4,
		11 8 5 3
	")
}

ee = energy('scf')
oeprop('DIPOLE', 'QUADRUPOLE', 'MULLIKEN_CHARGES')
f=open( 'psi4out.xyz', 'w' )
f.write( "14  " )
f.write( str(ee) + "\n" )
f.write( MOL.save_string_xyz() )
f.close()
--------------------------------------------------------------------------

    Molecular point group: c1

    Geometry (in Angstrom), charge = 0, multiplicity = 1:

       Center              X                  Y                   Z               Mass
    ------------   -----------------  -----------------  -----------------  -----------------
           H         -2.842160121934    -0.705022956532     0.068126802306     1.007825032070
           N         -1.899095121934    -0.554367956532     0.369631802306    14.003074004780
           C         -1.312949121934     0.580736043468    -0.321075197694    12.000000000000
           H         -1.379935121934    -1.382649956532     0.151613802306     1.007825032070
           C          0.123548878066     0.768649043468     0.119718802306    12.000000000000
           H         -1.329954121934     0.489718043468    -1.408010197694     1.007825032070
           H         -1.873827121934     1.473000043468    -0.060188197694     1.007825032070
           O          0.857563878066    -0.350018956532    -0.288806197694    15.994914619560
           H          0.539096878066     1.672187043468    -0.325901197694     1.007825032070
           H          0.163538878066     0.871527043468     1.201869802306     1.007825032070
           C          2.185712878066    -0.348845956532     0.127834802306    12.000000000000
           H          2.694772878066    -1.145996956532    -0.396670197694     1.007825032070
           H          2.675494878066     0.594663043468    -0.106443197694     1.007825032070
           H          2.266580878066    -0.523035956532     1.198781802306     1.007825032070

  Charge       = 0
  Multiplicity = 1
  Basis Set: 6-31G*
  Basis Set:

    Orbital Energies (a.u.)
    -----------------------

    Doubly Occupied:

       1A    -20.557238     2A    -15.528440     3A    -11.266171
       4A    -11.265691     5A    -11.240803     6A     -1.381383
       7A     -1.173636     8A     -0.998988     9A     -0.907196
      10A     -0.815262    11A     -0.684000    12A     -0.673725
      13A     -0.645166    14A     -0.610106    15A     -0.605171
      16A     -0.540763    17A     -0.530603    18A     -0.496642
      19A     -0.472913    20A     -0.417134    21A     -0.380116

  @DF-RHF Final Energy:  -248.12496781495301

   => Energetics <=

    Nuclear Repulsion Energy =            194.6765439407093652
    One-Electron Energy =                -723.2206878797558147
    Two-Electron Energy =                 280.4191761240936103
    DFT Exchange-Correlation Energy =       0.0000000000000000
    Empirical Dispersion Energy =           0.0000000000000000
    PCM Polarization Energy =               0.0000000000000000
    EFP Energy =                            0.0000000000000000
    Total Energy =                       -248.1249678149528108

  Mulliken Charges: (a.u.)
   Center  Symbol    Alpha    Beta     Spin     Total
       1     H     0.33284  0.33284  0.00000  0.33432
       2     N     3.92524  3.92524  0.00000 -0.85048
       3     C     3.06893  3.06893  0.00000 -0.13785
       4     H     0.32372  0.32372  0.00000  0.35256
       5     C     2.99030  2.99030  0.00000  0.01940
       6     H     0.42662  0.42662  0.00000  0.14675
       7     H     0.42045  0.42045  0.00000  0.15909
       8     O     4.30979  4.30979  0.00000 -0.61958
       9     H     0.43070  0.43070  0.00000  0.13860
      10     H     0.42274  0.42274  0.00000  0.15453
      11     C     3.07881  3.07881  0.00000 -0.15761
      12     H     0.41290  0.41290  0.00000  0.17421
      13     H     0.43052  0.43052  0.00000  0.13895
      14     H     0.42644  0.42644  0.00000  0.14713

   Total alpha = 21.00000, Total beta = 21.00000, Total charge =  0.00000
