                              Psi4 1.0.54 Driver

  ==> Input File <==

--------------------------------------------------------------------------
set {
	reference rhf
	basis cc-pvtz
}

set_num_threads( 4 )
memory 2 gb

molecule MOL {
0 1

H	 -3.436473	 1.252944	 -1.023892
O	 -3.458596	 0.315260	 -0.960865
C	 -3.176635	 -0.080824	 0.355601
C	 -1.763371	 0.265266	 0.799691
H	 -3.321825	 -1.153438	 0.379502
H	 -3.895468	 0.357385	 1.043382
C	 -0.673390	 -0.426948	 -0.013392
H	 -1.631049	 1.344913	 0.747560
H	 -1.664587	 -0.001624	 1.849167
C	 0.737842	 -0.043159	 0.423759
H	 -0.806103	 -0.190518	 -1.063345
H	 -0.797221	 -1.503753	 0.074146
C	 1.824000	 -0.743224	 -0.390623
H	 0.850588	 1.033777	 0.343840
H	 0.868587	 -0.286314	 1.476203
C	 1.307382	 -1.628880	 -1.525774
H	 2.442515	 -1.340374	 0.275486
H	 2.479883	 0.011933	 -0.815093
C	 0.523354	 -2.857413	 -1.070639
H	 2.156304	 -1.958435	 -2.116960
H	 0.688513	 -1.033250	 -2.191842
H	 1.115550	 -3.469614	 -0.397891
H	 0.247281	 -3.473243	 -1.919037
H	 -0.390075	 -2.587730	 -0.554379

	symmetry c1
}
set optking {
	frozen_dihedral = ("
		17 13 10 7
	")
}

ee,wfn = optimize('scf', return_wfn=True)
oeprop( wfn, 'DIPOLE', 'QUADRUPOLE', 'MULLIKEN_CHARGES')
f=open( 'psi4out.xyz', 'w' )
f.write( "24  " )
f.write( str(ee) + "\n" )
f.write( MOL.save_string_xyz() )
f.close()
--------------------------------------------------------------------------

    Molecular point group: c1
  Charge       = 0
  Multiplicity = 1
  Basis Set: CC-PVTZ
  Basis Set:
  @DF-RHF Final Energy:  -349.34352774025615
    Total Energy =                       -349.3435277402562633
    Molecular point group: c1
  Basis Set: CC-PVTZ
  Basis Set:
  Basis Set: CC-PVTZ
  Basis Set:
  @DF-RHF Final Energy:  -349.36222065739605
    Total Energy =                       -349.3622206573958238
  Basis Set: CC-PVTZ
  Basis Set:
  Basis Set: CC-PVTZ
  Basis Set:
  @DF-RHF Final Energy:  -349.36644430949133
    Total Energy =                       -349.3664443094914986
  Basis Set: CC-PVTZ
  Basis Set:
  Basis Set: CC-PVTZ
  Basis Set:
  @DF-RHF Final Energy:  -349.36730773310563
    Total Energy =                       -349.3673077331059176
  Basis Set: CC-PVTZ
  Basis Set:
  @DF-RHF Final Energy:  -349.36779513845454
    Total Energy =                       -349.3677951384546532
  @DF-RHF Final Energy:  -349.36802112991927
    Total Energy =                       -349.3680211299194411
  Basis Set: CC-PVTZ
  Basis Set:
  @DF-RHF Final Energy:  -349.36802676156009
    Total Energy =                       -349.3680267615598041
  Basis Set: CC-PVTZ
  Basis Set:
  Basis Set: CC-PVTZ
  Basis Set:
  @DF-RHF Final Energy:  -349.36807352095803
    Total Energy =                       -349.3680735209577506
  Basis Set: CC-PVTZ
  Basis Set:
  Basis Set: CC-PVTZ
  Basis Set:
  @DF-RHF Final Energy:  -349.36807502050050
    Total Energy =                       -349.3680750205003847
  Basis Set: CC-PVTZ
  Basis Set:
  Charge       = 0
  Multiplicity = 1
  Basis Set: CC-PVTZ
  Basis Set:

    Orbital Energies (a.u.)
    -----------------------

    Doubly Occupied:

       1A    -20.546634     2A    -11.265701     3A    -11.215154
       4A    -11.211489     5A    -11.210664     6A    -11.210066
       7A    -11.208711     8A    -11.203220     9A     -1.364399
      10A     -1.085852    11A     -1.046108    12A     -0.983830
      13A     -0.919461    14A     -0.850933    15A     -0.811117
      16A     -0.762840    17A     -0.683031    18A     -0.653521
      19A     -0.619695    20A     -0.617751    21A     -0.609690
      22A     -0.582054    23A     -0.555249    24A     -0.542344
      25A     -0.514757    26A     -0.513864    27A     -0.496642
      28A     -0.482330    29A     -0.469393    30A     -0.458577
      31A     -0.443024    32A     -0.442677    33A     -0.422677

  @DF-RHF Final Energy:  -349.36807580292611

   => Energetics <=

    Nuclear Repulsion Energy =            393.0982078357719729
    One-Electron Energy =               -1252.9256682954762709
    Two-Electron Energy =                 510.4593846567782975
    DFT Exchange-Correlation Energy =       0.0000000000000000
    Empirical Dispersion Energy =           0.0000000000000000
    PCM Polarization Energy =               0.0000000000000000
    EFP Energy =                            0.0000000000000000
    Total Energy =                       -349.3680758029260005
    Molecular point group: c1
  Basis Set: CC-PVTZ
  Basis Set:

  -Total Gradient:
     Atom            X                  Y                   Z
    ------   -----------------  -----------------  -----------------
       1        0.000000200865     0.000006296073    -0.000005092129
       2       -0.000000555527     0.000004892320     0.000006586391
       3        0.000010649246    -0.000020266583    -0.000008701830
       4       -0.000011805012     0.000015808177     0.000008915596
       5       -0.000001613698    -0.000004098593     0.000001984142
       6       -0.000003522468     0.000002026379    -0.000000126433
       7       -0.000030031318    -0.000364739424     0.000346712296
       8       -0.000006318569     0.000007598142     0.000001193224
       9        0.000008378975     0.000002654046    -0.000009238587
      10       -0.000052708250     0.000401656512    -0.000556993180
      11        0.000004036847    -0.000000438271    -0.000000310799
      12        0.000009072787     0.000004231267     0.000011587413
      13        0.000469008050     0.000487612420     0.000323056482
      14       -0.000011120241     0.000011415377     0.000002920413
      15        0.000014506131     0.000001385931     0.000005986001
      16       -0.000038837599    -0.000029490424     0.000003552696
      17       -0.000400349246    -0.000522381673    -0.000087712270
      18        0.000014820362    -0.000005427329    -0.000012209702
      19        0.000066523404     0.000055629935    -0.000031843324
      20        0.000016679792    -0.000012057495     0.000011676463
      21       -0.000025902120     0.000014770553    -0.000014039757
      22        0.000035727748    -0.000030838031     0.000028808290
      23       -0.000018661360    -0.000027497741    -0.000039086272
      24       -0.000048178804     0.000001258436     0.000012374872

  **** Optimization is complete! (in 10 steps) ****
    Final optimized geometry and variables:
    Molecular point group: c1

    Geometry (in Angstrom), charge = 0, multiplicity = 1:

    H           -2.771618019803     2.168456806920    -0.700711580332
    O           -2.896057297255     1.244507074156    -0.580189718864
    C           -2.599480106349     0.892731493095     0.745678703183
    C           -1.136292661630     1.094744049933     1.109959931919
    H           -2.866566941053    -0.152128875540     0.841090720035
    H           -3.229727887706     1.450604834405     1.433698519513
    C           -0.174088694379     0.232324415471     0.296081137232
    H           -0.883463993381     2.146544823615     0.985497943441
    H           -1.019151663119     0.878553324535     2.169120753904
    C            1.284310336014     0.497191782522     0.672433106592
    H           -0.337027864628     0.427903755879    -0.755964590807
    H           -0.425876292478    -0.809428295380     0.459055170892
    C            2.402737855994    -0.273557841525    -0.085895624653
    H            1.463910297371     1.560441041377     0.546820630533
    H            1.396109524205     0.311095438107     1.736099758575
    C            2.015617884049    -1.210098556023    -1.240341659539
    H            2.972699684512    -0.857236526104     0.630059582382
    H            3.096426521957     0.461019590462    -0.478635618049
    C            1.569805252475    -2.606450361780    -0.810095139464
    H            2.888110974235    -1.323414011675    -1.876361802943
    H            1.254545207882    -0.755004688254    -1.863433008041
    H            2.360845699635    -3.107306967342    -0.261234733628
    H            1.330539710948    -3.217926813161    -1.673135156040
    H            0.694756359237    -2.583958535237    -0.173695043817

  Mulliken Charges: (a.u.)
   Center  Symbol    Alpha    Beta     Spin     Total
       1     H     0.39518  0.39518  0.00000  0.20964
       2     O     4.20346  4.20346  0.00000 -0.40691
       3     C     2.97767  2.97767  0.00000  0.04466
       4     C     3.10277  3.10277  0.00000 -0.20554
       5     H     0.45905  0.45905  0.00000  0.08189
       6     H     0.45986  0.45986  0.00000  0.08028
       7     C     3.09715  3.09715  0.00000 -0.19430
       8     H     0.45885  0.45885  0.00000  0.08231
       9     H     0.45318  0.45318  0.00000  0.09363
      10     C     3.09464  3.09464  0.00000 -0.18927
      11     H     0.44334  0.44334  0.00000  0.11331
      12     H     0.45097  0.45097  0.00000  0.09807
      13     C     3.10143  3.10143  0.00000 -0.20287
      14     H     0.45215  0.45215  0.00000  0.09570
      15     H     0.45188  0.45188  0.00000  0.09624
      16     C     3.09779  3.09779  0.00000 -0.19557
      17     H     0.45343  0.45343  0.00000  0.09314
      18     H     0.44615  0.44615  0.00000  0.10770
      19     C     3.14685  3.14685  0.00000 -0.29369
      20     H     0.44468  0.44468  0.00000  0.11063
      21     H     0.45035  0.45035  0.00000  0.09930
      22     H     0.45547  0.45547  0.00000  0.08905
      23     H     0.44868  0.44868  0.00000  0.10264
      24     H     0.45502  0.45502  0.00000  0.08996

   Total alpha = 33.00000, Total beta = 33.00000, Total charge =  0.00000

*** Psi4 exiting successfully. Buy a developer a beer!
