                              Psi4 1.0.54 Driver

  ==> Input File <==

--------------------------------------------------------------------------
set {
	reference rhf
	basis cc-pvtz
}

set_num_threads( 4 )
memory 2 gb

molecule MOL {
0 1

H	 -4.024094	 -0.454727	 0.000004
C	 -2.962215	 -0.297920	 0.000004
C	 -2.454736	 0.988978	 0.000025
C	 -2.105837	 -1.382632	 -0.000016
H	 -3.120052	 1.830438	 0.000041
C	 -1.090106	 1.189676	 0.000026
H	 -2.500390	 -2.380229	 -0.000033
C	 -0.739175	 -1.183302	 -0.000016
H	 -0.680214	 2.179144	 0.000042
C	 -0.227341	 0.104540	 0.000006
H	 -0.073209	 -2.021168	 -0.000032
C	 1.238974	 0.374429	 0.000004
O	 1.542068	 1.590052	 0.415195
O	 2.055063	 -0.416572	 -0.336886
C	 2.912373	 1.937422	 0.449210
H	 3.453543	 1.282531	 1.115265
H	 2.951207	 2.952241	 0.810076
H	 3.344505	 1.874593	 -0.538065

	symmetry c1
}
set optking {
	frozen_dihedral = ("
		13 12 10 6
	")
}

ee,wfn = optimize('scf', return_wfn=True)
oeprop( wfn, 'DIPOLE', 'QUADRUPOLE', 'MULLIKEN_CHARGES')
f=open( 'psi4out.xyz', 'w' )
f.write( "18  " )
f.write( str(ee) + "\n" )
f.write( MOL.save_string_xyz() )
f.close()
--------------------------------------------------------------------------

    Molecular point group: c1
  Charge       = 0
  Multiplicity = 1
  Basis Set: CC-PVTZ
  Basis Set:
  @DF-RHF Final Energy:  -457.50796483003643
    Total Energy =                       -457.5079648300364852
    Molecular point group: c1
  Basis Set: CC-PVTZ
  Basis Set:
  Basis Set: CC-PVTZ
  Basis Set:
  @DF-RHF Final Energy:  -457.50891739853898
    Total Energy =                       -457.5089173985390971
  Basis Set: CC-PVTZ
  Basis Set:
  Basis Set: CC-PVTZ
  Basis Set:
  @DF-RHF Final Energy:  -457.50925316672573
    Total Energy =                       -457.5092531667258982
  Basis Set: CC-PVTZ
  Basis Set:
  Basis Set: CC-PVTZ
  Basis Set:
  @DF-RHF Final Energy:  -457.50934805255042
    Total Energy =                       -457.5093480525504219
  Basis Set: CC-PVTZ
  Basis Set:
  Basis Set: CC-PVTZ
  Basis Set:
  @DF-RHF Final Energy:  -457.50935301086184
    Total Energy =                       -457.5093530108620143
  Basis Set: CC-PVTZ
  Basis Set:
  Charge       = 0
  Multiplicity = 1
  Basis Set: CC-PVTZ
  Basis Set:

    Orbital Energies (a.u.)
    -----------------------

    Doubly Occupied:

       1A    -20.601326     2A    -20.535070     3A    -11.371868
       4A    -11.281353     5A    -11.245420     6A    -11.243091
       7A    -11.242847     8A    -11.240353     9A    -11.236361
      10A    -11.235626    11A     -1.477206    12A     -1.368873
      13A     -1.171002    14A     -1.052031    15A     -1.029236
      16A     -0.980708    17A     -0.863224    18A     -0.839032
      19A     -0.781516    20A     -0.744581    21A     -0.687941
      22A     -0.681918    23A     -0.677204    24A     -0.633868
      25A     -0.630763    26A     -0.601181    27A     -0.588701
      28A     -0.563315    29A     -0.532859    30A     -0.520248
      31A     -0.509967    32A     -0.502959    33A     -0.463903
      34A     -0.449722    35A     -0.349972    36A     -0.346465

  @DF-RHF Final Energy:  -457.50935459089544

   => Energetics <=

    Nuclear Repulsion Energy =            493.9434913825072044
    One-Electron Energy =               -1602.3422682053305834
    Two-Electron Energy =                 650.8894222319281653
    DFT Exchange-Correlation Energy =       0.0000000000000000
    Empirical Dispersion Energy =           0.0000000000000000
    PCM Polarization Energy =               0.0000000000000000
    EFP Energy =                            0.0000000000000000
    Total Energy =                       -457.5093545908953274
    Molecular point group: c1
  Basis Set: CC-PVTZ
  Basis Set:

  -Total Gradient:
     Atom            X                  Y                   Z
    ------   -----------------  -----------------  -----------------
       1       -0.000010386395     0.000017445596    -0.000006183200
       2        0.000008528327    -0.000124272647     0.000018938172
       3        0.000082639346     0.000097725404     0.000000446882
       4       -0.000113603255     0.000042324249    -0.000007801941
       5       -0.000018868774     0.000002997429     0.000000723431
       6       -0.000133652496     0.000014909490    -0.002331461776
       7        0.000014681718    -0.000009718886     0.000003837707
       8        0.000082346009     0.000091594609    -0.000012770256
       9        0.000014826967     0.000013013773    -0.000000869291
      10        0.000119107001    -0.000407002790     0.004198955648
      11        0.000013958041    -0.000025329150    -0.000000208231
      12       -0.000124349339     0.001145914411    -0.003950058830
      13        0.000040622609    -0.000766524162     0.002118794649
      14       -0.000008152359    -0.000100786196    -0.000027365116
      15        0.000062950804     0.000008765244    -0.000013643431
      16       -0.000009663074    -0.000000307738    -0.000003979709
      17       -0.000016741984     0.000000617861     0.000001249629
      18       -0.000004243142    -0.000001366497     0.000011395661

  **** Optimization is complete! (in 6 steps) ****
    Final optimized geometry and variables:
    Molecular point group: c1

    Geometry (in Angstrom), charge = 0, multiplicity = 1:

    H           -3.953558997000    -0.867872575802    -0.108056633036
    C           -2.898324302659    -0.672280728577    -0.087507426015
    C           -2.439564327659     0.631430619317    -0.071553944844
    C           -2.001242668128    -1.725196058996    -0.081083957397
    H           -3.135813586959     1.447563012029    -0.084187188520
    C           -1.082321775189     0.885170137430    -0.038920228587
    H           -2.357775919110    -2.736882069974    -0.096609903266
    C           -0.644942061224    -1.473197658445    -0.062865090984
    H           -0.723076863501     1.893711708248    -0.020335750785
    C           -0.181662727721    -0.167608759367    -0.028137335445
    H            0.062879109385    -2.277262144541    -0.075126553003
    C            1.292244847294     0.057832951096    -0.042925242922
    O            1.631362438049     1.271158662680     0.350012859418
    O            2.082812226532    -0.769006911326    -0.352691633261
    C            3.009950282297     1.585546399047     0.357184288482
    H            3.544057991457     0.932097543735     1.030359415862
    H            3.078985392407     2.606662585000     0.695066243164
    H            3.427195891055     1.490273770908    -0.634088085242

  Mulliken Charges: (a.u.)
   Center  Symbol    Alpha    Beta     Spin     Total
       1     H     0.42044  0.42044  0.00000  0.15912
       2     C     3.07128  3.07128  0.00000 -0.14255
       3     C     3.07414  3.07414  0.00000 -0.14828
       4     C     3.07343  3.07343  0.00000 -0.14686
       5     H     0.42178  0.42178  0.00000  0.15644
       6     C     3.08447  3.08447  0.00000 -0.16894
       7     H     0.42054  0.42054  0.00000  0.15893
       8     C     3.07945  3.07945  0.00000 -0.15890
       9     H     0.41269  0.41269  0.00000  0.17462
      10     C     2.99448  2.99448  0.00000  0.01103
      11     H     0.40830  0.40830  0.00000  0.18340
      12     C     2.79605  2.79605  0.00000  0.40789
      13     O     4.14783  4.14783  0.00000 -0.29566
      14     O     4.20857  4.20857  0.00000 -0.41715
      15     C     3.03665  3.03665  0.00000 -0.07331
      16     H     0.45187  0.45187  0.00000  0.09626
      17     H     0.44477  0.44477  0.00000  0.11046
      18     H     0.45326  0.45326  0.00000  0.09348

   Total alpha = 36.00000, Total beta = 36.00000, Total charge =  0.00000

*** Psi4 exiting successfully. Buy a developer a beer!
