                              Psi4 1.0.54 Driver

  ==> Input File <==

--------------------------------------------------------------------------
set {
	reference rhf
	basis cc-pvtz
}

set_num_threads( 4 )
memory 2 gb

molecule MOL {
0 1

H	 -3.498818	 -0.133246	 0.762012
O	 -3.103022	 -0.240745	 -0.084242
C	 -1.772068	 -0.086824	 -0.023690
C	 -1.115173	 0.195131	 1.167707
C	 -1.058116	 -0.219175	 -1.203071
H	 -1.675949	 0.296344	 2.078593
C	 0.251479	 0.343196	 1.173579
H	 -1.584058	 -0.436745	 -2.110853
C	 0.309957	 -0.067933	 -1.180148
H	 0.770055	 0.560827	 2.086172
C	 0.981121	 0.213562	 0.000000
H	 0.864852	 -0.170401	 -2.094539
C	 2.447402	 0.371303	 0.000000
O	 3.227427	 -0.521847	 0.000000
H	 2.796538	 1.409525	 0.000000

	symmetry c1
}
set optking {
	frozen_dihedral = ("
		7 11 13 14
	")
}

ee,wfn = optimize('scf', return_wfn=True)
oeprop( wfn, 'DIPOLE', 'QUADRUPOLE', 'MULLIKEN_CHARGES')
f=open( 'psi4out.xyz', 'w' )
f.write( "15  " )
f.write( str(ee) + "\n" )
f.write( MOL.save_string_xyz() )
f.close()
--------------------------------------------------------------------------

    Molecular point group: c1
  Charge       = 0
  Multiplicity = 1
  Basis Set: CC-PVTZ
  Basis Set:
  @DF-RHF Final Energy:  -418.42687204486947
    Total Energy =                       -418.4268720448696968
    Molecular point group: c1
  Basis Set: CC-PVTZ
  Basis Set:
  Basis Set: CC-PVTZ
  Basis Set:
  @DF-RHF Final Energy:  -418.42730894058769
    Total Energy =                       -418.4273089405872952
  Basis Set: CC-PVTZ
  Basis Set:
  Basis Set: CC-PVTZ
  Basis Set:
  @DF-RHF Final Energy:  -418.42645210181422
    Total Energy =                       -418.4264521018143341
  Basis Set: CC-PVTZ
  Basis Set:
  Basis Set: CC-PVTZ
  Basis Set:
  @DF-RHF Final Energy:  -418.42761043976657
    Total Energy =                       -418.4276104397664540
  Basis Set: CC-PVTZ
  Basis Set:
  Basis Set: CC-PVTZ
  Basis Set:
  @DF-RHF Final Energy:  -418.42762806147829
    Total Energy =                       -418.4276280614783445
  Basis Set: CC-PVTZ
  Basis Set:
  Charge       = 0
  Multiplicity = 1
  Basis Set: CC-PVTZ
  Basis Set:

    Orbital Energies (a.u.)
    -----------------------

    Doubly Occupied:

       1A    -20.596387     2A    -20.561407     3A    -11.330624
       4A    -11.311362     5A    -11.253276     6A    -11.250376
       7A    -11.242065     8A    -11.240582     9A    -11.234443
      10A     -1.428108    11A     -1.415466    12A     -1.172373
      13A     -1.041409    14A     -1.038161    15A     -0.890782
      16A     -0.861947    17A     -0.804790    18A     -0.756700
      19A     -0.708598    20A     -0.682808    21A     -0.657878
      22A     -0.630988    23A     -0.607652    24A     -0.607319
      25A     -0.594595    26A     -0.564662    27A     -0.534767
      28A     -0.505266    29A     -0.498391    30A     -0.425405
      31A     -0.358269    32A     -0.328167

  @DF-RHF Final Energy:  -418.42762900505346

   => Energetics <=

    Nuclear Repulsion Energy =            401.2867499034277330
    One-Electron Energy =               -1365.1587106519095869
    Two-Electron Energy =                 545.4443317434285063
    DFT Exchange-Correlation Energy =       0.0000000000000000
    Empirical Dispersion Energy =           0.0000000000000000
    PCM Polarization Energy =               0.0000000000000000
    EFP Energy =                            0.0000000000000000
    Total Energy =                       -418.4276290050532907
    Molecular point group: c1
  Basis Set: CC-PVTZ
  Basis Set:

  -Total Gradient:
     Atom            X                  Y                   Z
    ------   -----------------  -----------------  -----------------
       1        0.000010416798     0.000012371704    -0.000006632482
       2       -0.000011366031     0.000029439191     0.000019967650
       3        0.000025123013    -0.000142499278    -0.000195864730
       4        0.000157782487     0.000062690262     0.000077792765
       5       -0.000206409966     0.000012376319     0.000110705464
       6       -0.000009864309    -0.000003535462    -0.000000774825
       7        0.000105437025    -0.002835096858     0.000542640848
       8        0.000017567402    -0.000005030070    -0.000014305334
       9        0.000194937646     0.000102866406     0.000084553439
      10       -0.000005714650    -0.000002514351    -0.000003766287
      11       -0.000431896936     0.004097357901     0.000723824063
      12       -0.000017335417    -0.000015993284    -0.000000459209
      13        0.000311630284    -0.001255081373    -0.004836259593
      14       -0.000091983879     0.000009605639     0.003513408262
      15       -0.000048323464    -0.000066956748    -0.000014830031

  **** Optimization is complete! (in 6 steps) ****
    Final optimized geometry and variables:
    Molecular point group: c1

    Geometry (in Angstrom), charge = 0, multiplicity = 1:

    H           -3.504399718794    -0.142506982145     0.784627489795
    O           -3.112259653873    -0.238703416468    -0.064432863492
    C           -1.777317371716    -0.074528360013    -0.004867375962
    C           -1.115907719431     0.210934310649     1.175258708356
    C           -1.062407706358    -0.202849795337    -1.183810612806
    H           -1.665604830574     0.302132510015     2.094095708274
    C            0.255994465223     0.374781418705     1.171781113050
    H           -1.586925198638    -0.430884799290    -2.090353003966
    C            0.305879772205    -0.048182006538    -1.172752683200
    H            0.758181512142     0.594553957486     2.095564420514
    C            0.978241588381     0.251939448547     0.001439938845
    H            0.855142690137    -0.167522208735    -2.087379287851
    C            2.470692082753     0.384926242567     0.017060572543
    O            3.214623682014    -0.532712895362     0.006776780747
    H            2.862053540407     1.406485742899     0.069555518991

  Mulliken Charges: (a.u.)
   Center  Symbol    Alpha    Beta     Spin     Total
       1     H     0.38667  0.38667  0.00000  0.22667
       2     O     4.17040  4.17040  0.00000 -0.34080
       3     C     2.85647  2.85647  0.00000  0.28705
       4     C     3.12467  3.12467  0.00000 -0.24935
       5     C     3.09856  3.09856  0.00000 -0.19712
       6     H     0.43232  0.43232  0.00000  0.13537
       7     C     3.08510  3.08510  0.00000 -0.17020
       8     H     0.41726  0.41726  0.00000  0.16549
       9     C     3.07695  3.07695  0.00000 -0.15391
      10     H     0.42270  0.42270  0.00000  0.15459
      11     C     2.95866  2.95866  0.00000  0.08267
      12     H     0.42007  0.42007  0.00000  0.15985
      13     C     2.93625  2.93625  0.00000  0.12749
      14     O     4.15568  4.15568  0.00000 -0.31135
      15     H     0.45823  0.45823  0.00000  0.08355

   Total alpha = 32.00000, Total beta = 32.00000, Total charge = -0.00000

*** Psi4 exiting successfully. Buy a developer a beer!
