  ==> Input File <==

--------------------------------------------------------------------------
set {
	reference rhf
	basis 6-31G*
}

set_num_threads( 1 )
memory 2 gb

molecule MOL {
0 1

H	 -3.420663	 1.227371	 -1.044276
O	 -3.452007	 0.283848	 -0.965577
C	 -3.181085	 -0.079926	 0.364119
C	 -1.765924	 0.277073	 0.805136
H	 -3.327791	 -1.152017	 0.410903
H	 -3.905698	 0.375695	 1.036898
C	 -1.020758	 -0.884158	 1.464520
H	 -1.203588	 0.630899	 -0.059472
H	 -1.823985	 1.118484	 1.493524
C	 0.405770	 -0.521863	 1.882777
H	 -0.999392	 -1.727795	 0.781490
H	 -1.580292	 -1.213433	 2.338530
C	 1.143252	 -1.687419	 2.547371
H	 0.956033	 -0.184706	 1.007588
H	 0.378175	 0.322771	 2.570117
C	 2.546002	 -1.347897	 3.064261
H	 1.211093	 -2.517088	 1.845416
H	 0.545489	 -2.046213	 3.382693
C	 3.559444	 -1.000914	 1.972042
H	 2.920147	 -2.198714	 3.628546
H	 2.479078	 -0.522434	 3.770190
H	 3.638287	 -1.803861	 1.243895
H	 4.546004	 -0.843961	 2.397368
H	 3.288290	 -0.095920	 1.438539

	symmetry c1
}
set optking {
	frozen_dihedral = ("
		20 16 13 17,
		17 13 10 7,
		13 10 7 11,
		11 7 4 3,
		1 2 3 5
	")
}

ee = energy('scf')
oeprop('DIPOLE', 'QUADRUPOLE', 'MULLIKEN_CHARGES')
f=open( 'psi4out.xyz', 'w' )
f.write( "24  " )
f.write( str(ee) + "\n" )
f.write( MOL.save_string_xyz() )
f.close()
--------------------------------------------------------------------------

    Molecular point group: c1

    Geometry (in Angstrom), charge = 0, multiplicity = 1:

       Center              X                  Y                   Z               Mass
    ------------   -----------------  -----------------  -----------------  -----------------
           H         -3.151596815485     1.822575652542    -2.389483789713     1.007825032070
           O         -3.182940815485     0.879052652542    -2.310784789713    15.994914619560
           C         -2.912018815485     0.515278652542    -0.981088789713    12.000000000000
           C         -1.496857815485     0.872277652542    -0.540071789713    12.000000000000
           H         -3.058724815485    -0.556812347458    -0.934304789713     1.007825032070
           H         -3.636631815485     0.970899652542    -0.308309789713     1.007825032070
           C         -0.751691815485    -0.288953347458     0.119312210287    12.000000000000
           H         -0.934521815485     1.226103652542    -1.404679789713     1.007825032070
           H         -1.554918815485     1.713688652542     0.148316210287     1.007825032070
           C          0.674836184515     0.073341652542     0.537569210287    12.000000000000
           H         -0.730325815485    -1.132590347458    -0.563717789713     1.007825032070
           H         -1.311225815485    -0.618228347458     0.993322210287     1.007825032070
           C          1.412318184515    -1.092214347458     1.202163210287    12.000000000000
           H          1.225099184515     0.410498652542    -0.337619789713     1.007825032070
           H          0.647241184515     0.917975652542     1.224909210287     1.007825032070
           C          2.815068184515    -0.752692347458     1.719053210287    12.000000000000
           H          1.480159184515    -1.921883347458     0.500208210287     1.007825032070
           H          0.814555184515    -1.451008347458     2.037485210287     1.007825032070
           C          3.828510184515    -0.405709347458     0.626834210287    12.000000000000
           H          3.189213184515    -1.603509347458     2.283338210287     1.007825032070
           H          2.748144184515     0.072770652542     2.424982210287     1.007825032070
           H          3.907353184515    -1.208656347458    -0.101312789713     1.007825032070
           H          4.815070184515    -0.248756347458     1.052160210287     1.007825032070
           H          3.557356184515     0.499284652542     0.093331210287     1.007825032070

  Charge       = 0
  Multiplicity = 1
  Basis Set: 6-31G*
  Basis Set:

    Orbital Energies (a.u.)
    -----------------------

    Doubly Occupied:

       1A    -20.551175     2A    -11.265480     3A    -11.217763
       4A    -11.215543     5A    -11.214750     6A    -11.214355
       7A    -11.213726     8A    -11.208222     9A     -1.357967
      10A     -1.091421    11A     -1.050328    12A     -0.985801
      13A     -0.914032    14A     -0.849975    15A     -0.805774
      16A     -0.778158    17A     -0.688995    18A     -0.646508
      19A     -0.625276    20A     -0.613970    21A     -0.598417
      22A     -0.586306    23A     -0.564791    24A     -0.531616
      25A     -0.521319    26A     -0.517442    27A     -0.488267
      28A     -0.480290    29A     -0.463528    30A     -0.461882
      31A     -0.459241    32A     -0.454079    33A     -0.416947

  @DF-RHF Final Energy:  -349.24152644317138

   => Energetics <=

    Nuclear Repulsion Energy =            380.6251783672444731
    One-Electron Energy =               -1227.6272480670536424
    Two-Electron Energy =                 497.7605432566375043
    DFT Exchange-Correlation Energy =       0.0000000000000000
    Empirical Dispersion Energy =           0.0000000000000000
    PCM Polarization Energy =               0.0000000000000000
    EFP Energy =                            0.0000000000000000
    Total Energy =                       -349.2415264431717219

  Mulliken Charges: (a.u.)
   Center  Symbol    Alpha    Beta     Spin     Total
       1     H     0.28370  0.28370  0.00000  0.43261
       2     O     4.36973  4.36973  0.00000 -0.73945
       3     C     2.99439  2.99439  0.00000  0.01123
       4     C     3.17337  3.17337  0.00000 -0.34675
       5     H     0.41420  0.41420  0.00000  0.17161
       6     H     0.42989  0.42989  0.00000  0.14022
       7     C     3.15857  3.15857  0.00000 -0.31714
       8     H     0.41417  0.41417  0.00000  0.17166
       9     H     0.42341  0.42341  0.00000  0.15319
      10     C     3.15422  3.15422  0.00000 -0.30843
      11     H     0.41796  0.41796  0.00000  0.16409
      12     H     0.42336  0.42336  0.00000  0.15327
      13     C     3.15268  3.15268  0.00000 -0.30536
      14     H     0.42037  0.42037  0.00000  0.15926
      15     H     0.42436  0.42436  0.00000  0.15128
      16     C     3.15235  3.15235  0.00000 -0.30470
      17     H     0.42355  0.42355  0.00000  0.15290
      18     H     0.42256  0.42256  0.00000  0.15487
      19     C     3.24119  3.24119  0.00000 -0.48237
      20     H     0.42091  0.42091  0.00000  0.15818
      21     H     0.42367  0.42367  0.00000  0.15267
      22     H     0.42191  0.42191  0.00000  0.15619
      23     H     0.41930  0.41930  0.00000  0.16139
      24     H     0.42020  0.42020  0.00000  0.15960

   Total alpha = 33.00000, Total beta = 33.00000, Total charge = -0.00000
