                              Psi4 1.0.54 Driver

  ==> Input File <==

--------------------------------------------------------------------------
set {
	reference rhf
	basis cc-pvtz
}

set_num_threads( 4 )
memory 2 gb

molecule MOL {
0 1

H	 -1.835082	 1.385983	 0.000069
C	 -1.300516	 0.441153	 -0.000028
O	 -0.006604	 0.654344	 -0.000106
O	 -1.828920	 -0.612308	 0.000113
C	 0.489915	 1.715339	 -0.811021
C	 1.990182	 1.760076	 -0.643991
H	 0.025819	 2.640070	 -0.498859
H	 0.207966	 1.531383	 -1.837972
H	 2.257809	 1.940998	 0.389263
H	 2.400451	 2.559166	 -1.249786
H	 2.440873	 0.826722	 -0.956558

	symmetry c1
}
set optking {
	frozen_dihedral = ("
		5 3 2 4
	")
}

ee,wfn = optimize('scf', return_wfn=True)
oeprop( wfn, 'DIPOLE', 'QUADRUPOLE', 'MULLIKEN_CHARGES')
f=open( 'psi4out.xyz', 'w' )
f.write( "11  " )
f.write( str(ee) + "\n" )
f.write( MOL.save_string_xyz() )
f.close()
--------------------------------------------------------------------------

    Molecular point group: c1
  Charge       = 0
  Multiplicity = 1
  Basis Set: CC-PVTZ
  Basis Set:
  @DF-RHF Final Energy:  -266.91847646283247
    Total Energy =                       -266.9184764628325865
    Molecular point group: c1
  Basis Set: CC-PVTZ
  Basis Set:
  Basis Set: CC-PVTZ
  Basis Set:
  @DF-RHF Final Energy:  -266.91930618095091
    Total Energy =                       -266.9193061809509118
  Basis Set: CC-PVTZ
  Basis Set:
  Basis Set: CC-PVTZ
  Basis Set:
  @DF-RHF Final Energy:  -266.91719788561102
    Total Energy =                       -266.9171978856110172
  Basis Set: CC-PVTZ
  Basis Set:
  Basis Set: CC-PVTZ
  Basis Set:
  @DF-RHF Final Energy:  -266.91975292526047
    Total Energy =                       -266.9197529252604113
  Basis Set: CC-PVTZ
  Basis Set:
  Basis Set: CC-PVTZ
  Basis Set:
  @DF-RHF Final Energy:  -266.91977902339835
    Total Energy =                       -266.9197790233985188
  Basis Set: CC-PVTZ
  Basis Set:
  Basis Set: CC-PVTZ
  Basis Set:
  @DF-RHF Final Energy:  -266.91978976489781
    Total Energy =                       -266.9197897648977005
  Basis Set: CC-PVTZ
  Basis Set:
  Charge       = 0
  Multiplicity = 1
  Basis Set: CC-PVTZ
  Basis Set:

    Orbital Energies (a.u.)
    -----------------------

    Doubly Occupied:

       1A    -20.599323     2A    -20.550361     3A    -11.372596
       4A    -11.304013     5A    -11.231009     6A     -1.474557
       7A     -1.384636     8A     -1.054675     9A     -0.889281
      10A     -0.844539    11A     -0.742919    12A     -0.694430
      13A     -0.664586    14A     -0.623358    15A     -0.570625
      16A     -0.554134    17A     -0.538853    18A     -0.515121
      19A     -0.464998    20A     -0.454611

  @DF-RHF Final Energy:  -266.91979035654117

   => Energetics <=

    Nuclear Repulsion Energy =            176.7398788925534063
    One-Electron Energy =                -714.2620862716830743
    Two-Electron Energy =                 270.6024170225883267
    DFT Exchange-Correlation Energy =       0.0000000000000000
    Empirical Dispersion Energy =           0.0000000000000000
    PCM Polarization Energy =               0.0000000000000000
    EFP Energy =                            0.0000000000000000
    Total Energy =                       -266.9197903565413412
    Molecular point group: c1
  Basis Set: CC-PVTZ
  Basis Set:

  -Total Gradient:
     Atom            X                  Y                   Z
    ------   -----------------  -----------------  -----------------
       1       -0.000007980970     0.000036821805    -0.000026572675
       2        0.000870973476    -0.002356250835     0.006563913066
       3        0.000020910463     0.003869182286     0.002834150327
       4       -0.000681268232     0.000735540153    -0.005599755242
       5       -0.000212343267    -0.002315401621    -0.003757452153
       6       -0.000025907961    -0.000003586280    -0.000001977279
       7        0.000020666261     0.000006528023     0.000001338370
       8        0.000037153300     0.000029837824    -0.000013425909
       9       -0.000010057112     0.000002203856     0.000002679351
      10       -0.000008196488    -0.000001176895    -0.000000212085
      11       -0.000003949469    -0.000003698315    -0.000002685771

  **** Optimization is complete! (in 7 steps) ****
    Final optimized geometry and variables:
    Molecular point group: c1

    Geometry (in Angstrom), charge = 0, multiplicity = 1:

    H           -1.660201349266     0.645856022737     0.505162088338
    C           -1.172072395124    -0.315057760622     0.333601831580
    O            0.142388536295    -0.222599354845     0.202603266481
    O           -1.763791867900    -1.323925029584     0.262242259930
    C            0.652330034422     0.881390816340    -0.523527196389
    C            2.138143813435     0.976697957602    -0.269563819476
    H            0.148877780630     1.790496056529    -0.209033789999
    H            0.449139644506     0.728723405371    -1.576653790630
    H            2.335813959049     1.137804198019     0.782322129826
    H            2.555376624235     1.803646525744    -0.831614380641
    H            2.633811997676     0.065332128368    -0.576559091834

  Mulliken Charges: (a.u.)
   Center  Symbol    Alpha    Beta     Spin     Total
       1     H     0.47554  0.47554  0.00000  0.04891
       2     C     2.84237  2.84237  0.00000  0.31527
       3     O     4.13427  4.13427  0.00000 -0.26854
       4     O     4.16954  4.16954  0.00000 -0.33909
       5     C     2.97566  2.97566  0.00000  0.04867
       6     C     3.13270  3.13270  0.00000 -0.26539
       7     H     0.46376  0.46376  0.00000  0.07247
       8     H     0.45652  0.45652  0.00000  0.08696
       9     H     0.44918  0.44918  0.00000  0.10164
      10     H     0.45549  0.45549  0.00000  0.08902
      11     H     0.44496  0.44496  0.00000  0.11008

   Total alpha = 20.00000, Total beta = 20.00000, Total charge = -0.00000

*** Psi4 exiting successfully. Buy a developer a beer!
