  ==> Input File <==

--------------------------------------------------------------------------
set {
	reference rhf
	basis 6-31G*
}

set_num_threads( 1 )
memory 2 gb

molecule MOL {
0 1

H	 -2.357793	 -0.169329	 -0.871994
N	 -1.852125	 0.165761	 -0.074816
C	 -0.563778	 -0.502042	 0.037919
H	 -2.418891	 -0.026193	 0.729352
C	 0.575259	 0.508231	 -0.048326
H	 -0.482092	 -1.204004	 -0.786564
H	 -0.460411	 -1.085169	 0.956626
C	 1.954651	 -0.143624	 0.035137
H	 0.475158	 1.060484	 -0.977307
H	 0.469181	 1.234488	 0.755973
H	 2.103292	 -0.853109	 -0.774172
H	 2.742821	 0.599562	 -0.030094
H	 2.083613	 -0.679371	 0.971560

	symmetry c1
}
set optking {
	frozen_dihedral = ("
		6 3 5 9
	")
}

ee = energy('scf')
oeprop('DIPOLE', 'QUADRUPOLE', 'MULLIKEN_CHARGES')
f=open( 'psi4out.xyz', 'w' )
f.write( "13  " )
f.write( str(ee) + "\n" )
f.write( MOL.save_string_xyz() )
f.close()
--------------------------------------------------------------------------

    Molecular point group: c1

    Geometry (in Angstrom), charge = 0, multiplicity = 1:

       Center              X                  Y                   Z               Mass
    ------------   -----------------  -----------------  -----------------  -----------------
           H         -2.354913206968    -0.161550856548    -0.858828667044     1.007825032070
           N         -1.849245206968     0.173539143452    -0.061650667044    14.003074004780
           C         -0.560898206968    -0.494263856548     0.051084332956    12.000000000000
           H         -2.416011206968    -0.018414856548     0.742517332956     1.007825032070
           C          0.578138793032     0.516009143452    -0.035160667044    12.000000000000
           H         -0.479212206968    -1.196225856548    -0.773398667044     1.007825032070
           H         -0.457531206968    -1.077390856548     0.969791332956     1.007825032070
           C          1.957530793032    -0.135845856548     0.048302332956    12.000000000000
           H          0.478037793032     1.068262143452    -0.964141667044     1.007825032070
           H          0.472060793032     1.242266143452     0.769138332956     1.007825032070
           H          2.106171793032    -0.845330856548    -0.761006667044     1.007825032070
           H          2.745700793032     0.607340143452    -0.016928667044     1.007825032070
           H          2.086492793032    -0.671592856548     0.984725332956     1.007825032070

  Charge       = 0
  Multiplicity = 1
  Basis Set: 6-31G*
  Basis Set:

    Orbital Energies (a.u.)
    -----------------------

    Doubly Occupied:

       1A    -15.532024     2A    -11.240396     3A    -11.205062
       4A    -11.204173     5A     -1.176497     6A     -1.031619
       7A     -0.897034     8A     -0.792803     9A     -0.675736
      10A     -0.612199    11A     -0.600498    12A     -0.573998
      13A     -0.516193    14A     -0.488810    15A     -0.484477
      16A     -0.462164    17A     -0.378926

  @DF-RHF Final Energy:  -173.27838348603044

   => Energetics <=

    Nuclear Repulsion Energy =            131.6259381125927064
    One-Electron Energy =                -494.0635292329270669
    Two-Electron Energy =                 189.1592076343039253
    DFT Exchange-Correlation Energy =       0.0000000000000000
    Empirical Dispersion Energy =           0.0000000000000000
    PCM Polarization Energy =               0.0000000000000000
    EFP Energy =                            0.0000000000000000
    Total Energy =                       -173.2783834860304069

  Mulliken Charges: (a.u.)
   Center  Symbol    Alpha    Beta     Spin     Total
       1     H     0.33148  0.33148  0.00000  0.33703
       2     N     3.92343  3.92343  0.00000 -0.84686
       3     C     3.06885  3.06885  0.00000 -0.13771
       4     H     0.33230  0.33230  0.00000  0.33541
       5     C     3.13768  3.13768  0.00000 -0.27535
       6     H     0.42743  0.42743  0.00000  0.14515
       7     H     0.42601  0.42601  0.00000  0.14799
       8     C     3.24609  3.24609  0.00000 -0.49219
       9     H     0.42018  0.42018  0.00000  0.15963
      10     H     0.42098  0.42098  0.00000  0.15804
      11     H     0.42367  0.42367  0.00000  0.15267
      12     H     0.41823  0.41823  0.00000  0.16354
      13     H     0.42367  0.42367  0.00000  0.15265

   Total alpha = 17.00000, Total beta = 17.00000, Total charge = -0.00000
