                              Psi4 1.0.54 Driver

  ==> Input File <==

--------------------------------------------------------------------------
set {
	reference rhf
	basis cc-pvtz
}

set_num_threads( 4 )
memory 2 gb

molecule MOL {
0 1

H	 -3.595242	 1.710351	 1.554736
C	 -3.645457	 0.863473	 0.856767
C	 -2.653809	 0.914422	 -0.273689
O	 -4.444569	 0.008094	 1.021248
C	 -1.216901	 1.136108	 0.207794
H	 -2.744733	 0.004697	 -0.852885
H	 -2.950085	 1.746229	 -0.909001
C	 -0.247837	 0.040196	 -0.230469
H	 -0.872882	 2.093195	 -0.169002
H	 -1.209325	 1.218376	 1.291938
C	 1.181757	 0.280428	 0.247371
H	 -0.259600	 -0.030819	 -1.314870
H	 -0.591284	 -0.923375	 0.136958
C	 2.151032	 -0.811012	 -0.202643
H	 1.515939	 1.247397	 -0.115449
H	 1.191514	 0.341223	 1.333422
C	 3.580021	 -0.656538	 0.320835
H	 2.170545	 -0.847575	 -1.289412
H	 1.766632	 -1.772905	 0.124928
C	 4.327657	 0.562694	 -0.213579
H	 4.138806	 -1.549270	 0.057813
H	 3.561991	 -0.620783	 1.406976
H	 4.355973	 0.557257	 -1.298551
H	 3.867136	 1.491650	 0.100501
H	 5.351524	 0.571613	 0.142204

	symmetry c1
}
set optking {
	frozen_dihedral = ("
		6 3 5 8
	")
}

ee,wfn = optimize('scf', return_wfn=True)
oeprop( wfn, 'DIPOLE', 'QUADRUPOLE', 'MULLIKEN_CHARGES')
f=open( 'psi4out.xyz', 'w' )
f.write( "25  " )
f.write( str(ee) + "\n" )
f.write( MOL.save_string_xyz() )
f.close()
--------------------------------------------------------------------------

    Molecular point group: c1
  Charge       = 0
  Multiplicity = 1
  Basis Set: CC-PVTZ
  Basis Set:
  @DF-RHF Final Energy:  -387.25568187232744
    Total Energy =                       -387.2556818723278411
    Molecular point group: c1
  Basis Set: CC-PVTZ
  Basis Set:
  Basis Set: CC-PVTZ
  Basis Set:
  @DF-RHF Final Energy:  -387.25544079006391
    Total Energy =                       -387.2554407900640854
  Basis Set: CC-PVTZ
  Basis Set:
  Basis Set: CC-PVTZ
  Basis Set:
  @DF-RHF Final Energy:  -387.25294928787383
    Total Energy =                       -387.2529492878738893
  Basis Set: CC-PVTZ
  Basis Set:
  Basis Set: CC-PVTZ
  Basis Set:
  @DF-RHF Final Energy:  -387.25600041734828
    Total Energy =                       -387.2560004173484458
  Basis Set: CC-PVTZ
  Basis Set:
  Basis Set: CC-PVTZ
  Basis Set:
  @DF-RHF Final Energy:  -387.25602027113018
    Total Energy =                       -387.2560202711300690
  Basis Set: CC-PVTZ
  Basis Set:
  Basis Set: CC-PVTZ
  Basis Set:
  @DF-RHF Final Energy:  -387.25602196721451
    Total Energy =                       -387.2560219672143376
  Basis Set: CC-PVTZ
  Basis Set:
  Basis Set: CC-PVTZ
  Basis Set:
  @DF-RHF Final Energy:  -387.25602628176421
    Total Energy =                       -387.2560262817645480
  Basis Set: CC-PVTZ
  Basis Set:
  Charge       = 0
  Multiplicity = 1
  Basis Set: CC-PVTZ
  Basis Set:

    Orbital Energies (a.u.)
    -----------------------

    Doubly Occupied:

       1A    -20.551200     2A    -11.320994     3A    -11.233575
       4A    -11.232996     5A    -11.222784     6A    -11.217745
       7A    -11.216711     8A    -11.215692     9A    -11.209300
      10A     -1.406349    11A     -1.104231    12A     -1.069994
      13A     -1.015116    14A     -0.945354    15A     -0.875669
      16A     -0.813913    17A     -0.796019    18A     -0.781369
      19A     -0.674629    20A     -0.659397    21A     -0.635710
      22A     -0.625292    23A     -0.611845    24A     -0.588284
      25A     -0.570493    26A     -0.559443    27A     -0.530239
      28A     -0.524024    29A     -0.516712    30A     -0.495472
      31A     -0.488432    32A     -0.480151    33A     -0.465717
      34A     -0.459763    35A     -0.445662    36A     -0.411191

  @DF-RHF Final Energy:  -387.25602600362708

   => Energetics <=

    Nuclear Repulsion Energy =            434.4443616709309026
    One-Electron Energy =               -1385.4578396809156402
    Two-Electron Energy =                 563.7574520063575392
    DFT Exchange-Correlation Energy =       0.0000000000000000
    Empirical Dispersion Energy =           0.0000000000000000
    PCM Polarization Energy =               0.0000000000000000
    EFP Energy =                            0.0000000000000000
    Total Energy =                       -387.2560260036271984
    Molecular point group: c1
  Basis Set: CC-PVTZ
  Basis Set:

  -Total Gradient:
     Atom            X                  Y                   Z
    ------   -----------------  -----------------  -----------------
       1       -0.000003834443    -0.000019309150     0.000007441556
       2       -0.000026582665    -0.000009476969    -0.000033029415
       3        0.000041267347     0.000113990182    -0.000168863845
       4        0.000018086175     0.000031572859     0.000001729437
       5       -0.000022814975    -0.000070171505     0.000128278175
       6       -0.000030539045    -0.000058538963     0.000123635630
       7       -0.000018051804    -0.000031389741     0.000017034228
       8        0.000025216556     0.000043613600    -0.000058184920
       9        0.000018493811    -0.000013741062     0.000020082555
      10        0.000006526523    -0.000004841194    -0.000023905649
      11       -0.000004740352     0.000004125915    -0.000012885180
      12        0.000001555510     0.000003656520     0.000006808550
      13       -0.000004708611     0.000001197794     0.000000038243
      14        0.000005489258     0.000016824376    -0.000023659193
      15       -0.000027588983    -0.000024820418    -0.000001083644
      16        0.000001976357     0.000005437320     0.000000360847
      17       -0.000017466649     0.000021544308     0.000034422031
      18        0.000001046169     0.000013947833     0.000000490761
      19        0.000008025537    -0.000002890138    -0.000013256973
      20        0.000015592563    -0.000005754458    -0.000006526972
      21       -0.000007645145    -0.000004306383     0.000008993835
      22       -0.000000788495     0.000012360821    -0.000000103109
      23       -0.000002458080     0.000004633693    -0.000002419875
      24        0.000028886307    -0.000019471278     0.000003625017
      25       -0.000004942873    -0.000008193961    -0.000009022089

  **** Optimization is complete! (in 8 steps) ****
    Final optimized geometry and variables:
    Molecular point group: c1

    Geometry (in Angstrom), charge = 0, multiplicity = 1:

    H           -3.502147106800     1.424319077577     1.372127839833
    C           -3.538449951245     0.581156901578     0.669656554420
    C           -2.560085103146     0.658310129751    -0.470534529938
    O           -4.308123167065    -0.299386749689     0.841591383565
    C           -1.111271425606     0.904799138036     0.007597278360
    H           -2.642968525909    -0.256477814104    -1.041128396425
    H           -2.888372469512     1.472525336048    -1.110112448923
    C           -0.145003882285    -0.192162925043    -0.434312177551
    H           -0.758508177843     1.861395707999    -0.359904382332
    H           -1.086884986605     0.976857924423     1.091592709734
    C            1.285279082200     0.037775194920     0.044748785597
    H           -0.156070038783    -0.259977651379    -1.519083039768
    H           -0.501901793483    -1.150136043818    -0.065777692069
    C            2.246888413061    -1.059912259472    -0.406805873585
    H            1.627028652989     1.003008308468    -0.315769370380
    H            1.294395256355     0.095930293547     1.130881164199
    C            3.675170872980    -0.920394096106     0.122684505027
    H            2.270427339260    -1.091707402072    -1.493728869186
    H            1.852966317062    -2.019839918617    -0.084777459563
    C            4.436842689129     0.292412912090    -0.406450142164
    H            4.226239443201    -1.818088068001    -0.139794387778
    H            3.652949819057    -0.886513317947     1.208738472486
    H            4.467668359411     0.289841075491    -1.491385902051
    H            3.985520755573     1.225264627888    -0.090634311384
    H            5.459896118037     0.289399232171    -0.048299994492

  Mulliken Charges: (a.u.)
   Center  Symbol    Alpha    Beta     Spin     Total
       1     H     0.46503  0.46503  0.00000  0.06995
       2     C     2.90385  2.90385  0.00000  0.19231
       3     C     3.08838  3.08838  0.00000 -0.17675
       4     O     4.16556  4.16556  0.00000 -0.33113
       5     C     3.10674  3.10674  0.00000 -0.21347
       6     H     0.44255  0.44255  0.00000  0.11490
       7     H     0.44307  0.44307  0.00000  0.11386
       8     C     3.08915  3.08915  0.00000 -0.17831
       9     H     0.44615  0.44615  0.00000  0.10770
      10     H     0.45408  0.45408  0.00000  0.09183
      11     C     3.09358  3.09358  0.00000 -0.18716
      12     H     0.45082  0.45082  0.00000  0.09835
      13     H     0.44754  0.44754  0.00000  0.10492
      14     C     3.09552  3.09552  0.00000 -0.19104
      15     H     0.45256  0.45256  0.00000  0.09487
      16     H     0.45338  0.45338  0.00000  0.09324
      17     C     3.09065  3.09065  0.00000 -0.18129
      18     H     0.45354  0.45354  0.00000  0.09291
      19     H     0.44837  0.44837  0.00000  0.10326
      20     C     3.15264  3.15264  0.00000 -0.30528
      21     H     0.44773  0.44773  0.00000  0.10453
      22     H     0.45432  0.45432  0.00000  0.09137
      23     H     0.45474  0.45474  0.00000  0.09052
      24     H     0.45425  0.45425  0.00000  0.09149
      25     H     0.44579  0.44579  0.00000  0.10842

   Total alpha = 36.00000, Total beta = 36.00000, Total charge = -0.00000

*** Psi4 exiting successfully. Buy a developer a beer!
