  ==> Input File <==

--------------------------------------------------------------------------
set {
	reference rhf
	basis 6-31G*
}

set_num_threads( 4 )
memory 2 gb

molecule MOL {
0 1

H	 -3.956800	 -1.097199	 -0.915124
C	 -2.890225	 -0.961983	 -0.945428
C	 -2.286743	 -0.482055	 -2.098089
C	 -2.123594	 -1.268073	 0.167909
H	 -2.882460	 -0.245054	 -2.960827
C	 -0.915288	 -0.308459	 -2.136292
H	 -2.593156	 -1.639995	 1.060540
C	 -0.750583	 -1.095097	 0.131956
H	 -0.431269	 0.061845	 -3.019623
C	 -0.142731	 -0.614278	 -1.021774
H	 -0.153453	 -1.330684	 0.991175
C	 1.330405	 -0.409474	 -1.114414
O	 1.970282	 -0.730723	 0.000018
O	 1.885641	 0.000249	 -2.085341
C	 3.377318	 -0.566646	 -0.000065
H	 3.695437	 -0.028981	 -0.881264
H	 3.789299	 -1.563704	 0.000236
H	 3.695516	 -0.028316	 0.880770

	symmetry c1
}
set optking {
	frozen_dihedral = ("
		12 13 15 16
	")
}

ee = optimize('scf')
oeprop('DIPOLE', 'QUADRUPOLE', 'MULLIKEN_CHARGES')
f=open( 'psi4out.xyz', 'w' )
f.write( "18  " )
f.write( str(ee) + "\n" )
f.write( MOL.save_string_xyz() )
f.close()
--------------------------------------------------------------------------

    Molecular point group: c1
  Charge       = 0
  Multiplicity = 1
  Basis Set: 6-31G*
  Basis Set:
  @DF-RHF Final Energy:  -457.34739708058873
    Total Energy =                       -457.3473970805881663
    Molecular point group: c1
  Basis Set: 6-31G*
  Basis Set:
  Basis Set: 6-31G*
  Basis Set:
  @DF-RHF Final Energy:  -457.34795724617697
    Total Energy =                       -457.3479572461767475
  Basis Set: 6-31G*
  Basis Set:
  Basis Set: 6-31G*
  Basis Set:
  @DF-RHF Final Energy:  -457.34825321483430
    Total Energy =                       -457.3482532148345854
  Basis Set: 6-31G*
  Basis Set:
  Basis Set: 6-31G*
  Basis Set:
  @DF-RHF Final Energy:  -457.34847873177785
    Total Energy =                       -457.3484787317785276
  Basis Set: 6-31G*
  Basis Set:
  Basis Set: 6-31G*
  Basis Set:
  @DF-RHF Final Energy:  -457.34857269040413
    Total Energy =                       -457.3485726904043531
  Basis Set: 6-31G*
  Basis Set:
  Charge       = 0
  Multiplicity = 1
  Basis Set: 6-31G*
  Basis Set:

    Orbital Energies (a.u.)
    -----------------------

    Doubly Occupied:

       1A    -20.606727     2A    -20.543662     3A    -11.379421
       4A    -11.281520     5A    -11.245039     6A    -11.244887
       7A    -11.243593     8A    -11.241191     9A    -11.237000
      10A    -11.236239    11A     -1.470169    12A     -1.364451
      13A     -1.164743    14A     -1.047779    15A     -1.024320
      16A     -0.979260    17A     -0.859663    18A     -0.833802
      19A     -0.776966    20A     -0.739894    21A     -0.683821
      22A     -0.675027    23A     -0.671523    24A     -0.631256
      25A     -0.623518    26A     -0.597286    27A     -0.584731
      28A     -0.567415    29A     -0.523914    30A     -0.516247
      31A     -0.503791    32A     -0.498123    33A     -0.455369
      34A     -0.444820    35A     -0.344557    36A     -0.340494

  @DF-RHF Final Energy:  -457.34859456177497

   => Energetics <=

    Nuclear Repulsion Energy =            492.5828679197136921
    One-Electron Energy =               -1599.4984903999456947
    Two-Electron Energy =                 649.5670279184572564
    DFT Exchange-Correlation Energy =       0.0000000000000000
    Empirical Dispersion Energy =           0.0000000000000000
    PCM Polarization Energy =               0.0000000000000000
    EFP Energy =                            0.0000000000000000
    Total Energy =                       -457.3485945617748030
    Molecular point group: c1
  Basis Set: 6-31G*
  Basis Set:

  -Total Gradient:
     Atom            X                  Y                   Z
    ------   -----------------  -----------------  -----------------
       1        0.000000974976     0.000000129705    -0.000000423171
       2       -0.000006122972     0.000002649743    -0.000011404936
       3       -0.000014602900     0.000005178281     0.000001091467
       4        0.000016071021    -0.000000187077    -0.000007159304
       5        0.000000398442     0.000000565271    -0.000000882537
       6        0.000017055087    -0.000003074055     0.000005462377
       7        0.000004887368    -0.000000190923     0.000001397089
       8        0.000008790775     0.000007754843    -0.000009760493
       9        0.000000958359     0.000000598435    -0.000007885193
      10       -0.000022388133    -0.000012587324     0.000009695314
      11        0.000005374614    -0.000000482778     0.000007496423
      12       -0.000017710084     0.000616771282     0.000240515946
      13        0.000090204371    -0.001047195417    -0.000371784070
      14       -0.000024213882     0.000014824985    -0.000031035711
      15       -0.000231748439     0.001025626423     0.000603989189
      16        0.000100626716    -0.000624838095    -0.000379760371
      17        0.000067179631     0.000001996665    -0.000003233829
      18        0.000004265041     0.000012460037    -0.000046318187

  **** Optimization is complete! (in 6 steps) ****
    Final optimized geometry and variables:
    Molecular point group: c1

    Geometry (in Angstrom), charge = 0, multiplicity = 1:

    H           -4.028453168538    -0.462074667106     0.021163284831
    C           -2.962271394867    -0.327160579943    -0.020981847177
    C           -2.371284236210     0.152128732978    -1.180354887639
    C           -2.183441974624    -0.633075024991     1.083848287424
    H           -2.976255132347     0.388992181916    -2.036723526675
    C           -1.000310132394     0.325136726237    -1.233709530783
    H           -2.643198030946    -1.004580988580     1.981740039205
    C           -0.810847107932    -0.460469031534     1.032728724825
    H           -0.526271485573     0.694832390406    -2.122582499033
    C           -0.215294841724     0.019761592080    -0.127685880321
    H           -0.204746824509    -0.696171159596     1.885429765453
    C            1.257485589823     0.225144641999    -0.238415938157
    O            1.902048315999    -0.101538407459     0.872649001691
    O            1.793427215960     0.636841603501    -1.219068918471
    C            3.310491962441     0.054275736211     0.928107444120
    H            3.670209157908     0.600122165020     0.072752206104
    H            3.761855625820    -0.928140024666     0.954236372135
    H            3.539075763215     0.582430113002     1.842173964895

  Mulliken Charges: (a.u.)
   Center  Symbol    Alpha    Beta     Spin     Total
       1     H     0.39549  0.39549  0.00000  0.20903
       2     C     3.09001  3.09001  0.00000 -0.18001
       3     C     3.10702  3.10702  0.00000 -0.21404
       4     C     3.10708  3.10708  0.00000 -0.21417
       5     H     0.39549  0.39549  0.00000  0.20902
       6     C     3.08656  3.08656  0.00000 -0.17312
       7     H     0.39641  0.39641  0.00000  0.20719
       8     C     3.08691  3.08691  0.00000 -0.17381
       9     H     0.37593  0.37593  0.00000  0.24813
      10     C     3.07795  3.07795  0.00000 -0.15590
      11     H     0.38063  0.38063  0.00000  0.23874
      12     C     2.57937  2.57937  0.00000  0.84127
      13     O     4.31663  4.31663  0.00000 -0.63327
      14     O     4.29131  4.29131  0.00000 -0.58263
      15     C     3.09832  3.09832  0.00000 -0.19664
      16     H     0.39232  0.39232  0.00000  0.21537
      17     H     0.41192  0.41192  0.00000  0.17616
      18     H     0.41065  0.41065  0.00000  0.17869

   Total alpha = 36.00000, Total beta = 36.00000, Total charge =  0.00000
