  ==> Input File <==

--------------------------------------------------------------------------
set {
	reference rhf
	basis 6-31G*
}

set_num_threads( 1 )
memory 2 gb

molecule MOL {
0 1

H	 -1.814275	 0.898726	 -0.756585
N	 -1.852125	 0.165761	 -0.074816
C	 -0.563778	 -0.502042	 0.037919
H	 -2.556227	 -0.478602	 -0.381074
C	 0.575259	 0.508231	 -0.048326
H	 -0.482092	 -1.204004	 -0.786564
H	 -0.460411	 -1.085169	 0.956626
C	 1.954651	 -0.143624	 0.035137
H	 0.475158	 1.060484	 -0.977307
H	 0.469181	 1.234488	 0.755973
H	 2.103292	 -0.853109	 -0.774172
H	 2.742821	 0.599562	 -0.030094
H	 2.083613	 -0.679371	 0.971560

	symmetry c1
}
set optking {
	frozen_dihedral = ("
		6 3 5 9
	")
}

ee = energy('scf')
oeprop('DIPOLE', 'QUADRUPOLE', 'MULLIKEN_CHARGES')
f=open( 'psi4out.xyz', 'w' )
f.write( "13  " )
f.write( str(ee) + "\n" )
f.write( MOL.save_string_xyz() )
f.close()
--------------------------------------------------------------------------

    Molecular point group: c1

    Geometry (in Angstrom), charge = 0, multiplicity = 1:

       Center              X                  Y                   Z               Mass
    ------------   -----------------  -----------------  -----------------  -----------------
           H         -1.818324885962     0.896000898222    -0.726444152609     1.007825032070
           N         -1.856174885962     0.163035898222    -0.044675152609    14.003074004780
           C         -0.567827885962    -0.504767101778     0.068059847391    12.000000000000
           H         -2.560276885962    -0.481327101778    -0.350933152609     1.007825032070
           C          0.571209114038     0.505505898222    -0.018185152609    12.000000000000
           H         -0.486141885962    -1.206729101778    -0.756423152609     1.007825032070
           H         -0.464460885962    -1.087894101778     0.986766847391     1.007825032070
           C          1.950601114038    -0.146349101778     0.065277847391    12.000000000000
           H          0.471108114038     1.057758898222    -0.947166152609     1.007825032070
           H          0.465131114038     1.231762898222     0.786113847391     1.007825032070
           H          2.099242114038    -0.855834101778    -0.744031152609     1.007825032070
           H          2.738771114038     0.596836898222     0.000046847391     1.007825032070
           H          2.079563114038    -0.682096101778     1.001700847391     1.007825032070

  Charge       = 0
  Multiplicity = 1
  Basis Set: 6-31G*
  Basis Set:

    Orbital Energies (a.u.)
    -----------------------

    Doubly Occupied:

       1A    -15.530152     2A    -11.240312     3A    -11.217007
       4A    -11.211911     5A     -1.176946     6A     -1.037053
       7A     -0.899098     8A     -0.804882     9A     -0.649373
      10A     -0.639744    11A     -0.604872    12A     -0.560569
      13A     -0.543431    14A     -0.495808    15A     -0.478817
      16A     -0.470011    17A     -0.376633

  @DF-RHF Final Energy:  -173.27890145894506

   => Energetics <=

    Nuclear Repulsion Energy =            131.9450506143876680
    One-Electron Energy =                -494.5746340700691235
    Two-Electron Energy =                 189.3506819967364549
    DFT Exchange-Correlation Energy =       0.0000000000000000
    Empirical Dispersion Energy =           0.0000000000000000
    PCM Polarization Energy =               0.0000000000000000
    EFP Energy =                            0.0000000000000000
    Total Energy =                       -173.2789014589449721

  Mulliken Charges: (a.u.)
   Center  Symbol    Alpha    Beta     Spin     Total
       1     H     0.33424  0.33424  0.00000  0.33151
       2     N     3.92457  3.92457  0.00000 -0.84914
       3     C     3.05119  3.05119  0.00000 -0.10239
       4     H     0.33348  0.33348  0.00000  0.33304
       5     C     3.15982  3.15982  0.00000 -0.31963
       6     H     0.43502  0.43502  0.00000  0.12997
       7     H     0.42071  0.42071  0.00000  0.15858
       8     C     3.24290  3.24290  0.00000 -0.48580
       9     H     0.42627  0.42627  0.00000  0.14745
      10     H     0.41342  0.41342  0.00000  0.17316
      11     H     0.42136  0.42136  0.00000  0.15729
      12     H     0.41739  0.41739  0.00000  0.16521
      13     H     0.41962  0.41962  0.00000  0.16076

   Total alpha = 17.00000, Total beta = 17.00000, Total charge = -0.00000
