                              Psi4 1.0.54 Driver

  ==> Input File <==

--------------------------------------------------------------------------
set {
	reference rhf
	basis cc-pvtz
}

set_num_threads( 4 )
memory 2 gb

molecule MOL {
0 1

O	 1.682391	 0.526592	 0.962136
C	 1.121787	 0.124983	 0.000110
C	 -0.170912	 -0.649867	 -0.000147
O	 1.571135	 0.310557	 -1.230348
C	 -1.413045	 0.229353	 0.001137
H	 -0.152877	 -1.303435	 -0.866175
H	 -0.152278	 -1.305116	 0.864586
C	 -2.702562	 -0.586401	 0.000228
H	 -1.390744	 0.882001	 -0.864365
H	 -1.390549	 0.879837	 0.868264
C	 -3.953810	 0.284959	 -0.000782
H	 -2.717793	 -1.238567	 -0.869075
H	 -2.719108	 -1.238472	 0.869576
H	 -3.983727	 0.924403	 -0.876454
H	 -4.852989	 -0.320147	 -0.001515
H	 -3.985140	 0.924399	 0.874841
C	 2.781066	 1.025736	 -1.378351
H	 2.686146	 2.023241	 -0.975610
H	 2.973473	 1.069044	 -2.438054
H	 3.588855	 0.517225	 -0.873258

	symmetry c1
}
set optking {
	frozen_dihedral = ("
		1 2 3 6
	")
}

ee,wfn = optimize('scf', return_wfn=True)
oeprop( wfn, 'DIPOLE', 'QUADRUPOLE', 'MULLIKEN_CHARGES')
f=open( 'psi4out.xyz', 'w' )
f.write( "20  " )
f.write( str(ee) + "\n" )
f.write( MOL.save_string_xyz() )
f.close()
--------------------------------------------------------------------------

    Molecular point group: c1
  Charge       = 0
  Multiplicity = 1
  Basis Set: CC-PVTZ
  Basis Set:
  @DF-RHF Final Energy:  -384.08129100122380
    Total Energy =                       -384.0812910012235761
    Molecular point group: c1
  Basis Set: CC-PVTZ
  Basis Set:
  Basis Set: CC-PVTZ
  Basis Set:
  @DF-RHF Final Energy:  -384.08166163570587
    Total Energy =                       -384.0816616357053590
  Basis Set: CC-PVTZ
  Basis Set:
  Basis Set: CC-PVTZ
  Basis Set:
  @DF-RHF Final Energy:  -384.08201901171674
    Total Energy =                       -384.0820190117169659
  Basis Set: CC-PVTZ
  Basis Set:
  Basis Set: CC-PVTZ
  Basis Set:
  @DF-RHF Final Energy:  -384.08209850031994
    Total Energy =                       -384.0820985003205124
  Basis Set: CC-PVTZ
  Basis Set:
  Basis Set: CC-PVTZ
  Basis Set:
  @DF-RHF Final Energy:  -384.08210439487345
    Total Energy =                       -384.0821043948735678
  Basis Set: CC-PVTZ
  Basis Set:
  Charge       = 0
  Multiplicity = 1
  Basis Set: CC-PVTZ
  Basis Set:

    Orbital Energies (a.u.)
    -----------------------

    Doubly Occupied:

       1A    -20.597607     2A    -20.531744     3A    -11.363298
       4A    -11.278397     5A    -11.232016     6A    -11.227691
       7A    -11.222216     8A    -11.212344     9A     -1.471776
      10A     -1.364304    11A     -1.093847    12A     -1.026128
      13A     -0.968839    14A     -0.890145    15A     -0.807356
      16A     -0.775552    17A     -0.696578    18A     -0.683109
      19A     -0.676366    20A     -0.648830    21A     -0.599581
      22A     -0.593307    23A     -0.575186    24A     -0.555065
      25A     -0.535347    26A     -0.521824    27A     -0.511348
      28A     -0.483980    29A     -0.480106    30A     -0.476596
      31A     -0.457481    32A     -0.433133

  @DF-RHF Final Energy:  -384.08210536086011

   => Energetics <=

    Nuclear Repulsion Energy =            383.6835546839805033
    One-Electron Energy =               -1283.5491332943179259
    Two-Electron Energy =                 515.7834732494770833
    DFT Exchange-Correlation Energy =       0.0000000000000000
    Empirical Dispersion Energy =           0.0000000000000000
    PCM Polarization Energy =               0.0000000000000000
    EFP Energy =                            0.0000000000000000
    Total Energy =                       -384.0821053608603961
    Molecular point group: c1
  Basis Set: CC-PVTZ
  Basis Set:

  -Total Gradient:
     Atom            X                  Y                   Z
    ------   -----------------  -----------------  -----------------
       1       -0.000203301873     0.000261468239    -0.000081355064
       2        0.000225121730    -0.000358471668     0.000160874826
       3        0.000070916722    -0.000114626935     0.000170301017
       4        0.000007660693     0.000040454741    -0.000097600246
       5       -0.000008781969     0.000005472564    -0.000002258606
       6       -0.000126074633     0.000209539764    -0.000171244463
       7       -0.000000440255    -0.000014044691     0.000012364141
       8        0.000002775647    -0.000015140975     0.000003641198
       9        0.000008660230     0.000001851136    -0.000003902844
      10       -0.000001407783     0.000001585031     0.000005359525
      11        0.000014120655     0.000011972015     0.000003753786
      12        0.000006156025    -0.000009942006    -0.000005656832
      13       -0.000000833694    -0.000006991188     0.000006930392
      14       -0.000002598261     0.000006175378    -0.000006144286
      15        0.000000691133    -0.000006446551    -0.000000612770
      16       -0.000005953473     0.000007740452     0.000005337140
      17        0.000021843376    -0.000044358588     0.000002617911
      18       -0.000014811126     0.000016902281     0.000006929669
      19       -0.000005953362     0.000003579326    -0.000007010250
      20        0.000012210220     0.000003281674    -0.000002324245

  **** Optimization is complete! (in 6 steps) ****
    Final optimized geometry and variables:
    Molecular point group: c1

    Geometry (in Angstrom), charge = 0, multiplicity = 1:

    O            1.779535356276     0.318769656610     1.175424689816
    C            1.228684909756    -0.090549400423     0.210119999121
    C           -0.045759169373    -0.892382977475     0.230788138810
    O            1.654382667160     0.142487448809    -1.020368545186
    C           -1.272239477670     0.026913521925     0.197427133086
    H           -0.062057115852    -1.561624451723    -0.619212483280
    H           -0.045860271817    -1.477290865617     1.140285243934
    C           -2.584017486742    -0.750611801954     0.242319873627
    H           -1.241296313365     0.633199368717    -0.702690669546
    H           -1.224395067231     0.709806317458     1.039307180844
    C           -3.810128247253     0.155380019980     0.213487787146
    H           -2.623006006772    -1.438369790223    -0.597737702023
    H           -2.607397687753    -1.361791049759     1.139998858319
    H           -3.831742834619     0.756086571241    -0.689564152883
    H           -4.725090725032    -0.424357852539     0.246992067089
    H           -3.815941674446     0.832636255019     1.060735989333
    C            2.817904715080     0.932033585832    -1.164483565866
    H            2.667387159395     1.913431825613    -0.739655670360
    H            2.996550520301     1.008312309754    -2.224771611220
    H            3.659211565136     0.462387730578    -0.677006707496

  Mulliken Charges: (a.u.)
   Center  Symbol    Alpha    Beta     Spin     Total
       1     O     4.20436  4.20436  0.00000 -0.40872
       2     C     2.80639  2.80639  0.00000  0.38721
       3     C     3.07672  3.07672  0.00000 -0.15344
       4     O     4.14984  4.14984  0.00000 -0.29969
       5     C     3.09786  3.09786  0.00000 -0.19573
       6     H     0.44391  0.44391  0.00000  0.11219
       7     H     0.43982  0.43982  0.00000  0.12036
       8     C     3.08866  3.08866  0.00000 -0.17732
       9     H     0.44823  0.44823  0.00000  0.10354
      10     H     0.44361  0.44361  0.00000  0.11278
      11     C     3.14936  3.14936  0.00000 -0.29872
      12     H     0.45352  0.45352  0.00000  0.09296
      13     H     0.45240  0.45240  0.00000  0.09519
      14     H     0.45450  0.45450  0.00000  0.09100
      15     H     0.44742  0.44742  0.00000  0.10517
      16     H     0.45335  0.45335  0.00000  0.09329
      17     C     3.03700  3.03700  0.00000 -0.07400
      18     H     0.45447  0.45447  0.00000  0.09105
      19     H     0.44551  0.44551  0.00000  0.10898
      20     H     0.45305  0.45305  0.00000  0.09390

   Total alpha = 32.00000, Total beta = 32.00000, Total charge =  0.00000

*** Psi4 exiting successfully. Buy a developer a beer!
