  ==> Input File <==

--------------------------------------------------------------------------
set {
	reference rhf
	basis cc-pvtz
}

set_num_threads( 4 )
memory 2 gb

molecule MOL {
0 1

O	 0.395927	 1.296676	 -0.000076
C	 0.503051	 0.114301	 -0.000074
C	 -0.701422	 -0.805636	 -0.000109
C	 1.858118	 -0.556123	 0.000212
C	 -0.440355	 -2.168829	 0.620882
H	 -1.506627	 -0.291256	 0.518053
H	 -1.037042	 -0.906075	 -1.029046
H	 -0.129196	 -2.072010	 1.652402
H	 -1.338007	 -2.774694	 0.589201
H	 0.344548	 -2.692295	 0.091597
H	 1.961106	 -1.191101	 -0.872843
H	 2.636688	 0.191085	 -0.000109
H	 1.961070	 -1.190284	 0.873873

	symmetry c1
}
set optking {
	frozen_dihedral = ("
		6 3 2 1
	")
}

ee = optimize('scf')
oeprop('DIPOLE', 'QUADRUPOLE', 'MULLIKEN_CHARGES')
f=open( 'psi4out.xyz', 'w' )
f.write( "13  " )
f.write( str(ee) + "\n" )
f.write( MOL.save_string_xyz() )
f.close()
--------------------------------------------------------------------------

    Molecular point group: c1
  Charge       = 0
  Multiplicity = 1
  Basis Set: CC-PVTZ
  Basis Set:
  @DF-RHF Final Energy:  -231.07822659076447
    Total Energy =                       -231.0782265907644728
    Molecular point group: c1
  Basis Set: CC-PVTZ
  Basis Set:
  Basis Set: CC-PVTZ
  Basis Set:
  @DF-RHF Final Energy:  -231.07852496006967
    Total Energy =                       -231.0785249600697000
  Basis Set: CC-PVTZ
  Basis Set:
  Basis Set: CC-PVTZ
  Basis Set:
  @DF-RHF Final Energy:  -231.07960163550200
    Total Energy =                       -231.0796016355018878
  Basis Set: CC-PVTZ
  Basis Set:
  Basis Set: CC-PVTZ
  Basis Set:
  @DF-RHF Final Energy:  -231.07991425001939
    Total Energy =                       -231.0799142500192147
  Basis Set: CC-PVTZ
  Basis Set:
  Basis Set: CC-PVTZ
  Basis Set:
  @DF-RHF Final Energy:  -231.07994222209064
    Total Energy =                       -231.0799422220907786
  Basis Set: CC-PVTZ
  Basis Set:
  Basis Set: CC-PVTZ
  Basis Set:
  @DF-RHF Final Energy:  -231.07997369649212
    Total Energy =                       -231.0799736964920044
  Basis Set: CC-PVTZ
  Basis Set:
  Basis Set: CC-PVTZ
  Basis Set:
  @DF-RHF Final Energy:  -231.07997585613847
    Total Energy =                       -231.0799758561383612
  Basis Set: CC-PVTZ
  Basis Set:
  Charge       = 0
  Multiplicity = 1
  Basis Set: CC-PVTZ
  Basis Set:

    Orbital Energies (a.u.)
    -----------------------

    Doubly Occupied:

       1A    -20.536823     2A    -11.321328     3A    -11.232984
       4A    -11.227520     5A    -11.226992     6A     -1.397731
       7A     -1.068377     8A     -0.994931     9A     -0.891289
      10A     -0.732912    11A     -0.655132    12A     -0.646712
      13A     -0.625903    14A     -0.587169    15A     -0.558049
      16A     -0.546029    17A     -0.530686    18A     -0.511912
      19A     -0.480285    20A     -0.402024

  @DF-RHF Final Energy:  -231.07997616446787

   => Energetics <=

    Nuclear Repulsion Energy =            177.1250923896589882
    One-Electron Energy =                -664.0605588505659398
    Two-Electron Energy =                 255.8554902964391999
    DFT Exchange-Correlation Energy =       0.0000000000000000
    Empirical Dispersion Energy =           0.0000000000000000
    PCM Polarization Energy =               0.0000000000000000
    EFP Energy =                            0.0000000000000000
    Total Energy =                       -231.0799761644677233
    Molecular point group: c1
  Basis Set: CC-PVTZ
  Basis Set:

  -Total Gradient:
     Atom            X                  Y                   Z
    ------   -----------------  -----------------  -----------------
       1        0.000010499540     0.000006569035    -0.001647732175
       2        0.000076470274    -0.000132192455     0.002550846909
       3       -0.000535872926     0.000737256844    -0.002323058106
       4       -0.000004390210     0.000007203939     0.000051752209
       5       -0.000005253366     0.000018755293    -0.000003234578
       6        0.000470587221    -0.000635677080     0.001421040693
       7       -0.000009224115     0.000006264025    -0.000011021001
       8        0.000001943742    -0.000003793218    -0.000001407889
       9        0.000000235941     0.000000314264     0.000000294870
      10        0.000001094155     0.000008490059    -0.000004452470
      11       -0.000000222905    -0.000005641816    -0.000014130096
      12       -0.000003218959    -0.000002539867    -0.000006465466
      13       -0.000002648393    -0.000005009023    -0.000012432899

  **** Optimization is complete! (in 8 steps) ****
    Final optimized geometry and variables:
    Molecular point group: c1

    Geometry (in Angstrom), charge = 0, multiplicity = 1:

    O            0.045034338806     1.719358630923    -0.116065430814
    C            0.194500266191     0.540868814176    -0.109832293853
    C           -1.015728682313    -0.379322033289    -0.123965538015
    C            1.576675123031    -0.067854058788    -0.152126391305
    C           -0.834205277292    -1.767136320263     0.485339524689
    H           -1.811041544102     0.151708304873     0.381444147146
    H           -1.309380200633    -0.469910069501    -1.166561259194
    H           -0.539145619647    -1.707856814188     1.526874952674
    H           -1.768096592249    -2.313261962840     0.441663264282
    H           -0.089685876675    -2.351788350621    -0.040386113655
    H            1.663315047898    -0.751647556076    -0.989548709407
    H            2.309388889715     0.718531751473    -0.244786965731
    H            1.767683063144    -0.637838248517     0.749622333830

  Mulliken Charges: (a.u.)
   Center  Symbol    Alpha    Beta     Spin     Total
       1     O     4.17346  4.17346  0.00000 -0.34692
       2     C     2.85872  2.85872  0.00000  0.28256
       3     C     3.09669  3.09669  0.00000 -0.19337
       4     C     3.16094  3.16094  0.00000 -0.32189
       5     C     3.15794  3.15794  0.00000 -0.31589
       6     H     0.43683  0.43683  0.00000  0.12635
       7     H     0.44405  0.44405  0.00000  0.11190
       8     H     0.44907  0.44907  0.00000  0.10186
       9     H     0.44136  0.44136  0.00000  0.11729
      10     H     0.45247  0.45247  0.00000  0.09506
      11     H     0.44842  0.44842  0.00000  0.10315
      12     H     0.43211  0.43211  0.00000  0.13577
      13     H     0.44793  0.44793  0.00000  0.10413

   Total alpha = 20.00000, Total beta = 20.00000, Total charge = -0.00000
