  ==> Input File <==

--------------------------------------------------------------------------
set {
	reference rhf
	basis cc-pvtz
}

set_num_threads( 4 )
memory 2 gb

molecule MOL {
0 1

O	 -1.510770	 1.240811	 -0.054933
C	 -1.081510	 0.147522	 0.122720
C	 0.327029	 -0.064006	 0.641890
C	 -1.903028	 -1.084121	 -0.174656
C	 1.349460	 -0.017068	 -0.500215
H	 0.399029	 -1.014606	 1.159950
H	 0.538021	 0.726928	 1.350471
C	 2.695225	 0.542896	 -0.054009
H	 1.491490	 -1.014417	 -0.906370
H	 0.945526	 0.590385	 -1.301567
H	 3.394454	 0.575703	 -0.881072
H	 3.135030	 -0.066500	 0.728269
H	 2.589080	 1.550953	 0.331249
H	 -1.341891	 -1.779207	 -0.789259
H	 -2.820449	 -0.808163	 -0.671328
H	 -2.133314	 -1.593056	 0.755831

	symmetry c1
}
set optking {
	frozen_dihedral = ("
		9 5 3 2
	")
}

ee = optimize('scf')
oeprop('DIPOLE', 'QUADRUPOLE', 'MULLIKEN_CHARGES')
f=open( 'psi4out.xyz', 'w' )
f.write( "16  " )
f.write( str(ee) + "\n" )
f.write( MOL.save_string_xyz() )
f.close()
--------------------------------------------------------------------------

    Molecular point group: c1
  Charge       = 0
  Multiplicity = 1
  Basis Set: CC-PVTZ
  Basis Set:
  @DF-RHF Final Energy:  -270.12629090656412
    Total Energy =                       -270.1262909065641225
    Molecular point group: c1
  Basis Set: CC-PVTZ
  Basis Set:
  Basis Set: CC-PVTZ
  Basis Set:
  @DF-RHF Final Energy:  -270.12656995929228
    Total Energy =                       -270.1265699592923966
  Basis Set: CC-PVTZ
  Basis Set:
  Basis Set: CC-PVTZ
  Basis Set:
  @DF-RHF Final Energy:  -270.12518245834008
    Total Energy =                       -270.1251824583397365
  Basis Set: CC-PVTZ
  Basis Set:
  Basis Set: CC-PVTZ
  Basis Set:
  @DF-RHF Final Energy:  -270.12670970401325
    Total Energy =                       -270.1267097040131944
  Basis Set: CC-PVTZ
  Basis Set:
  @DF-RHF Final Energy:  -270.12676426067713
    Total Energy =                       -270.1267642606770778
  Basis Set: CC-PVTZ
  Basis Set:
  @DF-RHF Final Energy:  -270.12681206413447
    Total Energy =                       -270.1268120641344694
  Basis Set: CC-PVTZ
  Basis Set:
  Basis Set: CC-PVTZ
  Basis Set:
  @DF-RHF Final Energy:  -270.12683297074818
    Total Energy =                       -270.1268329707484099
  Basis Set: CC-PVTZ
  Basis Set:
  Basis Set: CC-PVTZ
  Basis Set:
  @DF-RHF Final Energy:  -270.12683725397437
    Total Energy =                       -270.1268372539744860
  Basis Set: CC-PVTZ
  Basis Set:
  Charge       = 0
  Multiplicity = 1
  Basis Set: CC-PVTZ
  Basis Set:

    Orbital Energies (a.u.)
    -----------------------

    Doubly Occupied:

       1A    -20.537555     2A    -11.319531     3A    -11.233737
       4A    -11.228201     5A    -11.226677     6A    -11.217672
       7A     -1.397466     8A     -1.083826     9A     -1.012953
      10A     -0.950248    11A     -0.831681    12A     -0.736645
      13A     -0.662304    14A     -0.647207    15A     -0.620921
      16A     -0.605978    17A     -0.577881    18A     -0.555137
      19A     -0.542100    20A     -0.517968    21A     -0.502365
      22A     -0.485404    23A     -0.476767    24A     -0.400500

  @DF-RHF Final Energy:  -270.12683778255587

   => Energetics <=

    Nuclear Repulsion Energy =            237.6663103184861257
    One-Electron Energy =                -836.8448514913956160
    Two-Electron Energy =                 329.0517033903535662
    DFT Exchange-Correlation Energy =       0.0000000000000000
    Empirical Dispersion Energy =           0.0000000000000000
    PCM Polarization Energy =               0.0000000000000000
    EFP Energy =                            0.0000000000000000
    Total Energy =                       -270.1268377825559242
    Molecular point group: c1
  Basis Set: CC-PVTZ
  Basis Set:

  -Total Gradient:
     Atom            X                  Y                   Z
    ------   -----------------  -----------------  -----------------
       1       -0.000012685379     0.000005727674    -0.000006763861
       2        0.000328849406     0.002828894141     0.000044850937
       3        0.000254537111    -0.003962006259     0.000627936584
       4        0.000015546692    -0.000001639725    -0.000003729203
       5       -0.003530547963     0.001477740812    -0.003155505889
       6        0.000007735371     0.000002759626    -0.000005081751
       7        0.000001382350    -0.000006164575    -0.000018333208
       8       -0.000004637731    -0.000003829324     0.000007271481
       9        0.002957075275    -0.000344318296     0.002528127652
      10        0.000000342883     0.000007099012    -0.000009971233
      11       -0.000007665469    -0.000003867867     0.000000041829
      12       -0.000001066539     0.000000431232    -0.000000173464
      13       -0.000004376970    -0.000002121860    -0.000004093736
      14       -0.000002003341    -0.000002859277    -0.000002659572
      15       -0.000001191435     0.000002839906    -0.000004601163
      16       -0.000001294268     0.000001314781     0.000002684597

  **** Optimization is complete! (in 9 steps) ****
    Final optimized geometry and variables:
    Molecular point group: c1

    Geometry (in Angstrom), charge = 0, multiplicity = 1:

    O           -1.618206119524     1.095627692030     0.207327749374
    C           -1.073728233944     0.040203784109     0.182957181835
    C            0.357121280834    -0.115296895499     0.655652758736
    C           -1.770986994421    -1.196286201182    -0.334831803298
    C            1.348728322170    -0.202324422701    -0.522101722668
    H            0.452134059606    -0.993232163903     1.285532785425
    H            0.577519082048     0.756437268573     1.256528999116
    C            2.719289057586     0.361765386758    -0.157316661610
    H            1.478368284059    -1.238207993689    -0.815620794547
    H            0.958060006797     0.335309114198    -1.378823586178
    H            3.414936417579     0.253122725217    -0.981130396686
    H            3.137533371547    -0.154109778899     0.700584374549
    H            2.653445849593     1.415253171153     0.088616407080
    H           -1.164658111225    -1.694381268855    -1.082700485266
    H           -2.729701339820    -0.932602255783    -0.754211114117
    H           -1.913363255284    -1.896335945363     0.482100305069

  Mulliken Charges: (a.u.)
   Center  Symbol    Alpha    Beta     Spin     Total
       1     O     4.17432  4.17432  0.00000 -0.34863
       2     C     2.86018  2.86018  0.00000  0.27965
       3     C     3.09758  3.09758  0.00000 -0.19516
       4     C     3.15464  3.15464  0.00000 -0.30929
       5     C     3.09437  3.09437  0.00000 -0.18875
       6     H     0.44791  0.44791  0.00000  0.10418
       7     H     0.44039  0.44039  0.00000  0.11922
       8     C     3.14656  3.14656  0.00000 -0.29311
       9     H     0.45195  0.45195  0.00000  0.09610
      10     H     0.44598  0.44598  0.00000  0.10804
      11     H     0.44747  0.44747  0.00000  0.10506
      12     H     0.45406  0.45406  0.00000  0.09189
      13     H     0.45008  0.45008  0.00000  0.09984
      14     H     0.44977  0.44977  0.00000  0.10047
      15     H     0.43554  0.43554  0.00000  0.12891
      16     H     0.44921  0.44921  0.00000  0.10158

   Total alpha = 24.00000, Total beta = 24.00000, Total charge = -0.00000
