  ==> Input File <==

--------------------------------------------------------------------------
set {
	reference rhf
	basis cc-pvtz
}

set_num_threads( 4 )
memory 2 gb

molecule MOL {
0 1

H	 0.725736	 0.067703	 -1.994834
C	 0.412930	 -0.484933	 -1.135022
C	 0.410334	 -1.865033	 -1.127909
C	 0.000000	 0.179985	 0.000046
H	 0.727835	 -2.400759	 -2.000666
C	 0.000003	 -2.552036	 -0.000009
N	 0.000000	 1.644631	 0.000076
C	 -0.412931	 -0.484980	 1.135086
H	 0.000000	 -3.625035	 -0.000032
C	 -0.410332	 -1.865080	 1.127918
O	 1.050559	 2.194174	 -0.000073
O	 -1.050559	 2.194174	 -0.000074
H	 -0.725730	 0.067622	 1.994923
H	 -0.727837	 -2.400841	 2.000652

	symmetry c1
}
set optking {
	frozen_dihedral = ("
		2 4 7 11
	")
}

ee = optimize('scf')
oeprop('DIPOLE', 'QUADRUPOLE', 'MULLIKEN_CHARGES')
f=open( 'psi4out.xyz', 'w' )
f.write( "14  " )
f.write( str(ee) + "\n" )
f.write( MOL.save_string_xyz() )
f.close()
--------------------------------------------------------------------------

    Molecular point group: c1
  Charge       = 0
  Multiplicity = 1
  Basis Set: CC-PVTZ
  Basis Set:
  @DF-RHF Final Energy:  -434.32124559988182
    Total Energy =                       -434.3212455998823316
    Molecular point group: c1
  Basis Set: CC-PVTZ
  Basis Set:
  Basis Set: CC-PVTZ
  Basis Set:
  @DF-RHF Final Energy:  -434.31491694245028
    Total Energy =                       -434.3149169424508500
  Basis Set: CC-PVTZ
  Basis Set:
  Basis Set: CC-PVTZ
  Basis Set:
  @DF-RHF Final Energy:  -434.32139036521949
    Total Energy =                       -434.3213903652186900
  Basis Set: CC-PVTZ
  Basis Set:
  Basis Set: CC-PVTZ
  Basis Set:
  @DF-RHF Final Energy:  -434.32164847337407
    Total Energy =                       -434.3216484733742391
  Basis Set: CC-PVTZ
  Basis Set:
  Charge       = 0
  Multiplicity = 1
  Basis Set: CC-PVTZ
  Basis Set:

    Orbital Energies (a.u.)
    -----------------------

    Doubly Occupied:

       1A    -20.597713     2A    -20.597653     3A    -15.848120
       4A    -11.307382     5A    -11.267602     6A    -11.267425
       7A    -11.260844     8A    -11.260347     9A    -11.258691
      10A     -1.644992    11A     -1.428206    12A     -1.206439
      13A     -1.096763    14A     -1.056802    15A     -0.959311
      16A     -0.874302    17A     -0.831172    18A     -0.786455
      19A     -0.740647    20A     -0.737985    21A     -0.717748
      22A     -0.652788    23A     -0.650668    24A     -0.625949
      25A     -0.561229    26A     -0.551789    27A     -0.533734
      28A     -0.499941    29A     -0.486592    30A     -0.458768
      31A     -0.372195    32A     -0.370506

  @DF-RHF Final Energy:  -434.32164922066994

   => Energetics <=

    Nuclear Repulsion Energy =            417.4887056225133506
    One-Electron Energy =               -1418.5992017648977708
    Two-Electron Energy =                 566.7888469217144802
    DFT Exchange-Correlation Energy =       0.0000000000000000
    Empirical Dispersion Energy =           0.0000000000000000
    PCM Polarization Energy =               0.0000000000000000
    EFP Energy =                            0.0000000000000000
    Total Energy =                       -434.3216492206698831
    Molecular point group: c1
  Basis Set: CC-PVTZ
  Basis Set:

  -Total Gradient:
     Atom            X                  Y                   Z
    ------   -----------------  -----------------  -----------------
       1       -0.000000834048    -0.000010473879     0.000025314389
       2       -0.003682505539    -0.000169003324    -0.001340612863
       3        0.000020390147     0.000053839587    -0.000050394253
       4        0.005298299152     0.000299857285     0.003507601411
       5       -0.000005953738    -0.000000028246    -0.000004231609
       6        0.000032260420     0.000005610614     0.000057655998
       7       -0.001787764919     0.000017535852    -0.006645338932
       8        0.000057419247     0.000005778616     0.000050357888
       9        0.000000258356     0.000002502566    -0.000005332280
      10       -0.000072109954    -0.000028687764    -0.000023028444
      11        0.000280729253    -0.000052523989     0.004466945652
      12       -0.000159930465    -0.000119384675    -0.000027884301
      13        0.000013360092    -0.000013243305    -0.000017714071
      14        0.000006382001     0.000008220674     0.000006661414

  **** Optimization is complete! (in 5 steps) ****
    Final optimized geometry and variables:
    Molecular point group: c1

    Geometry (in Angstrom), charge = 0, multiplicity = 1:

    H            0.751812212063     0.070601047024    -1.993009601537
    C            0.426677186089    -0.480058813447    -1.133038839851
    C            0.406591069924    -1.861336855574    -1.129490545245
    C            0.025885769810     0.178534135317     0.004427290119
    H            0.710762472028    -2.398441703442    -2.006313541670
    C           -0.002920212595    -2.546660762883    -0.001023102473
    N           -0.001824783687     1.642709993172    -0.007154644344
    C           -0.412576637458    -0.475488353080     1.130955315575
    H           -0.010557007183    -3.619274833184    -0.001541739864
    C           -0.408150379334    -1.856562766319     1.126561605341
    O            1.041697125186     2.203077767442    -0.034126301833
    O           -1.065258926692     2.162031398515     0.042620707518
    H           -0.745897082319     0.078541263309     1.985428871078
    H           -0.729596864870    -2.390455625739     1.999182237270

  Mulliken Charges: (a.u.)
   Center  Symbol    Alpha    Beta     Spin     Total
       1     H     0.41269  0.41269  0.00000  0.17461
       2     C     3.08685  3.08685  0.00000 -0.17370
       3     C     3.06518  3.06518  0.00000 -0.13035
       4     C     2.92586  2.92586  0.00000  0.14828
       5     H     0.41735  0.41735  0.00000  0.16530
       6     C     3.07595  3.07595  0.00000 -0.15190
       7     N     3.28883  3.28883  0.00000  0.42235
       8     C     3.08586  3.08586  0.00000 -0.17173
       9     H     0.41790  0.41790  0.00000  0.16420
      10     C     3.06486  3.06486  0.00000 -0.12971
      11     O     4.16451  4.16451  0.00000 -0.32901
      12     O     4.16418  4.16418  0.00000 -0.32835
      13     H     0.41266  0.41266  0.00000  0.17469
      14     H     0.41733  0.41733  0.00000  0.16533

   Total alpha = 32.00000, Total beta = 32.00000, Total charge = -0.00000
