  ==> Input File <==

--------------------------------------------------------------------------
set {
	reference rhf
	basis 6-31G*
}

set_num_threads( 4 )
memory 2 gb

molecule MOL {
0 1

H	 -1.748661	 -2.220942	 -0.005015
C	 -1.343207	 -1.225221	 -0.013879
N	 -0.055091	 -1.100174	 -0.261126
C	 -2.150779	 -0.125890	 0.222726
C	 0.449969	 0.122615	 -0.277109
H	 -3.200618	 -0.238980	 0.422496
N	 -1.660212	 1.097703	 0.209594
C	 -0.371804	 1.219904	 -0.038265
C	 1.928147	 0.267347	 -0.541394
H	 0.029131	 2.217482	 -0.051283
C	 2.219406	 1.081862	 -1.806205
H	 2.380825	 0.756197	 0.314743
H	 2.379142	 -0.716447	 -0.624626
H	 3.289542	 1.189860	 -1.951617
H	 1.784760	 2.071678	 -1.729878
H	 1.807753	 0.598079	 -2.686436

	symmetry c1
}
set optking {
	frozen_dihedral = ("
		12 9 5 3
	")
}

ee = optimize('scf')
oeprop('DIPOLE', 'QUADRUPOLE', 'MULLIKEN_CHARGES')
f=open( 'psi4out.xyz', 'w' )
f.write( "16  " )
f.write( str(ee) + "\n" )
f.write( MOL.save_string_xyz() )
f.close()
--------------------------------------------------------------------------

    Molecular point group: c1
  Charge       = 0
  Multiplicity = 1
  Basis Set: 6-31G*
  Basis Set:
  @DF-RHF Final Energy:  -340.75669836440710
    Total Energy =                       -340.7566983644070433
    Molecular point group: c1
  Basis Set: 6-31G*
  Basis Set:
  Basis Set: 6-31G*
  Basis Set:
  @DF-RHF Final Energy:  -340.75707464831464
    Total Energy =                       -340.7570746483145285
  Basis Set: 6-31G*
  Basis Set:
  Basis Set: 6-31G*
  Basis Set:
  @DF-RHF Final Energy:  -340.75714941044561
    Total Energy =                       -340.7571494104457770
  Basis Set: 6-31G*
  Basis Set:
  Basis Set: 6-31G*
  Basis Set:
  @DF-RHF Final Energy:  -340.75715999184672
    Total Energy =                       -340.7571599918468337
  Basis Set: 6-31G*
  Basis Set:
  Basis Set: 6-31G*
  Basis Set:
  @DF-RHF Final Energy:  -340.75716436793152
    Total Energy =                       -340.7571643679315798
  Basis Set: 6-31G*
  Basis Set:
  Charge       = 0
  Multiplicity = 1
  Basis Set: 6-31G*
  Basis Set:

    Orbital Energies (a.u.)
    -----------------------

    Doubly Occupied:

       1A    -15.586716     2A    -15.582088     3A    -11.281833
       4A    -11.274744     5A    -11.272964     6A    -11.271155
       7A    -11.232579     8A    -11.222914     9A     -1.313005
      10A     -1.221558    11A     -1.085091    12A     -1.015023
      13A     -0.904085    14A     -0.894902    15A     -0.830021
      16A     -0.714477    17A     -0.710626    18A     -0.656936
      19A     -0.614017    20A     -0.606217    21A     -0.580265
      22A     -0.562835    23A     -0.522504    24A     -0.510225
      25A     -0.503869    26A     -0.481331    27A     -0.429625
      28A     -0.394896    29A     -0.344767

  @DF-RHF Final Energy:  -340.75716529509856

   => Energetics <=

    Nuclear Repulsion Energy =            349.3926396689642502
    One-Electron Energy =               -1153.0570720713076298
    Two-Electron Energy =                 462.9072671072448202
    DFT Exchange-Correlation Energy =       0.0000000000000000
    Empirical Dispersion Energy =           0.0000000000000000
    PCM Polarization Energy =               0.0000000000000000
    EFP Energy =                            0.0000000000000000
    Total Energy =                       -340.7571652950986163
    Molecular point group: c1
  Basis Set: 6-31G*
  Basis Set:

  -Total Gradient:
     Atom            X                  Y                   Z
    ------   -----------------  -----------------  -----------------
       1       -0.000009434130     0.000007893739    -0.000039506384
       2       -0.000021626618    -0.000006506577     0.000089798747
       3        0.000238729443    -0.000062635158     0.001059689569
       4        0.000023376203    -0.000025262366     0.000023055908
       5       -0.000249796765    -0.000153403186    -0.001389352367
       6       -0.000006059035     0.000003592739    -0.000036336706
       7        0.000031878782     0.000020808100    -0.000000049270
       8       -0.000033594399     0.000006281756     0.000011121913
       9       -0.000194626335     0.001392866640    -0.000243508041
      10        0.000005939875    -0.000003306120    -0.000022355140
      11       -0.000003206656    -0.000064623895     0.000049510795
      12        0.000195427033    -0.001140940750     0.000539591630
      13        0.000022121743    -0.000016140876     0.000002206797
      14        0.000013034487     0.000020819909    -0.000021486304
      15       -0.000022297694    -0.000001987230     0.000002360238
      16        0.000010134064     0.000022543271    -0.000024741386

  **** Optimization is complete! (in 6 steps) ****
    Final optimized geometry and variables:
    Molecular point group: c1

    Geometry (in Angstrom), charge = 0, multiplicity = 1:

    H           -1.664123068508    -2.409396776767     0.314752149251
    C           -1.265610286614    -1.411011030948     0.313449624195
    N            0.027902225525    -1.278671289304     0.071758562777
    C           -2.075778339260    -0.321212772810     0.556548055476
    C            0.526759662301    -0.057874790085     0.064999037378
    H           -3.125876967076    -0.438004404084     0.752000797255
    N           -1.587243778243     0.908087483219     0.561632343231
    C           -0.303032183605     1.036592022225     0.319706746504
    C            2.004146944698     0.108879069171    -0.203952612515
    H            0.096044102865     2.035282986535     0.329927863025
    C            2.312208631937     0.894586093387    -1.483159476818
    H            2.471565390728     0.594338939626     0.649215033602
    H            2.431159751749    -0.883703908728    -0.271635390075
    H            3.384302091151     0.963664249600    -1.635175515178
    H            1.919446410040     1.905278826774    -1.440805586422
    H            1.880870794835     0.405347172211    -2.350219027798

  Mulliken Charges: (a.u.)
   Center  Symbol    Alpha    Beta     Spin     Total
       1     H     0.39382  0.39382  0.00000  0.21237
       2     C     2.99125  2.99125  0.00000  0.01750
       3     N     3.75661  3.75661  0.00000 -0.51323
       4     C     2.99834  2.99834  0.00000  0.00333
       5     C     2.87290  2.87290  0.00000  0.25420
       6     H     0.39421  0.39421  0.00000  0.21159
       7     N     3.73010  3.73010  0.00000 -0.46019
       8     C     2.99188  2.99188  0.00000  0.01624
       9     C     3.17704  3.17704  0.00000 -0.35408
      10     H     0.39512  0.39512  0.00000  0.20976
      11     C     3.24390  3.24390  0.00000 -0.48781
      12     H     0.41091  0.41091  0.00000  0.17819
      13     H     0.39801  0.39801  0.00000  0.20398
      14     H     0.41460  0.41460  0.00000  0.17079
      15     H     0.41900  0.41900  0.00000  0.16200
      16     H     0.41232  0.41232  0.00000  0.17535

   Total alpha = 29.00000, Total beta = 29.00000, Total charge = -0.00000
