                              Psi4 1.0.54 Driver

  ==> Input File <==

--------------------------------------------------------------------------
set {
	reference rhf
	basis cc-pvtz
}

set_num_threads( 4 )
memory 2 gb

molecule MOL {
0 1

H	 -2.467534	 2.216416	 -2.043731
C	 -3.133105	 2.001940	 -1.196441
C	 -2.653809	 0.914422	 -0.273689
O	 -4.143610	 2.602400	 -1.071397
C	 -1.216901	 1.136108	 0.207794
H	 -3.345028	 0.836794	 0.555482
H	 -2.702384	 -0.014587	 -0.837504
C	 -0.247837	 0.040196	 -0.230469
H	 -0.872882	 2.093195	 -0.169002
H	 -1.209325	 1.218376	 1.291938
C	 1.181757	 0.280428	 0.247371
H	 -0.259600	 -0.030819	 -1.314870
H	 -0.591284	 -0.923375	 0.136958
C	 2.151032	 -0.811012	 -0.202643
H	 1.515939	 1.247397	 -0.115449
H	 1.191514	 0.341223	 1.333422
C	 3.580021	 -0.656538	 0.320835
H	 2.170545	 -0.847575	 -1.289412
H	 1.766632	 -1.772905	 0.124928
C	 4.327657	 0.562694	 -0.213579
H	 4.138806	 -1.549270	 0.057813
H	 3.561991	 -0.620783	 1.406976
H	 4.355973	 0.557257	 -1.298551
H	 3.867136	 1.491650	 0.100501
H	 5.351524	 0.571613	 0.142204

	symmetry c1
}
set optking {
	frozen_dihedral = ("
		6 3 5 8
	")
}

ee,wfn = optimize('scf', return_wfn=True)
oeprop( wfn, 'DIPOLE', 'QUADRUPOLE', 'MULLIKEN_CHARGES')
f=open( 'psi4out.xyz', 'w' )
f.write( "25  " )
f.write( str(ee) + "\n" )
f.write( MOL.save_string_xyz() )
f.close()
--------------------------------------------------------------------------

    Molecular point group: c1
  Charge       = 0
  Multiplicity = 1
  Basis Set: CC-PVTZ
  Basis Set:
  @DF-RHF Final Energy:  -387.25582410577982
    Total Energy =                       -387.2558241057797659
    Molecular point group: c1
  Basis Set: CC-PVTZ
  Basis Set:
  Basis Set: CC-PVTZ
  Basis Set:
  @DF-RHF Final Energy:  -387.25557343444274
    Total Energy =                       -387.2555734344432494
  Basis Set: CC-PVTZ
  Basis Set:
  Basis Set: CC-PVTZ
  Basis Set:
  @DF-RHF Final Energy:  -387.25310061044570
    Total Energy =                       -387.2531006104455855
  Basis Set: CC-PVTZ
  Basis Set:
  Basis Set: CC-PVTZ
  Basis Set:
  @DF-RHF Final Energy:  -387.25611689784449
    Total Energy =                       -387.2561168978440946
  Basis Set: CC-PVTZ
  Basis Set:
  Basis Set: CC-PVTZ
  Basis Set:
  @DF-RHF Final Energy:  -387.25613366892833
    Total Energy =                       -387.2561336689283280
  Basis Set: CC-PVTZ
  Basis Set:
  Basis Set: CC-PVTZ
  Basis Set:
  @DF-RHF Final Energy:  -387.25614017640407
    Total Energy =                       -387.2561401764044149
  Basis Set: CC-PVTZ
  Basis Set:
  Basis Set: CC-PVTZ
  Basis Set:
  @DF-RHF Final Energy:  -387.25614222090621
    Total Energy =                       -387.2561422209062130
  Basis Set: CC-PVTZ
  Basis Set:
  Charge       = 0
  Multiplicity = 1
  Basis Set: CC-PVTZ
  Basis Set:

    Orbital Energies (a.u.)
    -----------------------

    Doubly Occupied:

       1A    -20.550994     2A    -11.321119     3A    -11.233715
       4A    -11.233133     5A    -11.225337     6A    -11.219534
       7A    -11.218303     8A    -11.217622     9A    -11.210363
      10A     -1.406316    11A     -1.105864    12A     -1.071280
      13A     -1.016221    14A     -0.946173    15A     -0.877022
      16A     -0.817903    17A     -0.794192    18A     -0.783738
      19A     -0.672731    20A     -0.664114    21A     -0.636421
      22A     -0.622656    23A     -0.603324    24A     -0.598514
      25A     -0.574361    26A     -0.557453    27A     -0.541022
      28A     -0.522977    29A     -0.510512    30A     -0.502064
      31A     -0.486551    32A     -0.478984    33A     -0.467351
      34A     -0.461540    35A     -0.449932    36A     -0.410607

  @DF-RHF Final Energy:  -387.25614231298965

   => Energetics <=

    Nuclear Repulsion Energy =            433.4371321530581440
    One-Electron Energy =               -1383.3666609620017880
    Two-Electron Energy =                 562.6733864959543325
    DFT Exchange-Correlation Energy =       0.0000000000000000
    Empirical Dispersion Energy =           0.0000000000000000
    PCM Polarization Energy =               0.0000000000000000
    EFP Energy =                            0.0000000000000000
    Total Energy =                       -387.2561423129892546
    Molecular point group: c1
  Basis Set: CC-PVTZ
  Basis Set:

  -Total Gradient:
     Atom            X                  Y                   Z
    ------   -----------------  -----------------  -----------------
       1       -0.000003870641     0.000000804054     0.000001229852
       2       -0.000002839536    -0.000012861524     0.000014996026
       3        0.000020639180    -0.000203340971    -0.000039713440
       4        0.000003262695     0.000015642358    -0.000006426547
       5       -0.000029324273    -0.000025058434     0.000136275644
       6       -0.000023255259     0.000170110945    -0.000008692841
       7        0.000007310125    -0.000002864696     0.000000384436
       8        0.000029913874     0.000060844073    -0.000105875120
       9        0.000004371736     0.000005285099     0.000005850810
      10       -0.000001717113     0.000000594924    -0.000002602589
      11       -0.000005442371    -0.000006779184     0.000008163022
      12       -0.000001377326    -0.000002157148    -0.000003018663
      13        0.000007460517    -0.000000914308     0.000001952380
      14        0.000000249705    -0.000000923244    -0.000006205761
      15       -0.000012248369    -0.000005507993    -0.000002241976
      16        0.000003293710     0.000002158617     0.000003787808
      17       -0.000003991561     0.000007592189     0.000008268903
      18       -0.000001226867     0.000002377138    -0.000002041999
      19        0.000001439955    -0.000001225685    -0.000002904178
      20        0.000004181390    -0.000002279995    -0.000002208326
      21       -0.000002137773     0.000000228157     0.000001102487
      22        0.000000428785     0.000001544257     0.000002132479
      23       -0.000000508207     0.000001785851    -0.000001732895
      24        0.000005170610    -0.000003849613     0.000001333345
      25        0.000000217013    -0.000001204873    -0.000001812858

  **** Optimization is complete! (in 8 steps) ****
    Final optimized geometry and variables:
    Molecular point group: c1

    Geometry (in Angstrom), charge = 0, multiplicity = 1:

    H           -2.434697229112     1.570546043687    -1.776197309977
    C           -3.119351896989     1.331313211953    -0.951215454199
    C           -2.644934331690     0.243087243836    -0.027221096406
    O           -4.141864780240     1.913991409584    -0.843006608665
    C           -1.196104833585     0.468159787919     0.457359667478
    H           -3.344011165397     0.174731598295     0.794114538378
    H           -2.707896479542    -0.687362632899    -0.585978284632
    C           -0.226045177193    -0.632359519682     0.034028492655
    H           -0.827723975624     1.421946086924     0.088839106552
    H           -1.195984517215     0.551911082006     1.537601504795
    C            1.199001758109    -0.404198410360     0.528924972329
    H           -0.223105140033    -0.709007089277    -1.050943299356
    H           -0.589479929247    -1.587626636546     0.404448748171
    C            2.162672047625    -1.508961237383     0.099566014442
    H            1.548680020872     0.556683610756     0.164624593285
    H            1.193865308872    -0.336091586896     1.614415104349
    C            3.585318971003    -1.367281468144     0.643507872094
    H            2.198435113700    -1.552132562976    -0.986678340543
    H            1.762848551833    -2.464718354209     0.427108121840
    C            4.354182194907    -0.159480445353     0.113365657361
    H            4.137974982118    -2.267704863405     0.394021088389
    H            3.551189709587    -1.324893297415     1.728952247349
    H            4.397714370370    -0.170964097882    -0.971070555753
    H            3.900158222768     0.776289088340     0.416304350251
    H            5.372942733345    -0.160500723516     0.483468808089

  Mulliken Charges: (a.u.)
   Center  Symbol    Alpha    Beta     Spin     Total
       1     H     0.46690  0.46690  0.00000  0.06621
       2     C     2.90277  2.90277  0.00000  0.19445
       3     C     3.08691  3.08691  0.00000 -0.17382
       4     O     4.16455  4.16455  0.00000 -0.32910
       5     C     3.10995  3.10995  0.00000 -0.21990
       6     H     0.43772  0.43772  0.00000  0.12456
       7     H     0.44856  0.44856  0.00000  0.10287
       8     C     3.09064  3.09064  0.00000 -0.18129
       9     H     0.45091  0.45091  0.00000  0.09817
      10     H     0.44154  0.44154  0.00000  0.11691
      11     C     3.09409  3.09409  0.00000 -0.18819
      12     H     0.45336  0.45336  0.00000  0.09329
      13     H     0.45027  0.45027  0.00000  0.09945
      14     C     3.09547  3.09547  0.00000 -0.19093
      15     H     0.45107  0.45107  0.00000  0.09787
      16     H     0.45313  0.45313  0.00000  0.09373
      17     C     3.09061  3.09061  0.00000 -0.18121
      18     H     0.45363  0.45363  0.00000  0.09274
      19     H     0.44908  0.44908  0.00000  0.10183
      20     C     3.15265  3.15265  0.00000 -0.30531
      21     H     0.44777  0.44777  0.00000  0.10445
      22     H     0.45427  0.45427  0.00000  0.09147
      23     H     0.45470  0.45470  0.00000  0.09059
      24     H     0.45385  0.45385  0.00000  0.09229
      25     H     0.44559  0.44559  0.00000  0.10883

   Total alpha = 36.00000, Total beta = 36.00000, Total charge = -0.00000

*** Psi4 exiting successfully. Buy a developer a beer!
