  ==> Input File <==

--------------------------------------------------------------------------
set {
	reference rhf
	basis cc-pvtz
}

set_num_threads( 4 )
memory 2 gb

molecule MOL {
0 1

H	 -2.816458	 -0.841657	 -0.064679
N	 -1.878861	 -0.711874	 0.250184
C	 -1.341419	 0.551458	 -0.220231
H	 -1.333674	 -1.468530	 -0.105118
C	 -1.753918	 0.802445	 -1.652536
H	 -1.651497	 1.405104	 0.381172
H	 -0.258663	 0.503525	 -0.182909
O	 -3.140388	 0.954081	 -1.701693
H	 -1.265838	 1.701804	 -2.025503
H	 -1.445619	 -0.035354	 -2.273804
C	 -3.656477	 1.123172	 -2.980083
H	 -4.727964	 1.232420	 -2.894263
H	 -3.251982	 2.013062	 -3.457759
H	 -3.441111	 0.265327	 -3.612762

	symmetry c1
}
set optking {
	frozen_dihedral = ("
		6 3 2 4
	")
}

ee = optimize('scf')
oeprop('DIPOLE', 'QUADRUPOLE', 'MULLIKEN_CHARGES')
f=open( 'psi4out.xyz', 'w' )
f.write( "14  " )
f.write( str(ee) + "\n" )
f.write( MOL.save_string_xyz() )
f.close()
--------------------------------------------------------------------------

    Molecular point group: c1
  Charge       = 0
  Multiplicity = 1
  Basis Set: CC-PVTZ
  Basis Set:
  @DF-RHF Final Energy:  -248.22319502413663
    Total Energy =                       -248.2231950241368850
    Molecular point group: c1
  Basis Set: CC-PVTZ
  Basis Set:
  Basis Set: CC-PVTZ
  Basis Set:
  @DF-RHF Final Energy:  -248.22502832133858
    Total Energy =                       -248.2250283213385273
  Basis Set: CC-PVTZ
  Basis Set:
  Basis Set: CC-PVTZ
  Basis Set:
  @DF-RHF Final Energy:  -248.22524559785822
    Total Energy =                       -248.2252455978581338
  Basis Set: CC-PVTZ
  Basis Set:
  Charge       = 0
  Multiplicity = 1
  Basis Set: CC-PVTZ
  Basis Set:

    Orbital Energies (a.u.)
    -----------------------

    Doubly Occupied:

       1A    -20.553910     2A    -15.522659     3A    -11.266717
       4A    -11.266633     5A    -11.240164     6A     -1.387926
       7A     -1.175544     8A     -1.000937     9A     -0.909929
      10A     -0.823068    11A     -0.686614    12A     -0.675282
      13A     -0.648053    14A     -0.633846    15A     -0.587205
      16A     -0.554020    17A     -0.519450    18A     -0.505795
      19A     -0.482445    20A     -0.423281    21A     -0.380521

  @DF-RHF Final Energy:  -248.22525004743517

   => Energetics <=

    Nuclear Repulsion Energy =            194.3377473850499655
    One-Electron Energy =                -722.6380034292683376
    Two-Electron Energy =                 280.0750059967836023
    DFT Exchange-Correlation Energy =       0.0000000000000000
    Empirical Dispersion Energy =           0.0000000000000000
    PCM Polarization Energy =               0.0000000000000000
    EFP Energy =                            0.0000000000000000
    Total Energy =                       -248.2252500474347698
    Molecular point group: c1
  Basis Set: CC-PVTZ
  Basis Set:

  -Total Gradient:
     Atom            X                  Y                   Z
    ------   -----------------  -----------------  -----------------
       1        0.000034395673     0.000075513411    -0.000063897940
       2       -0.001391157605    -0.000403817609    -0.001779096387
       3       -0.001776120875     0.000554918219    -0.001045946594
       4        0.001490276400     0.000181386476     0.001747377859
       5        0.000110398934    -0.000034973789     0.000059952776
       6        0.001737679995    -0.000286276252     0.001145783490
       7       -0.000039890422    -0.000084103760     0.000054492588
       8        0.000043577897    -0.000023233402    -0.000032693428
       9       -0.000067702309    -0.000027767844     0.000012647858
      10       -0.000115508494     0.000030134946    -0.000032922815
      11        0.000001012842     0.000002163256    -0.000047842138
      12       -0.000004992243     0.000007893687    -0.000004783031
      13       -0.000011981737     0.000000586045    -0.000008692586
      14       -0.000009988053     0.000007576618    -0.000004379652

  **** Optimization is complete! (in 4 steps) ****
    Final optimized geometry and variables:
    Molecular point group: c1

    Geometry (in Angstrom), charge = 0, multiplicity = 1:

    H           -0.454734478563    -1.340670931756     1.388127156717
    N            0.512003997991    -1.227745893236     1.604721442350
    C            1.029604493876     0.001773531640     1.039192062244
    H            1.009402066208    -2.024409311790     1.270036497435
    C            0.611540755777     0.284457120118    -0.391199946772
    H            0.725580671083     0.830913197820     1.667930741615
    H            2.113005060187    -0.030508131943     1.079727240460
    O           -0.777577934588     0.387219155422    -0.445016543856
    H            1.071244357859     1.210502306942    -0.735836405298
    H            0.951042245493    -0.517712300679    -1.047284849970
    C           -1.293244024856     0.616497863802    -1.714266207337
    H           -2.368648852605     0.676481580940    -1.630057354622
    H           -0.922745092016     1.550097756097    -2.131678049499
    H           -1.039783050707    -0.190045461720    -2.398848346714

  Mulliken Charges: (a.u.)
   Center  Symbol    Alpha    Beta     Spin     Total
       1     H     0.42211  0.42211  0.00000  0.15578
       2     N     3.69400  3.69400  0.00000 -0.38800
       3     C     3.02563  3.02563  0.00000 -0.05126
       4     H     0.43200  0.43200  0.00000  0.13599
       5     C     2.96938  2.96938  0.00000  0.06125
       6     H     0.45429  0.45429  0.00000  0.09142
       7     H     0.45653  0.45653  0.00000  0.08693
       8     O     4.17667  4.17667  0.00000 -0.35335
       9     H     0.47127  0.47127  0.00000  0.05745
      10     H     0.47813  0.47813  0.00000  0.04374
      11     C     3.03152  3.03152  0.00000 -0.06304
      12     H     0.44702  0.44702  0.00000  0.10595
      13     H     0.47017  0.47017  0.00000  0.05967
      14     H     0.47127  0.47127  0.00000  0.05746

   Total alpha = 21.00000, Total beta = 21.00000, Total charge =  0.00000
