                              Psi4 1.0.54 Driver

  ==> Input File <==

--------------------------------------------------------------------------
set {
	reference rhf
	basis cc-pvtz
}

set_num_threads( 4 )
memory 2 gb

molecule MOL {
0 1

H	 1.166964	 -1.062386	 0.758429
O	 1.324748	 -0.612467	 -0.052206
C	 0.706474	 0.636793	 -0.025501
C	 1.017297	 1.463012	 1.190387
H	 -0.360455	 0.451922	 -0.067793
H	 0.956570	 1.212366	 -0.914808
C	 1.712516	 1.065830	 2.233087
H	 0.615800	 2.462795	 1.168396
H	 2.113946	 0.072646	 2.299497
H	 1.890971	 1.722562	 3.063098

	symmetry c1
}
set optking {
	frozen_dihedral = ("
		5 3 2 1
	")
}

ee,wfn = optimize('scf', return_wfn=True)
oeprop( wfn, 'DIPOLE', 'QUADRUPOLE', 'MULLIKEN_CHARGES')
f=open( 'psi4out.xyz', 'w' )
f.write( "10  " )
f.write( str(ee) + "\n" )
f.write( MOL.save_string_xyz() )
f.close()
--------------------------------------------------------------------------

    Molecular point group: c1
  Charge       = 0
  Multiplicity = 1
  Basis Set: CC-PVTZ
  Basis Set:
  @DF-RHF Final Energy:  -191.99597568133692
    Total Energy =                       -191.9959756813369154
    Molecular point group: c1
  Basis Set: CC-PVTZ
  Basis Set:
  Basis Set: CC-PVTZ
  Basis Set:
  @DF-RHF Final Energy:  -191.98644542004376
    Total Energy =                       -191.9864454200438786
  Basis Set: CC-PVTZ
  Basis Set:
  Basis Set: CC-PVTZ
  Basis Set:
  @DF-RHF Final Energy:  -191.99805423463329
    Total Energy =                       -191.9980542346332300
  Basis Set: CC-PVTZ
  Basis Set:
  Basis Set: CC-PVTZ
  Basis Set:
  @DF-RHF Final Energy:  -191.99394299770265
    Total Energy =                       -191.9939429977027316
  Basis Set: CC-PVTZ
  Basis Set:
  Basis Set: CC-PVTZ
  Basis Set:
  @DF-RHF Final Energy:  -191.99856804868000
    Total Energy =                       -191.9985680486800561
  Basis Set: CC-PVTZ
  Basis Set:
  Basis Set: CC-PVTZ
  Basis Set:
  @DF-RHF Final Energy:  -191.99865174784480
    Total Energy =                       -191.9986517478447183
  Basis Set: CC-PVTZ
  Basis Set:
  Basis Set: CC-PVTZ
  Basis Set:
  @DF-RHF Final Energy:  -191.99865620057128
    Total Energy =                       -191.9986562005714461
  Basis Set: CC-PVTZ
  Basis Set:
  Charge       = 0
  Multiplicity = 1
  Basis Set: CC-PVTZ
  Basis Set:

    Orbital Energies (a.u.)
    -----------------------

    Doubly Occupied:

       1A    -20.554057     2A    -11.278092     3A    -11.232850
       4A    -11.219049     5A     -1.374769     6A     -1.063865
       7A     -0.933561     8A     -0.773973     9A     -0.690086
      10A     -0.666696    11A     -0.622896    12A     -0.574050
      13A     -0.545937    14A     -0.493059    15A     -0.454391
      16A     -0.370815

  @DF-RHF Final Energy:  -191.99865670371150

   => Energetics <=

    Nuclear Repulsion Energy =            119.5831803430981921
    One-Electron Energy =                -497.4673849496167009
    Two-Electron Energy =                 185.8855479028068771
    DFT Exchange-Correlation Energy =       0.0000000000000000
    Empirical Dispersion Energy =           0.0000000000000000
    PCM Polarization Energy =               0.0000000000000000
    EFP Energy =                            0.0000000000000000
    Total Energy =                       -191.9986567037116174
    Molecular point group: c1
  Basis Set: CC-PVTZ
  Basis Set:

  -Total Gradient:
     Atom            X                  Y                   Z
    ------   -----------------  -----------------  -----------------
       1        0.000774471257     0.000125699908     0.000965972519
       2       -0.000893760298     0.000095293975    -0.001416928106
       3       -0.000273961449    -0.000692453697     0.001311000265
       4       -0.000024315953    -0.000042545645     0.000028394068
       5        0.000406787970     0.000502431609    -0.000870950867
       6        0.000006521226    -0.000013621252    -0.000013508800
       7       -0.000047253235    -0.000023591448    -0.000031847979
       8        0.000000635050     0.000028123942     0.000004269680
       9        0.000028214676     0.000000217592     0.000010398468
      10        0.000022660755     0.000020445014     0.000013200751

  **** Optimization is complete! (in 8 steps) ****
    Final optimized geometry and variables:
    Molecular point group: c1

    Geometry (in Angstrom), charge = 0, multiplicity = 1:

    H           -0.026417055603    -1.482182846688    -0.799384021920
    O            0.372340424495    -0.736307730426    -1.210932827391
    C           -0.277241614077     0.427583830268    -0.803680485761
    C           -0.363406646326     0.614727802669     0.684123308497
    H           -1.278430707861     0.479701282586    -1.227608906923
    H            0.278089175616     1.253381751526    -1.233413511140
    C            0.230243919078    -0.129534081998     1.590995786317
    H           -0.972687277320     1.446433627167     0.996958447709
    H            0.862969607993    -0.954534552040     1.323456040068
    H            0.113777702851     0.074652819315     2.638207238623

  Mulliken Charges: (a.u.)
   Center  Symbol    Alpha    Beta     Spin     Total
       1     H     0.39093  0.39093  0.00000  0.21814
       2     O     4.19986  4.19986  0.00000 -0.39972
       3     C     2.94820  2.94820  0.00000  0.10361
       4     C     3.08432  3.08432  0.00000 -0.16865
       5     H     0.46898  0.46898  0.00000  0.06205
       6     H     0.45435  0.45435  0.00000  0.09129
       7     C     3.17663  3.17663  0.00000 -0.35326
       8     H     0.42290  0.42290  0.00000  0.15421
       9     H     0.42589  0.42589  0.00000  0.14822
      10     H     0.42795  0.42795  0.00000  0.14411

   Total alpha = 16.00000, Total beta = 16.00000, Total charge = -0.00000

*** Psi4 exiting successfully. Buy a developer a beer!
