  ==> Input File <==

--------------------------------------------------------------------------
set {
	reference rhf
	basis 6-31G*
}

set_num_threads( 1 )
memory 2 gb

molecule MOL {
0 1

H	 -0.784465	 4.447774	 0.616431
O	 -0.101902	 3.844857	 0.358548
C	 -0.546125	 2.524403	 0.536481
C	 0.571087	 1.586992	 0.113581
H	 -0.808631	 2.345627	 1.578324
H	 -1.437031	 2.336070	 -0.061145
C	 0.198102	 0.111031	 0.262842
H	 1.451011	 1.812978	 0.709729
H	 0.828869	 1.806198	 -0.918880
C	 1.331804	 -0.827780	 -0.158768
H	 -0.079833	 -0.084653	 1.295621
H	 -0.684448	 -0.103565	 -0.338466
C	 2.723619	 -0.410569	 0.329459
H	 1.342964	 -0.912588	 -1.244120
H	 1.116806	 -1.824343	 0.220779
C	 3.243875	 0.895854	 -0.272975
H	 3.424222	 -1.207124	 0.091250
H	 2.714788	 -0.329854	 1.414619
H	 3.251977	 0.848779	 -1.358681
H	 2.637085	 1.747371	 0.016682
H	 4.259473	 1.094070	 0.055697

	symmetry c1
}
set optking {
	frozen_dihedral = ("
		2 3 4 8,
		8 4 7 10,
		16 13 10 14,
		1 2 3 5
	")
}

ee = energy('scf')
oeprop('DIPOLE', 'QUADRUPOLE', 'MULLIKEN_CHARGES')
f=open( 'psi4out.xyz', 'w' )
f.write( "21  " )
f.write( str(ee) + "\n" )
f.write( MOL.save_string_xyz() )
f.close()
--------------------------------------------------------------------------

    Molecular point group: c1

    Geometry (in Angstrom), charge = 0, multiplicity = 1:

       Center              X                  Y                   Z               Mass
    ------------   -----------------  -----------------  -----------------  -----------------
           H         -1.822676837751     3.271255522249     0.444484711462     1.007825032070
           O         -1.140113837751     2.668338522249     0.186601711462    15.994914619560
           C         -1.584336837751     1.347884522249     0.364534711462    12.000000000000
           C         -0.467124837751     0.410473522249    -0.058365288538    12.000000000000
           H         -1.846842837751     1.169108522249     1.406377711462     1.007825032070
           H         -2.475242837751     1.159551522249    -0.233091288538     1.007825032070
           C         -0.840109837751    -1.065487477751     0.090895711462    12.000000000000
           H          0.412799162249     0.636459522249     0.537782711462     1.007825032070
           H         -0.209342837751     0.629679522249    -1.090826288538     1.007825032070
           C          0.293592162249    -2.004298477751    -0.330714288538    12.000000000000
           H         -1.118044837751    -1.261171477751     1.123674711462     1.007825032070
           H         -1.722659837751    -1.280083477751    -0.510412288538     1.007825032070
           C          1.685407162249    -1.587087477751     0.157512711462    12.000000000000
           H          0.304752162249    -2.089106477751    -1.416066288538     1.007825032070
           H          0.078594162249    -3.000861477751     0.048832711462     1.007825032070
           C          2.205663162249    -0.280664477751    -0.444921288538    12.000000000000
           H          2.386010162249    -2.383642477751    -0.080696288538     1.007825032070
           H          1.676576162249    -1.506372477751     1.242672711462     1.007825032070
           H          2.213765162249    -0.327739477751    -1.530627288538     1.007825032070
           H          1.598873162249     0.570852522249    -0.155264288538     1.007825032070
           H          3.221261162249    -0.082448477751    -0.116249288538     1.007825032070

  Charge       = 0
  Multiplicity = 1
  Basis Set: 6-31G*
  Basis Set:

    Orbital Energies (a.u.)
    -----------------------

    Doubly Occupied:

       1A    -20.551976     2A    -11.265399     3A    -11.216582
       4A    -11.213586     5A    -11.212886     6A    -11.207437
       7A    -11.194653     8A     -1.358709     9A     -1.092699
      10A     -1.022625    11A     -0.961690    12A     -0.879231
      13A     -0.806627    14A     -0.777399    15A     -0.690800
      16A     -0.667775    17A     -0.627786    18A     -0.611096
      19A     -0.582464    20A     -0.556905    21A     -0.544684
      22A     -0.535416    23A     -0.496977    24A     -0.492339
      25A     -0.477391    26A     -0.457206    27A     -0.449724
      28A     -0.434977    29A     -0.422226

  @DF-RHF Final Energy:  -310.18008732286069

   => Energetics <=

    Nuclear Repulsion Energy =            327.4782175616184077
    One-Electron Energy =               -1069.6983550092950281
    Two-Electron Energy =                 432.0400501248159344
    DFT Exchange-Correlation Energy =       0.0000000000000000
    Empirical Dispersion Energy =           0.0000000000000000
    PCM Polarization Energy =               0.0000000000000000
    EFP Energy =                            0.0000000000000000
    Total Energy =                       -310.1800873228606861

  Mulliken Charges: (a.u.)
   Center  Symbol    Alpha    Beta     Spin     Total
       1     H     0.28096  0.28096  0.00000  0.43807
       2     O     4.37276  4.37276  0.00000 -0.74551
       3     C     2.98604  2.98604  0.00000  0.02792
       4     C     3.17490  3.17490  0.00000 -0.34980
       5     H     0.43363  0.43363  0.00000  0.13274
       6     H     0.43377  0.43377  0.00000  0.13246
       7     C     3.15670  3.15670  0.00000 -0.31340
       8     H     0.40848  0.40848  0.00000  0.18304
       9     H     0.41143  0.41143  0.00000  0.17713
      10     C     3.15273  3.15273  0.00000 -0.30546
      11     H     0.42307  0.42307  0.00000  0.15385
      12     H     0.42137  0.42137  0.00000  0.15727
      13     C     3.15895  3.15895  0.00000 -0.31789
      14     H     0.42281  0.42281  0.00000  0.15438
      15     H     0.42048  0.42048  0.00000  0.15904
      16     C     3.24430  3.24430  0.00000 -0.48860
      17     H     0.41895  0.41895  0.00000  0.16211
      18     H     0.42392  0.42392  0.00000  0.15217
      19     H     0.42322  0.42322  0.00000  0.15357
      20     H     0.40987  0.40987  0.00000  0.18027
      21     H     0.42167  0.42167  0.00000  0.15665

   Total alpha = 29.00000, Total beta = 29.00000, Total charge = -0.00000
