  ==> Input File <==

--------------------------------------------------------------------------
set {
	reference rhf
	basis 6-31G*
}

set_num_threads( 1 )
memory 2 gb

molecule MOL {
0 1

H	 -2.798360	 -0.862255	 -0.071053
N	 -1.863561	 -0.715187	 0.256814
C	 -1.344686	 0.554728	 -0.219830
H	 -1.300452	 -1.461917	 -0.101532
C	 -0.873568	 0.415838	 -1.652272
H	 -2.068237	 1.369785	 -0.173361
H	 -0.496711	 0.836492	 0.396877
O	 -1.984187	 0.129990	 -2.453461
H	 -0.400271	 1.339624	 -1.984307
H	 -0.142470	 -0.386697	 -1.720608
C	 -1.681301	 -0.108334	 -3.791008
H	 -2.609766	 -0.314526	 -4.305921
H	 -1.208449	 0.756891	 -4.252288
H	 -1.018508	 -0.963992	 -3.902202

	symmetry c1
}
set optking {
	frozen_dihedral = ("
		8 5 3 6,
		5 8 11 13,
		11 8 5 3
	")
}

ee = energy('scf')
oeprop('DIPOLE', 'QUADRUPOLE', 'MULLIKEN_CHARGES')
f=open( 'psi4out.xyz', 'w' )
f.write( "14  " )
f.write( str(ee) + "\n" )
f.write( MOL.save_string_xyz() )
f.close()
--------------------------------------------------------------------------

    Molecular point group: c1

    Geometry (in Angstrom), charge = 0, multiplicity = 1:

       Center              X                  Y                   Z               Mass
    ------------   -----------------  -----------------  -----------------  -----------------
           H         -1.242917427321    -0.898581914679     1.525417714921     1.007825032070
           N         -0.308118427321    -0.751513914679     1.853284714921    14.003074004780
           C          0.210756572679     0.518401085321     1.376640714921    12.000000000000
           H          0.254990572679    -1.498243914679     1.494938714921     1.007825032070
           C          0.681874572679     0.379511085321    -0.055801285079    12.000000000000
           H         -0.512794427321     1.333458085321     1.423109714921     1.007825032070
           H          1.058731572679     0.800165085321     1.993347714921     1.007825032070
           O         -0.428744427321     0.093663085321    -0.856990285079    15.994914619560
           H          1.155171572679     1.303297085321    -0.387836285079     1.007825032070
           H          1.412972572679    -0.423023914679    -0.124137285079     1.007825032070
           C         -0.125858427321    -0.144660914679    -2.194537285079    12.000000000000
           H         -1.054323427321    -0.350852914679    -2.709450285079     1.007825032070
           H          0.346993572679     0.720564085321    -2.655817285079     1.007825032070
           H          0.536934572679    -1.000318914679    -2.305731285079     1.007825032070

  Charge       = 0
  Multiplicity = 1
  Basis Set: 6-31G*
  Basis Set:

    Orbital Energies (a.u.)
    -----------------------

    Doubly Occupied:

       1A    -20.560647     2A    -15.527469     3A    -11.269803
       4A    -11.268380     5A    -11.242152     6A     -1.384901
       7A     -1.175662     8A     -0.999459     9A     -0.909953
      10A     -0.823785    11A     -0.688896    12A     -0.668706
      13A     -0.644549    14A     -0.636201    15A     -0.584215
      16A     -0.546146    17A     -0.529965    18A     -0.511297
      19A     -0.475667    20A     -0.422330    21A     -0.376193

  @DF-RHF Final Energy:  -248.12080229620486

   => Energetics <=

    Nuclear Repulsion Energy =            195.3445803290935316
    One-Electron Energy =                -724.4379686007505370
    Two-Electron Energy =                 280.9725859754524890
    DFT Exchange-Correlation Energy =       0.0000000000000000
    Empirical Dispersion Energy =           0.0000000000000000
    PCM Polarization Energy =               0.0000000000000000
    EFP Energy =                            0.0000000000000000
    Total Energy =                       -248.1208022962044879

  Mulliken Charges: (a.u.)
   Center  Symbol    Alpha    Beta     Spin     Total
       1     H     0.32590  0.32590  0.00000  0.34819
       2     N     3.91862  3.91862  0.00000 -0.83724
       3     C     3.06936  3.06936  0.00000 -0.13873
       4     H     0.33462  0.33462  0.00000  0.33075
       5     C     2.99952  2.99952  0.00000  0.00097
       6     H     0.41142  0.41142  0.00000  0.17717
       7     H     0.41837  0.41837  0.00000  0.16327
       8     O     4.30637  4.30637  0.00000 -0.61274
       9     H     0.43112  0.43112  0.00000  0.13777
      10     H     0.43506  0.43506  0.00000  0.12989
      11     C     3.07914  3.07914  0.00000 -0.15828
      12     H     0.41167  0.41167  0.00000  0.17667
      13     H     0.42888  0.42888  0.00000  0.14223
      14     H     0.42996  0.42996  0.00000  0.14008

   Total alpha = 21.00000, Total beta = 21.00000, Total charge =  0.00000
