  ==> Input File <==

--------------------------------------------------------------------------
set {
	reference rhf
	basis 6-31G*
}

set_num_threads( 4 )
memory 2 gb

molecule MOL {
0 1

H	 -0.106732	 1.270023	 -1.097084
O	 0.055946	 1.300438	 -0.164479
C	 0.004957	 -0.004114	 0.366649
C	 1.201664	 -0.828089	 -0.095740
C	 -1.317755	 -0.601827	 -0.081511
H	 0.013527	 0.048298	 1.454924
H	 1.216388	 -0.895289	 -1.178704
H	 2.135132	 -0.372895	 0.226467
H	 1.166770	 -1.832878	 0.313827
H	 -1.355732	 -0.658248	 -1.164429
H	 -2.141614	 0.017037	 0.254547
H	 -1.447303	 -1.600817	 0.322594

	symmetry c1
}
set optking {
	frozen_dihedral = ("
		1 2 3 4
	")
}

ee = optimize('scf')
oeprop('DIPOLE', 'QUADRUPOLE', 'MULLIKEN_CHARGES')
f=open( 'psi4out.xyz', 'w' )
f.write( "12  " )
f.write( str(ee) + "\n" )
f.write( MOL.save_string_xyz() )
f.close()
--------------------------------------------------------------------------

    Molecular point group: c1
  Charge       = 0
  Multiplicity = 1
  Basis Set: 6-31G*
  Basis Set:
  @DF-RHF Final Energy:  -193.11263079964317
    Total Energy =                       -193.1126307996431990
    Molecular point group: c1
  Basis Set: 6-31G*
  Basis Set:
  Basis Set: 6-31G*
  Basis Set:
  @DF-RHF Final Energy:  -193.11445765692099
    Total Energy =                       -193.1144576569210471
  Basis Set: 6-31G*
  Basis Set:
  Basis Set: 6-31G*
  Basis Set:
  @DF-RHF Final Energy:  -193.11488718616727
    Total Energy =                       -193.1148871861673797
  Basis Set: 6-31G*
  Basis Set:
  Basis Set: 6-31G*
  Basis Set:
  @DF-RHF Final Energy:  -193.11489041009716
    Total Energy =                       -193.1148904100970753
  Basis Set: 6-31G*
  Basis Set:
  Charge       = 0
  Multiplicity = 1
  Basis Set: 6-31G*
  Basis Set:

    Orbital Energies (a.u.)
    -----------------------

    Doubly Occupied:

       1A    -20.551156     2A    -11.275530     3A    -11.214225
       4A    -11.211495     5A     -1.360605     6A     -1.041646
       7A     -0.941551     8A     -0.818793     9A     -0.661449
      10A     -0.643006    11A     -0.601677    12A     -0.575556
      13A     -0.545523    14A     -0.516131    15A     -0.510308
      16A     -0.465527    17A     -0.430515

  @DF-RHF Final Energy:  -193.11489062474553

   => Energetics <=

    Nuclear Repulsion Energy =            135.3427286465896202
    One-Electron Energy =                -530.1858473668343095
    Two-Electron Energy =                 201.7282280954992757
    DFT Exchange-Correlation Energy =       0.0000000000000000
    Empirical Dispersion Energy =           0.0000000000000000
    PCM Polarization Energy =               0.0000000000000000
    EFP Energy =                            0.0000000000000000
    Total Energy =                       -193.1148906247453851
    Molecular point group: c1
  Basis Set: 6-31G*
  Basis Set:

  -Total Gradient:
     Atom            X                  Y                   Z
    ------   -----------------  -----------------  -----------------
       1       -0.000705278796     0.000070787817     0.000104466906
       2        0.000946881459    -0.000038647647     0.000024333108
       3       -0.000458827457    -0.000127051004    -0.000554152315
       4        0.000212735183     0.000126679627     0.000397750365
       5       -0.000014551435     0.000014845414    -0.000005345325
       6       -0.000004776755    -0.000029473971     0.000004142882
       7       -0.000012835609     0.000005670289     0.000014748635
       8        0.000010998713    -0.000004782002    -0.000012073618
       9        0.000010843309    -0.000008692767     0.000003843500
      10        0.000011344474     0.000009856653     0.000020914049
      11        0.000007669696    -0.000003301089    -0.000007940051
      12       -0.000004202781    -0.000015891318     0.000009311863

  **** Optimization is complete! (in 5 steps) ****
    Final optimized geometry and variables:
    Molecular point group: c1

    Geometry (in Angstrom), charge = 0, multiplicity = 1:

    H           -0.007696838534     1.345183173604    -1.046265114277
    O            0.108602496122     1.330217029878    -0.105481734920
    C            0.004589356114     0.002932055472     0.355933212327
    C            1.207615119497    -0.821543404598    -0.088668949814
    C           -1.321699801284    -0.620441084877    -0.064170777718
    H            0.022364505106     0.088826478171     1.435830394420
    H            1.229051269013    -0.920377774378    -1.171895522235
    H            2.127238992018    -0.340236670324     0.223924023056
    H            1.178444010204    -1.820539593459     0.335732925451
    H           -1.378868678410    -0.714154525076    -1.146965661435
    H           -2.149494205245    -0.002951544026     0.266114626121
    H           -1.440897394044    -1.612708324861     0.359396678070

  Mulliken Charges: (a.u.)
   Center  Symbol    Alpha    Beta     Spin     Total
       1     H     0.28513  0.28513  0.00000  0.42973
       2     O     4.37119  4.37119  0.00000 -0.74239
       3     C     2.91692  2.91692  0.00000  0.16616
       4     C     3.24522  3.24522  0.00000 -0.49043
       5     C     3.25000  3.25000  0.00000 -0.49999
       6     H     0.41566  0.41566  0.00000  0.16869
       7     H     0.42729  0.42729  0.00000  0.14541
       8     H     0.41028  0.41028  0.00000  0.17944
       9     H     0.42152  0.42152  0.00000  0.15696
      10     H     0.42731  0.42731  0.00000  0.14538
      11     H     0.41021  0.41021  0.00000  0.17958
      12     H     0.41927  0.41927  0.00000  0.16145

   Total alpha = 17.00000, Total beta = 17.00000, Total charge = -0.00000
