                              Psi4 1.0.54 Driver

  ==> Input File <==

--------------------------------------------------------------------------
set {
	reference rhf
	basis cc-pvtz
}

set_num_threads( 4 )
memory 2 gb

molecule MOL {
0 1

H	 3.210324	 -0.760855	 2.610065
O	 3.915804	 -0.880610	 2.001964
C	 3.681261	 -2.009665	 1.202279
C	 2.583663	 -1.803648	 0.169070
H	 4.616903	 -2.215456	 0.700081
H	 3.452217	 -2.873569	 1.823294
C	 1.193733	 -1.590604	 0.764516
H	 2.849520	 -0.953868	 -0.452503
H	 2.567227	 -2.676342	 -0.479416
C	 0.113298	 -1.420414	 -0.302504
H	 1.208734	 -0.715978	 1.406237
H	 0.939223	 -2.438989	 1.397568
C	 -1.311023	 -1.277304	 0.237018
H	 0.352362	 -0.556473	 -0.917874
H	 0.144387	 -2.280809	 -0.965243
C	 -2.041121	 -0.006551	 -0.194127
H	 -1.888548	 -2.136293	 -0.093331
H	 -1.289731	 -1.328757	 1.323321
C	 -3.489218	 0.042606	 0.286507
H	 -2.022185	 0.066287	 -1.279394
H	 -1.518764	 0.869305	 0.178730
C	 -4.219984	 1.311773	 -0.139038
H	 -4.022855	 -0.824300	 -0.093339
H	 -3.510372	 -0.038577	 1.370031
H	 -4.244251	 1.405725	 -1.219696
H	 -5.244345	 1.313233	 0.215630
H	 -3.732090	 2.196311	 0.257073

	symmetry c1
}
set optking {
	frozen_dihedral = ("
		14 10 13 16
	")
}

ee,wfn = optimize('scf', return_wfn=True)
oeprop( wfn, 'DIPOLE', 'QUADRUPOLE', 'MULLIKEN_CHARGES')
f=open( 'psi4out.xyz', 'w' )
f.write( "27  " )
f.write( str(ee) + "\n" )
f.write( MOL.save_string_xyz() )
f.close()
--------------------------------------------------------------------------

    Molecular point group: c1
  Charge       = 0
  Multiplicity = 1
  Basis Set: CC-PVTZ
  Basis Set:
  @DF-RHF Final Energy:  -388.42366748626807
    Total Energy =                       -388.4236674862679592
    Molecular point group: c1
  Basis Set: CC-PVTZ
  Basis Set:
  Basis Set: CC-PVTZ
  Basis Set:
  @DF-RHF Final Energy:  -388.42395178214383
    Total Energy =                       -388.4239517821433765
  Basis Set: CC-PVTZ
  Basis Set:
  Basis Set: CC-PVTZ
  Basis Set:
  @DF-RHF Final Energy:  -388.42423572435786
    Total Energy =                       -388.4242357243579136
  Basis Set: CC-PVTZ
  Basis Set:
  Basis Set: CC-PVTZ
  Basis Set:
  @DF-RHF Final Energy:  -388.42423881108243
    Total Energy =                       -388.4242388110823185
  Basis Set: CC-PVTZ
  Basis Set:
  Basis Set: CC-PVTZ
  Basis Set:
  @DF-RHF Final Energy:  -388.42424583005698
    Total Energy =                       -388.4242458300567478
  Basis Set: CC-PVTZ
  Basis Set:
  Basis Set: CC-PVTZ
  Basis Set:
  @DF-RHF Final Energy:  -388.42424712248442
    Total Energy =                       -388.4242471224841893
  Basis Set: CC-PVTZ
  Basis Set:
  Charge       = 0
  Multiplicity = 1
  Basis Set: CC-PVTZ
  Basis Set:

    Orbital Energies (a.u.)
    -----------------------

    Doubly Occupied:

       1A    -20.545294     2A    -11.265070     3A    -11.217898
       4A    -11.214073     5A    -11.213362     6A    -11.213187
       7A    -11.212698     8A    -11.211981     9A    -11.206871
      10A     -1.363249    11A     -1.094650    12A     -1.063411
      13A     -1.011560    14A     -0.951126    15A     -0.883469
      16A     -0.821308    17A     -0.793157    18A     -0.790282
      19A     -0.696622    20A     -0.651053    21A     -0.641027
      22A     -0.614405    23A     -0.601116    24A     -0.587268
      25A     -0.576372    26A     -0.552804    27A     -0.544229
      28A     -0.523718    29A     -0.509602    30A     -0.489047
      31A     -0.485568    32A     -0.477058    33A     -0.469822
      34A     -0.462363    35A     -0.453329    36A     -0.443549
      37A     -0.423114

  @DF-RHF Final Energy:  -388.42424714241025

   => Energetics <=

    Nuclear Repulsion Energy =            454.3049447832124201
    One-Electron Energy =               -1426.9089612420766571
    Two-Electron Energy =                 584.1797693164535303
    DFT Exchange-Correlation Energy =       0.0000000000000000
    Empirical Dispersion Energy =           0.0000000000000000
    PCM Polarization Energy =               0.0000000000000000
    EFP Energy =                            0.0000000000000000
    Total Energy =                       -388.4242471424106498
    Molecular point group: c1
  Basis Set: CC-PVTZ
  Basis Set:

  -Total Gradient:
     Atom            X                  Y                   Z
    ------   -----------------  -----------------  -----------------
       1        0.000000908328    -0.000015774186    -0.000003648904
       2        0.000036715229     0.000018917913    -0.000021405376
       3       -0.000048873023    -0.000035660102     0.000029643113
       4        0.000008917509     0.000020755272    -0.000006126818
       5        0.000005886769     0.000018169757     0.000012032544
       6        0.000008570482    -0.000010235673     0.000006409530
       7       -0.000000122941     0.000001106094    -0.000006446236
       8       -0.000007268817     0.000008886107    -0.000006497038
       9       -0.000000884739    -0.000001430151    -0.000005239332
      10        0.000336690727     0.000435150449     0.000740753536
      11       -0.000001107897     0.000004983391    -0.000007551117
      12       -0.000001713149    -0.000002421691     0.000004042247
      13       -0.000280322433    -0.000367874934    -0.000613454927
      14       -0.000210679715    -0.000283449619    -0.000480814633
      15        0.000003407064     0.000000451286    -0.000003266912
      16        0.000159509057     0.000197773092     0.000354338481
      17       -0.000005495208    -0.000002973841     0.000002551322
      18       -0.000006527581     0.000001876147    -0.000001105340
      19        0.000001290740     0.000011975538     0.000012535616
      20       -0.000001556057    -0.000003046710    -0.000007057140
      21        0.000005169439     0.000009604999     0.000003534826
      22        0.000003005071    -0.000007711795    -0.000006145634
      23       -0.000000644307    -0.000006892647    -0.000004128018
      24        0.000001527644    -0.000001655725     0.000010115647
      25       -0.000001217591     0.000003228114    -0.000010329226
      26       -0.000010081973    -0.000000624468     0.000002992268
      27        0.000004897378     0.000006873384     0.000004267520

  **** Optimization is complete! (in 7 steps) ****
    Final optimized geometry and variables:
    Molecular point group: c1

    Geometry (in Angstrom), charge = 0, multiplicity = 1:

    H            3.008696757100     0.061858645696     2.166125531659
    O            3.735889960896    -0.000834852511     1.575430258461
    C            3.577299189103    -1.106196750444     0.725727827612
    C            2.493729709844    -0.912962356712    -0.324635338064
    H            4.533284889495    -1.243684539412     0.238815562772
    H            3.378946218531    -2.005356608913     1.305859524745
    C            1.083031846293    -0.791066399345     0.244664899092
    H            2.730982309003    -0.028107128857    -0.907535511861
    H            2.533781233364    -1.759741065587    -1.005757856728
    C            0.009707921815    -0.643425730139    -0.831685729133
    H            1.027851206939     0.068119336307     0.908559640634
    H            0.861459285623    -1.666632206961     0.851875627533
    C           -1.419905190153    -0.508883972405    -0.269201765820
    H            0.243811130647     0.222512982849    -1.443584882016
    H            0.064326881364    -1.497721387491    -1.499073483699
    C           -2.130524386320     0.772150457058    -0.700319227001
    H           -2.017663170701    -1.363078844385    -0.570775139138
    H           -1.387395223909    -0.539172075958     0.816280677025
    C           -3.540934935072     0.905954773405    -0.134641473435
    H           -2.174794497042     0.809448002287    -1.786371197342
    H           -1.536963699351     1.630198105480    -0.392372573831
    C           -4.243068822998     2.188015485653    -0.569846856629
    H           -4.133552577483     0.048772275929    -0.442800141903
    H           -3.497158853688     0.870265591456     0.950643281721
    H           -4.333898534416     2.237143556154    -1.649900226640
    H           -5.241019416597     2.251339228816    -0.151354020971
    H           -3.692588993921     3.065076697718    -0.245897155116

  Mulliken Charges: (a.u.)
   Center  Symbol    Alpha    Beta     Spin     Total
       1     H     0.39242  0.39242  0.00000  0.21515
       2     O     4.20566  4.20566  0.00000 -0.41131
       3     C     2.98000  2.98000  0.00000  0.03999
       4     C     3.09018  3.09018  0.00000 -0.18035
       5     H     0.44851  0.44851  0.00000  0.10298
       6     H     0.46996  0.46996  0.00000  0.06007
       7     C     3.10093  3.10093  0.00000 -0.20186
       8     H     0.45039  0.45039  0.00000  0.09921
       9     H     0.45605  0.45605  0.00000  0.08790
      10     C     3.09756  3.09756  0.00000 -0.19511
      11     H     0.45695  0.45695  0.00000  0.08610
      12     H     0.45230  0.45230  0.00000  0.09539
      13     C     3.09707  3.09707  0.00000 -0.19414
      14     H     0.45188  0.45188  0.00000  0.09624
      15     H     0.44887  0.44887  0.00000  0.10225
      16     C     3.08565  3.08565  0.00000 -0.17130
      17     H     0.44888  0.44888  0.00000  0.10224
      18     H     0.45536  0.45536  0.00000  0.08928
      19     C     3.08513  3.08513  0.00000 -0.17025
      20     H     0.45361  0.45361  0.00000  0.09278
      21     H     0.45441  0.45441  0.00000  0.09118
      22     C     3.14997  3.14997  0.00000 -0.29994
      23     H     0.45483  0.45483  0.00000  0.09034
      24     H     0.45462  0.45462  0.00000  0.09076
      25     H     0.45513  0.45513  0.00000  0.08974
      26     H     0.44853  0.44853  0.00000  0.10295
      27     H     0.45515  0.45515  0.00000  0.08970

   Total alpha = 37.00000, Total beta = 37.00000, Total charge = -0.00000

*** Psi4 exiting successfully. Buy a developer a beer!
