  ==> Input File <==

--------------------------------------------------------------------------
set {
	reference rhf
	basis cc-pvtz
}

set_num_threads( 4 )
memory 2 gb

molecule MOL {
0 1

H	 -3.162190	 0.493205	 -0.000107
C	 -2.363908	 -0.234727	 0.000005
O	 -1.158738	 0.454634	 -0.000087
H	 -2.464314	 -0.863616	 -0.882153
H	 -2.464327	 -0.863359	 0.882345
C	 -1.057299	 1.438833	 0.980413
C	 0.296040	 2.112230	 0.873640
H	 -1.179510	 0.995690	 1.969011
H	 -1.853323	 2.173437	 0.856532
C	 0.485731	 3.206941	 1.917659
H	 1.066969	 1.357046	 0.979907
H	 0.398483	 2.525468	 -0.123702
H	 0.411150	 2.810127	 2.924666
H	 1.459582	 3.670463	 1.818751
H	 -0.261606	 3.986495	 1.813496

	symmetry c1
}
set optking {
	frozen_dihedral = ("
		6 3 2 4
	")
}

ee = optimize('scf')
oeprop('DIPOLE', 'QUADRUPOLE', 'MULLIKEN_CHARGES')
f=open( 'psi4out.xyz', 'w' )
f.write( "15  " )
f.write( str(ee) + "\n" )
f.write( MOL.save_string_xyz() )
f.close()
--------------------------------------------------------------------------

    Molecular point group: c1
  Charge       = 0
  Multiplicity = 1
  Basis Set: CC-PVTZ
  Basis Set:
  @DF-RHF Final Energy:  -232.22697220448009
    Total Energy =                       -232.2269722044800915
    Molecular point group: c1
  Basis Set: CC-PVTZ
  Basis Set:
  Basis Set: CC-PVTZ
  Basis Set:
  @DF-RHF Final Energy:  -232.22777812592668
    Total Energy =                       -232.2277781259266476
  Basis Set: CC-PVTZ
  Basis Set:
  Basis Set: CC-PVTZ
  Basis Set:
  @DF-RHF Final Energy:  -232.22798749564959
    Total Energy =                       -232.2279874956494155
  Basis Set: CC-PVTZ
  Basis Set:
  Charge       = 0
  Multiplicity = 1
  Basis Set: CC-PVTZ
  Basis Set:

    Orbital Energies (a.u.)
    -----------------------

    Doubly Occupied:

       1A    -20.547365     2A    -11.264444     3A    -11.261743
       4A    -11.212745     5A    -11.210716     6A     -1.381671
       7A     -1.058464     8A     -0.956162     9A     -0.877346
      10A     -0.809562    11A     -0.677058    12A     -0.655838
      13A     -0.632231    14A     -0.608626    15A     -0.565079
      16A     -0.541310    17A     -0.503694    18A     -0.490175
      19A     -0.478446    20A     -0.462895    21A     -0.416539

  @DF-RHF Final Energy:  -232.22798847649679

   => Energetics <=

    Nuclear Repulsion Energy =            189.9984796260907558
    One-Electron Energy =                -691.2287167568413224
    Two-Electron Energy =                 269.0022486542537763
    DFT Exchange-Correlation Energy =       0.0000000000000000
    Empirical Dispersion Energy =           0.0000000000000000
    PCM Polarization Energy =               0.0000000000000000
    EFP Energy =                            0.0000000000000000
    Total Energy =                       -232.2279884764967619
    Molecular point group: c1
  Basis Set: CC-PVTZ
  Basis Set:

  -Total Gradient:
     Atom            X                  Y                   Z
    ------   -----------------  -----------------  -----------------
       1        0.000026652475     0.000027694789     0.000005454857
       2        0.000511162982    -0.000917949451     0.000575011272
       3        0.000495387686    -0.000799142597     0.000803999979
       4       -0.000533507388     0.001053696401    -0.000669199913
       5        0.000055068867     0.000027443568     0.000004845116
       6       -0.000524551249     0.000713310331    -0.000580739545
       7        0.000018260555    -0.000050874657    -0.000079940039
       8       -0.000005670395    -0.000006707805     0.000006660374
       9       -0.000003269006    -0.000014011017    -0.000031753848
      10       -0.000060838939    -0.000028796084    -0.000001771276
      11        0.000007783173    -0.000003671634    -0.000002708078
      12        0.000023447446     0.000014850341    -0.000012292077
      13       -0.000000100115    -0.000001636414     0.000001180384
      14       -0.000007696502    -0.000023031413    -0.000022457872
      15       -0.000002129592     0.000008825642     0.000003710665

  **** Optimization is complete! (in 4 steps) ****
    Final optimized geometry and variables:
    Molecular point group: c1

    Geometry (in Angstrom), charge = 0, multiplicity = 1:

    H           -2.431859895364    -0.928664416881    -0.748730887593
    C           -1.582466191196    -1.608684625758    -0.744898358761
    O           -0.378294235576    -0.917362193773    -0.750267495479
    H           -1.625278036596    -2.209361885727    -1.642061512156
    H           -1.667218478494    -2.257846926559     0.123799742105
    C           -0.270421457176     0.065354875790     0.230876733075
    C            1.087018287553     0.730344604957     0.123178972485
    H           -0.394580707685    -0.375800168810     1.220413091624
    H           -1.062206776770     0.804120499001     0.106334202807
    C            1.281404552372     1.827866384945     1.163406351558
    H            1.853783401014    -0.028603248803     0.233231281819
    H            1.192977965759     1.139314571922    -0.875648734125
    H            1.203380700074     1.435196347188     2.171824172903
    H            2.257971697963     2.285678508123     1.063977081806
    H            0.538444963796     2.611153390867     1.055367566196

  Mulliken Charges: (a.u.)
   Center  Symbol    Alpha    Beta     Spin     Total
       1     H     0.47399  0.47399  0.00000  0.05202
       2     C     3.03319  3.03319  0.00000 -0.06637
       3     O     4.17178  4.17178  0.00000 -0.34356
       4     H     0.44736  0.44736  0.00000  0.10528
       5     H     0.46973  0.46973  0.00000  0.06053
       6     C     2.95610  2.95610  0.00000  0.08780
       7     C     3.08029  3.08029  0.00000 -0.16058
       8     H     0.47667  0.47667  0.00000  0.04665
       9     H     0.47490  0.47490  0.00000  0.05020
      10     C     3.15582  3.15582  0.00000 -0.31164
      11     H     0.45104  0.45104  0.00000  0.09792
      12     H     0.45115  0.45115  0.00000  0.09770
      13     H     0.45583  0.45583  0.00000  0.08834
      14     H     0.44627  0.44627  0.00000  0.10746
      15     H     0.45587  0.45587  0.00000  0.08826

   Total alpha = 21.00000, Total beta = 21.00000, Total charge = -0.00000
