  ==> Input File <==

--------------------------------------------------------------------------
set {
	reference rhf
	basis cc-pvtz
}

set_num_threads( 4 )
memory 2 gb

molecule MOL {
0 1

H	 1.769987	 -0.459927	 2.349268
O	 1.085754	 0.087555	 2.011416
C	 1.135873	 0.113391	 0.608264
C	 0.027642	 1.012027	 0.090274
H	 0.998088	 -0.887260	 0.206418
H	 2.105515	 0.468077	 0.269952
C	 -1.138737	 0.285728	 -0.581921
H	 0.464661	 1.708096	 -0.618252
H	 -0.340737	 1.603071	 0.925246
C	 -1.933983	 -0.631436	 0.343653
H	 -0.763151	 -0.285569	 -1.422081
H	 -1.808359	 1.035291	 -0.992333
H	 -2.789188	 -1.049673	 -0.174718
H	 -1.335629	 -1.461368	 0.700418
H	 -2.305435	 -0.092167	 1.209725

	symmetry c1
}
set optking {
	frozen_dihedral = ("
		2 3 4 8
	")
}

ee = optimize('scf')
oeprop('DIPOLE', 'QUADRUPOLE', 'MULLIKEN_CHARGES')
f=open( 'psi4out.xyz', 'w' )
f.write( "15  " )
f.write( str(ee) + "\n" )
f.write( MOL.save_string_xyz() )
f.close()
--------------------------------------------------------------------------

    Molecular point group: c1
  Charge       = 0
  Multiplicity = 1
  Basis Set: CC-PVTZ
  Basis Set:
  @DF-RHF Final Energy:  -232.23252631445260
    Total Energy =                       -232.2325263144525138
    Molecular point group: c1
  Basis Set: CC-PVTZ
  Basis Set:
  Basis Set: CC-PVTZ
  Basis Set:
  @DF-RHF Final Energy:  -232.23301946768140
    Total Energy =                       -232.2330194676812880
  Basis Set: CC-PVTZ
  Basis Set:
  Basis Set: CC-PVTZ
  Basis Set:
  @DF-RHF Final Energy:  -232.23309530992591
    Total Energy =                       -232.2330953099260569
  Basis Set: CC-PVTZ
  Basis Set:
  Basis Set: CC-PVTZ
  Basis Set:
  @DF-RHF Final Energy:  -232.23310198463719
    Total Energy =                       -232.2331019846370737
  Basis Set: CC-PVTZ
  Basis Set:
  Basis Set: CC-PVTZ
  Basis Set:
  @DF-RHF Final Energy:  -232.23310690960793
    Total Energy =                       -232.2331069096079545
  Basis Set: CC-PVTZ
  Basis Set:
  Charge       = 0
  Multiplicity = 1
  Basis Set: CC-PVTZ
  Basis Set:

    Orbital Energies (a.u.)
    -----------------------

    Doubly Occupied:

       1A    -20.545905     2A    -11.266004     3A    -11.213075
       4A    -11.209751     5A    -11.201816     6A     -1.362955
       7A     -1.066759     8A     -0.969012     9A     -0.867347
      10A     -0.783582    11A     -0.702752    12A     -0.649368
      13A     -0.612857    14A     -0.574701    15A     -0.556245
      16A     -0.542001    17A     -0.503358    18A     -0.478892
      19A     -0.469420    20A     -0.456839    21A     -0.429996

  @DF-RHF Final Energy:  -232.23310759889230

   => Energetics <=

    Nuclear Repulsion Energy =            191.0541924376576333
    One-Electron Energy =                -693.6493335344498519
    Two-Electron Energy =                 270.3620334978999722
    DFT Exchange-Correlation Energy =       0.0000000000000000
    Empirical Dispersion Energy =           0.0000000000000000
    PCM Polarization Energy =               0.0000000000000000
    EFP Energy =                            0.0000000000000000
    Total Energy =                       -232.2331075988922180
    Molecular point group: c1
  Basis Set: CC-PVTZ
  Basis Set:

  -Total Gradient:
     Atom            X                  Y                   Z
    ------   -----------------  -----------------  -----------------
       1       -0.000000322021     0.000000067982    -0.000020654194
       2        0.001459452837     0.001933211757     0.000186515870
       3       -0.001760211610    -0.002102152913     0.000316392147
       4       -0.000205893423    -0.001766321122    -0.002863865666
       5        0.000004160220    -0.000003014571    -0.000005586824
       6       -0.000018854390     0.000018100298     0.000016042049
       7        0.000034799443    -0.000031885897     0.000016984691
       8        0.000490778257     0.001931696074     0.002371953665
       9        0.000005670369     0.000012000735     0.000004789869
      10       -0.000041413259    -0.000016998124    -0.000019040052
      11        0.000011059978     0.000007186664    -0.000034232919
      12        0.000010284200    -0.000006663963     0.000009137713
      13        0.000000087175     0.000013803968     0.000011087625
      14        0.000012262390     0.000013679784    -0.000003416064
      15       -0.000001860165    -0.000002710670     0.000013892092

  **** Optimization is complete! (in 6 steps) ****
    Final optimized geometry and variables:
    Molecular point group: c1

    Geometry (in Angstrom), charge = 0, multiplicity = 1:

    H            1.869162521238    -0.682419019965     1.788268043969
    O            1.203471965605    -0.105989083455     1.460576451634
    C            1.274468137556    -0.038936146932     0.057779190789
    C            0.155467859018     0.869233542544    -0.458874012663
    H            1.189563886413    -1.032517427034    -0.374685344764
    H            2.240520291078     0.359713455691    -0.238215644740
    C           -1.010417574279     0.140436945146    -1.125482109255
    H            0.573554282920     1.598835437453    -1.143710284187
    H           -0.209166945785     1.437717357518     0.389649923889
    C           -1.799667981561    -0.758264900202    -0.177341854770
    H           -0.637393149557    -0.448688302913    -1.959563951090
    H           -1.681386818033     0.878241742030    -1.554341245622
    H           -2.608564185551    -1.255969459361    -0.700174861815
    H           -1.172543978544    -1.521741118401     0.267466951206
    H           -2.230514976372    -0.180886225431     0.633167286141

  Mulliken Charges: (a.u.)
   Center  Symbol    Alpha    Beta     Spin     Total
       1     H     0.39531  0.39531  0.00000  0.20939
       2     O     4.20041  4.20041  0.00000 -0.40082
       3     C     2.97683  2.97683  0.00000  0.04633
       4     C     3.09644  3.09644  0.00000 -0.19288
       5     H     0.47134  0.47134  0.00000  0.05732
       6     H     0.46307  0.46307  0.00000  0.07387
       7     C     3.09458  3.09458  0.00000 -0.18916
       8     H     0.44652  0.44652  0.00000  0.10697
       9     H     0.44791  0.44791  0.00000  0.10418
      10     C     3.14035  3.14035  0.00000 -0.28071
      11     H     0.45727  0.45727  0.00000  0.08545
      12     H     0.45017  0.45017  0.00000  0.09966
      13     H     0.45101  0.45101  0.00000  0.09799
      14     H     0.45496  0.45496  0.00000  0.09009
      15     H     0.45383  0.45383  0.00000  0.09233

   Total alpha = 21.00000, Total beta = 21.00000, Total charge = -0.00000
