                              Psi4 1.0.54 Driver

  ==> Input File <==

--------------------------------------------------------------------------
set {
	reference rhf
	basis cc-pvtz
}

set_num_threads( 4 )
memory 2 gb

molecule MOL {
0 1

O	 2.084110	 1.813895	 0.199863
C	 0.964770	 1.458107	 -0.035106
C	 -0.127604	 2.485953	 -0.247440
N	 0.622280	 0.144970	 -0.099307
H	 -0.926657	 2.367139	 0.473492
H	 0.318245	 3.459324	 -0.128028
H	 -0.554965	 2.408323	 -1.239564
C	 1.664396	 -0.854993	 0.000772
C	 -0.647603	 -0.334238	 -0.590744
H	 2.462727	 -0.615153	 -0.690869
H	 1.261798	 -1.821849	 -0.240651
H	 2.081615	 -0.891605	 1.003877
H	 -0.913184	 -1.241980	 -0.064335
H	 -1.434938	 0.380716	 -0.423890
H	 -0.611179	 -0.564179	 -1.653215

	symmetry c1
}
set optking {
	frozen_dihedral = ("
		2 4 8 10
	")
}

ee,wfn = optimize('scf', return_wfn=True)
oeprop( wfn, 'DIPOLE', 'QUADRUPOLE', 'MULLIKEN_CHARGES')
f=open( 'psi4out.xyz', 'w' )
f.write( "15  " )
f.write( str(ee) + "\n" )
f.write( MOL.save_string_xyz() )
f.close()
--------------------------------------------------------------------------

    Molecular point group: c1
  Charge       = 0
  Multiplicity = 1
  Basis Set: CC-PVTZ
  Basis Set:
  @DF-RHF Final Energy:  -286.13387389171123
    Total Energy =                       -286.1338738917110049
    Molecular point group: c1
  Basis Set: CC-PVTZ
  Basis Set:
  Basis Set: CC-PVTZ
  Basis Set:
  @DF-RHF Final Energy:  -286.13451424566097
    Total Energy =                       -286.1345142456609665
  Basis Set: CC-PVTZ
  Basis Set:
  Basis Set: CC-PVTZ
  Basis Set:
  @DF-RHF Final Energy:  -286.13458321486360
    Total Energy =                       -286.1345832148637669
  Basis Set: CC-PVTZ
  Basis Set:
  Basis Set: CC-PVTZ
  Basis Set:
  @DF-RHF Final Energy:  -286.13453576947177
    Total Energy =                       -286.1345357694713698
  Basis Set: CC-PVTZ
  Basis Set:
  @DF-RHF Final Energy:  -286.13464010481488
    Total Energy =                       -286.1346401048152188
  @DF-RHF Final Energy:  -286.13466667723822
    Total Energy =                       -286.1346666772382150
  @DF-RHF Final Energy:  -286.13468158948814
    Total Energy =                       -286.1346815894881956
  @DF-RHF Final Energy:  -286.13482160267256
    Total Energy =                       -286.1348216026725595
  @DF-RHF Final Energy:  -286.13487774553863
    Total Energy =                       -286.1348777455386880
  @DF-RHF Final Energy:  -286.13500971676774
    Total Energy =                       -286.1350097167677404
  @DF-RHF Final Energy:  -286.13506782147613
    Total Energy =                       -286.1350678214762411
  @DF-RHF Final Energy:  -286.13515448403365
    Total Energy =                       -286.1351544840338761
  @DF-RHF Final Energy:  -286.13520199640851
    Total Energy =                       -286.1352019964085684
  @DF-RHF Final Energy:  -286.13523287575856
    Total Energy =                       -286.1352328757583905
  Basis Set: CC-PVTZ
  Basis Set:
  @DF-RHF Final Energy:  -286.13525413325635
    Total Energy =                       -286.1352541332568080
  Basis Set: CC-PVTZ
  Basis Set:
  Basis Set: CC-PVTZ
  Basis Set:
  @DF-RHF Final Energy:  -286.13526249236384
    Total Energy =                       -286.1352624923638359
  Basis Set: CC-PVTZ
  Basis Set:
  Basis Set: CC-PVTZ
  Basis Set:
  @DF-RHF Final Energy:  -286.13526372994784
    Total Energy =                       -286.1352637299478374
  Basis Set: CC-PVTZ
  Basis Set:
  Charge       = 0
  Multiplicity = 1
  Basis Set: CC-PVTZ
  Basis Set:

    Orbital Energies (a.u.)
    -----------------------

    Doubly Occupied:

       1A    -20.504785     2A    -15.577451     3A    -11.333476
       4A    -11.264117     5A    -11.246958     6A    -11.226570
       7A     -1.388257     8A     -1.244658     9A     -1.014705
      10A     -0.973551    11A     -0.919484    12A     -0.738340
      13A     -0.682111    14A     -0.660700    15A     -0.653705
      16A     -0.589108    17A     -0.577813    18A     -0.569789
      19A     -0.564730    20A     -0.547141    21A     -0.530493
      22A     -0.503482    23A     -0.414723    24A     -0.371241

  @DF-RHF Final Energy:  -286.13526347190316

   => Energetics <=

    Nuclear Repulsion Energy =            253.1027861070741949
    One-Electron Energy =                -890.2813240619902899
    Two-Electron Energy =                 351.0432744830130218
    DFT Exchange-Correlation Energy =       0.0000000000000000
    Empirical Dispersion Energy =           0.0000000000000000
    PCM Polarization Energy =               0.0000000000000000
    EFP Energy =                            0.0000000000000000
    Total Energy =                       -286.1352634719031016
    Molecular point group: c1
  Basis Set: CC-PVTZ
  Basis Set:

  -Total Gradient:
     Atom            X                  Y                   Z
    ------   -----------------  -----------------  -----------------
       1        0.000008279778     0.000020984260    -0.000003723763
       2       -0.000245754276    -0.000049858677     0.000699487161
       3        0.000016849842     0.000007262276    -0.000020753248
       4        0.000261373225    -0.000037238426    -0.001057212981
       5        0.000010932342    -0.000016179241    -0.000016151577
       6       -0.000014941825    -0.000011819618     0.000001772238
       7       -0.000002937778     0.000008956550     0.000010902607
       8        0.000222936378     0.000430294668     0.001180126181
       9       -0.000106921225    -0.000009850722    -0.000065082077
      10       -0.000215992129    -0.000407131409    -0.000748684134
      11        0.000002008311     0.000010075942     0.000003163492
      12        0.000003065099     0.000007841889     0.000018912096
      13        0.000058802080     0.000072652401    -0.000155923298
      14        0.000049126878    -0.000108794579     0.000054972003
      15       -0.000046826694     0.000082804683     0.000098195300

  **** Optimization is complete! (in 18 steps) ****
    Final optimized geometry and variables:
    Molecular point group: c1

    Geometry (in Angstrom), charge = 0, multiplicity = 1:

    O            1.303224076232     1.007950201207     0.415849936957
    C            0.198637620644     0.677770583784     0.091279076980
    C           -0.905122004430     1.708132677735    -0.019810477458
    N           -0.092754280527    -0.614577988820    -0.209048935115
    H           -1.689298316272     1.520381996797     0.703555937902
    H           -0.467738552256     2.673021104688     0.176199180893
    H           -1.350258460821     1.708252020390    -1.006611636514
    C            0.955070835177    -1.592280041986     0.014694257340
    C           -1.438662652409    -1.128706824210    -0.313830029674
    H            1.875366210415    -1.261954908460    -0.438476696191
    H            0.658673267442    -2.528347506894    -0.437547105449
    H            1.135851918729    -1.757578162845     1.071918879559
    H           -1.797728821612    -1.528350230787     0.631690336197
    H           -2.125319302557    -0.367077804071    -0.641049499915
    H           -1.463865850677    -1.926302733920    -1.044126519553

  Mulliken Charges: (a.u.)
   Center  Symbol    Alpha    Beta     Spin     Total
       1     O     4.21892  4.21892  0.00000 -0.43784
       2     C     2.84497  2.84497  0.00000  0.31006
       3     C     3.16029  3.16029  0.00000 -0.32059
       4     N     3.56460  3.56460  0.00000 -0.12921
       5     H     0.44906  0.44906  0.00000  0.10188
       6     H     0.42882  0.42882  0.00000  0.14235
       7     H     0.44878  0.44878  0.00000  0.10244
       8     C     3.09150  3.09150  0.00000 -0.18299
       9     C     3.09684  3.09684  0.00000 -0.19367
      10     H     0.43527  0.43527  0.00000  0.12947
      11     H     0.45803  0.45803  0.00000  0.08395
      12     H     0.45340  0.45340  0.00000  0.09320
      13     H     0.45550  0.45550  0.00000  0.08899
      14     H     0.44565  0.44565  0.00000  0.10870
      15     H     0.44837  0.44837  0.00000  0.10325

   Total alpha = 24.00000, Total beta = 24.00000, Total charge =  0.00000

*** Psi4 exiting successfully. Buy a developer a beer!
