  ==> Input File <==

--------------------------------------------------------------------------
set {
	reference rhf
	basis 6-31G*
}

set_num_threads( 4 )
memory 2 gb

molecule MOL {
0 1

H	 2.591676	 2.013956	 0.335017
O	 3.341076	 1.666752	 -0.126416
C	 3.569581	 0.339145	 0.272707
C	 2.539767	 -0.640285	 -0.279495
H	 4.553106	 0.084646	 -0.100901
H	 3.608576	 0.269204	 1.359154
C	 1.115811	 -0.397273	 0.226630
H	 2.556196	 -0.582511	 -1.364741
H	 2.852081	 -1.648031	 -0.010655
C	 0.115918	 -1.429151	 -0.302766
H	 0.797950	 0.599468	 -0.066350
H	 1.109961	 -0.420744	 1.316472
C	 -0.250565	 -1.270223	 -1.782891
H	 0.511292	 -2.429401	 -0.135351
H	 -0.795967	 -1.361568	 0.286808
C	 0.896413	 -1.533004	 -2.762619
H	 -1.063840	 -1.956665	 -2.009158
H	 -0.645463	 -0.269221	 -1.949889
C	 0.456913	 -1.465879	 -4.226781
H	 1.322791	 -2.514710	 -2.561208
H	 1.696897	 -0.814613	 -2.603113
C	 1.601280	 -1.721482	 -5.206962
H	 -0.334171	 -2.192582	 -4.398759
H	 0.021735	 -0.489015	 -4.427382
H	 2.036760	 -2.704841	 -5.053384
H	 1.257837	 -1.669129	 -6.235524
H	 2.393405	 -0.987912	 -5.085403

	symmetry c1
}
set optking {
	frozen_dihedral = ("
		14 10 7 4
	")
}

ee = optimize('scf')
oeprop('DIPOLE', 'QUADRUPOLE', 'MULLIKEN_CHARGES')
f=open( 'psi4out.xyz', 'w' )
f.write( "27  " )
f.write( str(ee) + "\n" )
f.write( MOL.save_string_xyz() )
f.close()
--------------------------------------------------------------------------

    Molecular point group: c1
  Charge       = 0
  Multiplicity = 1
  Basis Set: 6-31G*
  Basis Set:
  @DF-RHF Final Energy:  -388.26743447428987
    Total Energy =                       -388.2674344742904395
    Molecular point group: c1
  Basis Set: 6-31G*
  Basis Set:
  Basis Set: 6-31G*
  Basis Set:
  @DF-RHF Final Energy:  -388.27527871754103
    Total Energy =                       -388.2752787175418234
  Basis Set: 6-31G*
  Basis Set:
  Basis Set: 6-31G*
  Basis Set:
  @DF-RHF Final Energy:  -388.27648989747553
    Total Energy =                       -388.2764898974754715
  Basis Set: 6-31G*
  Basis Set:
  Basis Set: 6-31G*
  Basis Set:
  @DF-RHF Final Energy:  -388.27674870502813
    Total Energy =                       -388.2767487050278987
  Basis Set: 6-31G*
  Basis Set:
  @DF-RHF Final Energy:  -388.27684514927824
    Total Energy =                       -388.2768451492787563
  @DF-RHF Final Energy:  -388.27689510628147
    Total Energy =                       -388.2768951062815859
  @DF-RHF Final Energy:  -388.27691249586604
    Total Energy =                       -388.2769124958651901
  Basis Set: 6-31G*
  Basis Set:
  @DF-RHF Final Energy:  -388.27693296862316
    Total Energy =                       -388.2769329686224182
  Basis Set: 6-31G*
  Basis Set:
  Basis Set: 6-31G*
  Basis Set:
  @DF-RHF Final Energy:  -388.27694861461714
    Total Energy =                       -388.2769486146173676
  Basis Set: 6-31G*
  Basis Set:
  Basis Set: 6-31G*
  Basis Set:
  @DF-RHF Final Energy:  -388.27695294774935
    Total Energy =                       -388.2769529477499191
  Basis Set: 6-31G*
  Basis Set:
  Charge       = 0
  Multiplicity = 1
  Basis Set: 6-31G*
  Basis Set:

    Orbital Energies (a.u.)
    -----------------------

    Doubly Occupied:

       1A    -20.552372     2A    -11.267053     3A    -11.221123
       4A    -11.218034     5A    -11.214950     6A    -11.214632
       7A    -11.214143     8A    -11.212141     9A    -11.207784
      10A     -1.359142    11A     -1.092827    12A     -1.059702
      13A     -1.009380    14A     -0.950965    15A     -0.885875
      16A     -0.828274    17A     -0.791850    18A     -0.777749
      19A     -0.695849    20A     -0.646930    21A     -0.632130
      22A     -0.615202    23A     -0.608450    24A     -0.585846
      25A     -0.567136    26A     -0.555171    27A     -0.547938
      28A     -0.520265    29A     -0.510903    30A     -0.496735
      31A     -0.483364    32A     -0.472850    33A     -0.464876
      34A     -0.461237    35A     -0.454744    36A     -0.435396
      37A     -0.422088

  @DF-RHF Final Energy:  -388.27695394235400

   => Energetics <=

    Nuclear Repulsion Energy =            466.9432828034466638
    One-Electron Energy =               -1451.9302720669381870
    Two-Electron Energy =                 596.7100353211368429
    DFT Exchange-Correlation Energy =       0.0000000000000000
    Empirical Dispersion Energy =           0.0000000000000000
    PCM Polarization Energy =               0.0000000000000000
    EFP Energy =                            0.0000000000000000
    Total Energy =                       -388.2769539423546803
    Molecular point group: c1
  Basis Set: 6-31G*
  Basis Set:

  -Total Gradient:
     Atom            X                  Y                   Z
    ------   -----------------  -----------------  -----------------
       1       -0.000019461082     0.000024987257     0.000002274981
       2       -0.000016202938    -0.000035082285     0.000023614725
       3        0.000039844618    -0.000018234338    -0.000041501764
       4        0.000208937325    -0.000690459274     0.000753887735
       5        0.000003176477    -0.000007049702     0.000014685136
       6       -0.000001595951     0.000026445095     0.000007177189
       7       -0.000196562233     0.001100815942    -0.001515090692
       8       -0.000007559350    -0.000046419609     0.000052375228
       9       -0.000021465647     0.000019080359    -0.000019900429
      10       -0.000735965128    -0.000675069784     0.001952040018
      11        0.000032381528     0.000032100742     0.000005155329
      12       -0.000001141246    -0.000001394458     0.000017812764
      13        0.000059346134     0.000037679620     0.000005440997
      14        0.000692674175     0.000219324493    -0.001314705908
      15       -0.000014026389    -0.000014978745     0.000001016286
      16       -0.000003846209     0.000024671677     0.000006567112
      17        0.000010188150     0.000003958058     0.000007932407
      18        0.000007429644     0.000030981935    -0.000022968797
      19        0.000001219311    -0.000008259018     0.000010961687
      20        0.000023650830     0.000025265711     0.000012196662
      21       -0.000052438731    -0.000035850140     0.000026931563
      22       -0.000003201815     0.000012883895    -0.000003475930
      23        0.000003853379    -0.000008259973    -0.000008182027
      24        0.000002617145    -0.000026365485     0.000021797719
      25       -0.000005891033     0.000011311334     0.000011443699
      26        0.000003003191    -0.000005918495    -0.000009700873
      27       -0.000008964155     0.000003835186     0.000002215178

  **** Optimization is complete! (in 11 steps) ****
    Final optimized geometry and variables:
    Molecular point group: c1

    Geometry (in Angstrom), charge = 0, multiplicity = 1:

    H            0.860036623242     2.683084480340     2.526004120221
    O            1.676362982156     2.536809072002     2.070345444173
    C            2.031998038226     1.180630335413     2.161102916623
    C            1.152261948110     0.273224559948     1.307514905362
    H            3.057947485108     1.122086424121     1.821019464222
    H            2.015724193095     0.851051126284     3.199367858826
    C           -0.314005279609     0.261574805227     1.750822111028
    H            1.236005353023     0.598714473550     0.276456779653
    H            1.554350817957    -0.737140494763     1.358830830207
    C           -1.212875755726    -0.796889814213     1.092826007535
    H           -0.753715237668     1.243327271213     1.587650741594
    H           -0.339111491245     0.089761002507     2.826872921715
    C           -1.619714749087    -0.535222217486    -0.369722359698
    H           -0.732221207198    -1.771125424157     1.160492582983
    H           -2.119366473509    -0.863355956293     1.688147576941
    C           -0.657559413551    -1.076139340045    -1.432297242500
    H           -2.590844640118    -0.994709267078    -0.539833521201
    H           -1.766063565477     0.533063204179    -0.519958801586
    C           -1.152602494659    -0.832040028253    -2.859423655377
    H           -0.525681929428    -2.146048437582    -1.278407714598
    H            0.325744005532    -0.630556234187    -1.318923872819
    C           -0.203538467501    -1.382507542904    -3.923387527737
    H           -2.134220318309    -1.284835132269    -2.982911863423
    H           -1.288069960269     0.236088636857    -3.015455861937
    H           -0.072558197835    -2.455504045529    -3.814499050796
    H           -0.582227265571    -1.195705637354    -4.923568836586
    H            0.777498969396    -0.921649391027    -3.850127685915

  Mulliken Charges: (a.u.)
   Center  Symbol    Alpha    Beta     Spin     Total
       1     H     0.27968  0.27968  0.00000  0.44065
       2     O     4.37124  4.37124  0.00000 -0.74248
       3     C     2.99771  2.99771  0.00000  0.00459
       4     C     3.16257  3.16257  0.00000 -0.32514
       5     H     0.41452  0.41452  0.00000  0.17097
       6     H     0.43192  0.43192  0.00000  0.13615
       7     C     3.16343  3.16343  0.00000 -0.32686
       8     H     0.41274  0.41274  0.00000  0.17452
       9     H     0.42408  0.42408  0.00000  0.15183
      10     C     3.15473  3.15473  0.00000 -0.30947
      11     H     0.42357  0.42357  0.00000  0.15286
      12     H     0.42493  0.42493  0.00000  0.15013
      13     C     3.15488  3.15488  0.00000 -0.30977
      14     H     0.42230  0.42230  0.00000  0.15540
      15     H     0.41952  0.41952  0.00000  0.16097
      16     C     3.15312  3.15312  0.00000 -0.30625
      17     H     0.42161  0.42161  0.00000  0.15678
      18     H     0.42228  0.42228  0.00000  0.15545
      19     C     3.15184  3.15184  0.00000 -0.30368
      20     H     0.42477  0.42477  0.00000  0.15047
      21     H     0.42020  0.42020  0.00000  0.15959
      22     C     3.23927  3.23927  0.00000 -0.47854
      23     H     0.42351  0.42351  0.00000  0.15299
      24     H     0.42258  0.42258  0.00000  0.15485
      25     H     0.42214  0.42214  0.00000  0.15573
      26     H     0.41935  0.41935  0.00000  0.16130
      27     H     0.42152  0.42152  0.00000  0.15696

   Total alpha = 37.00000, Total beta = 37.00000, Total charge = -0.00000
