  ==> Input File <==

--------------------------------------------------------------------------
set {
	reference rhf
	basis cc-pvtz
}

set_num_threads( 4 )
memory 2 gb

molecule MOL {
0 1

H	 2.890233	 -0.244633	 -0.959558
N	 2.433987	 -0.362316	 -0.080024
C	 1.263552	 0.494993	 0.021953
H	 3.100804	 -0.140935	 0.629681
C	 -0.016533	 -0.325589	 -0.026925
H	 1.280915	 1.180773	 -0.818522
H	 1.263064	 1.106893	 0.925038
C	 -1.280353	 0.525521	 0.047747
H	 -0.016686	 -0.912532	 -0.939714
H	 -0.014099	 -1.037598	 0.796369
C	 -2.560681	 -0.301323	 -0.007747
H	 -1.279957	 1.241025	 -0.770189
H	 -1.270445	 1.110526	 0.963468
H	 -2.617064	 -0.872870	 -0.928010
H	 -3.439525	 0.331102	 0.043462
H	 -2.609427	 -1.002736	 0.818585

	symmetry c1
}
set optking {
	frozen_dihedral = ("
		1 2 3 6
	")
}

ee = optimize('scf')
oeprop('DIPOLE', 'QUADRUPOLE', 'MULLIKEN_CHARGES')
f=open( 'psi4out.xyz', 'w' )
f.write( "16  " )
f.write( str(ee) + "\n" )
f.write( MOL.save_string_xyz() )
f.close()
--------------------------------------------------------------------------

    Molecular point group: c1
  Charge       = 0
  Multiplicity = 1
  Basis Set: CC-PVTZ
  Basis Set:
  @DF-RHF Final Energy:  -212.39660845377500
    Total Energy =                       -212.3966084537749452
    Molecular point group: c1
  Basis Set: CC-PVTZ
  Basis Set:
  Basis Set: CC-PVTZ
  Basis Set:
  @DF-RHF Final Energy:  -212.39735384173599
    Total Energy =                       -212.3973538417359350
  Basis Set: CC-PVTZ
  Basis Set:
  Basis Set: CC-PVTZ
  Basis Set:
  @DF-RHF Final Energy:  -212.39752466163421
    Total Energy =                       -212.3975246616342361
  Basis Set: CC-PVTZ
  Basis Set:
  Basis Set: CC-PVTZ
  Basis Set:
  @DF-RHF Final Energy:  -212.39752662755245
    Total Energy =                       -212.3975266275523381
  Basis Set: CC-PVTZ
  Basis Set:
  Charge       = 0
  Multiplicity = 1
  Basis Set: CC-PVTZ
  Basis Set:

    Orbital Energies (a.u.)
    -----------------------

    Doubly Occupied:

       1A    -15.525633     2A    -11.239034     3A    -11.210227
       4A    -11.203841     5A    -11.201820     6A     -1.175315
       7A     -1.058454     8A     -0.958923     9A     -0.842915
      10A     -0.787330    11A     -0.676826    12A     -0.623359
      13A     -0.611541    14A     -0.577791    15A     -0.551818
      16A     -0.533356    17A     -0.488123    18A     -0.476294
      19A     -0.465770    20A     -0.458977    21A     -0.380621

  @DF-RHF Final Energy:  -212.39752715029346

   => Energetics <=

    Nuclear Repulsion Energy =            186.0970862221158200
    One-Electron Energy =                -654.8932862986199552
    Two-Electron Energy =                 256.3986729262107360
    DFT Exchange-Correlation Energy =       0.0000000000000000
    Empirical Dispersion Energy =           0.0000000000000000
    PCM Polarization Energy =               0.0000000000000000
    EFP Energy =                            0.0000000000000000
    Total Energy =                       -212.3975271502933992
    Molecular point group: c1
  Basis Set: CC-PVTZ
  Basis Set:

  -Total Gradient:
     Atom            X                  Y                   Z
    ------   -----------------  -----------------  -----------------
       1        0.000636732639     0.000854300798     0.000471985812
       2       -0.000940306609    -0.001281622424    -0.000773604947
       3        0.000812865080     0.001098509029     0.000863614325
       4        0.000019157247     0.000005252674     0.000013334460
       5        0.000034454836     0.000015124822     0.000020239663
       6       -0.000531152901    -0.000694977980    -0.000607317223
       7       -0.000024401464    -0.000007745093     0.000004579423
       8       -0.000002186242     0.000001430134    -0.000000758541
       9        0.000009469318     0.000013088874     0.000005418686
      10       -0.000000333340    -0.000002090936     0.000004447297
      11       -0.000010024113     0.000005103286    -0.000000859944
      12        0.000002835545    -0.000000635145     0.000004772623
      13       -0.000002067534    -0.000004752182    -0.000002074852
      14        0.000001361523    -0.000000028269     0.000000022580
      15       -0.000007160698    -0.000004008485    -0.000003179932
      16        0.000000756707     0.000003050895    -0.000000619432

  **** Optimization is complete! (in 5 steps) ****
    Final optimized geometry and variables:
    Molecular point group: c1

    Geometry (in Angstrom), charge = 0, multiplicity = 1:

    H            2.930898404921    -0.241539221177    -0.920469232157
    N            2.444917299699    -0.363234597054    -0.059603151707
    C            1.258809118934     0.486804375495     0.018823343710
    H            3.090514611740    -0.161947386031     0.671407919504
    C           -0.024661674208    -0.333295485777    -0.019744831187
    H            1.241901341955     1.204765784861    -0.797151450460
    H            1.283765735127     1.066296285458     0.936114622618
    C           -1.287210384360     0.519259093757     0.055749400792
    H           -0.033119300802    -0.923804533149    -0.931857680482
    H           -0.006574000107    -1.043759854935     0.801263846465
    C           -2.569134691551    -0.306183976564     0.016459393657
    H           -1.294046835276     1.230578290035    -0.766353005519
    H           -1.270155124943     1.110799257236     0.967772966295
    H           -2.633989579489    -0.883024805774    -0.900052343137
    H           -3.447495556303     0.326810034634     0.071880108179
    H           -2.610179066638    -1.003118098587     0.846785564174

  Mulliken Charges: (a.u.)
   Center  Symbol    Alpha    Beta     Spin     Total
       1     H     0.42739  0.42739  0.00000  0.14521
       2     N     3.69570  3.69570  0.00000 -0.39140
       3     C     3.04565  3.04565  0.00000 -0.09130
       4     H     0.42599  0.42599  0.00000  0.14803
       5     C     3.06191  3.06191  0.00000 -0.12381
       6     H     0.45946  0.45946  0.00000  0.08108
       7     H     0.45709  0.45709  0.00000  0.08582
       8     C     3.09161  3.09161  0.00000 -0.18322
       9     H     0.45795  0.45795  0.00000  0.08410
      10     H     0.45577  0.45577  0.00000  0.08846
      11     C     3.14892  3.14892  0.00000 -0.29784
      12     H     0.45692  0.45692  0.00000  0.08616
      13     H     0.45677  0.45677  0.00000  0.08647
      14     H     0.45487  0.45487  0.00000  0.09026
      15     H     0.44939  0.44939  0.00000  0.10122
      16     H     0.45461  0.45461  0.00000  0.09078

   Total alpha = 21.00000, Total beta = 21.00000, Total charge = -0.00000
