                              Psi4 1.0.54 Driver

  ==> Input File <==

--------------------------------------------------------------------------
set {
	reference rhf
	basis cc-pvtz
}

set_num_threads( 4 )
memory 2 gb

molecule MOL {
0 1

H	 1.691741	 -3.002093	 -1.968378
O	 2.508917	 -2.645406	 -2.263045
C	 2.296218	 -1.765272	 -3.335144
C	 1.661243	 -0.446412	 -2.920294
H	 3.272350	 -1.578418	 -3.762032
H	 1.694137	 -2.243767	 -4.105203
C	 0.238563	 -0.577416	 -2.381155
H	 2.294254	 0.021506	 -2.172292
H	 1.658365	 0.210222	 -3.787024
C	 -0.377808	 0.769536	 -2.006129
H	 0.242710	 -1.227269	 -1.512434
H	 -0.387352	 -1.059874	 -3.129988
C	 -1.829915	 0.705419	 -1.529129
H	 0.231708	 1.239497	 -1.238111
H	 -0.329619	 1.424031	 -2.872029
C	 -2.041121	 -0.006551	 -0.194127
H	 -2.205170	 1.721336	 -1.441817
H	 -2.437252	 0.224893	 -2.292931
C	 -3.489218	 0.042606	 0.286507
H	 -1.399291	 0.446394	 0.558444
H	 -1.733200	 -1.044911	 -0.271562
C	 -4.219984	 1.311773	 -0.139038
H	 -4.022855	 -0.824300	 -0.093339
H	 -3.510372	 -0.038577	 1.370031
H	 -4.244251	 1.405725	 -1.219696
H	 -5.244345	 1.313233	 0.215630
H	 -3.732090	 2.196311	 0.257073

	symmetry c1
}
set optking {
	frozen_dihedral = ("
		20 16 19 22
	")
}

ee,wfn = optimize('scf', return_wfn=True)
oeprop( wfn, 'DIPOLE', 'QUADRUPOLE', 'MULLIKEN_CHARGES')
f=open( 'psi4out.xyz', 'w' )
f.write( "27  " )
f.write( str(ee) + "\n" )
f.write( MOL.save_string_xyz() )
f.close()
--------------------------------------------------------------------------

    Molecular point group: c1
  Charge       = 0
  Multiplicity = 1
  Basis Set: CC-PVTZ
  Basis Set:
  @DF-RHF Final Energy:  -388.41915484474447
    Total Energy =                       -388.4191548447447531
    Molecular point group: c1
  Basis Set: CC-PVTZ
  Basis Set:
  Basis Set: CC-PVTZ
  Basis Set:
  @DF-RHF Final Energy:  -388.33885186767793
    Total Energy =                       -388.3388518676781587
  Basis Set: CC-PVTZ
  Basis Set:
  Basis Set: CC-PVTZ
  Basis Set:
  @DF-RHF Final Energy:  -388.41176175821965
    Total Energy =                       -388.4117617582193134
  Basis Set: CC-PVTZ
  Basis Set:
  Basis Set: CC-PVTZ
  Basis Set:
  @DF-RHF Final Energy:  -388.42163791845371
    Total Energy =                       -388.4216379184538255
  Basis Set: CC-PVTZ
  Basis Set:
  Basis Set: CC-PVTZ
  Basis Set:
  @DF-RHF Final Energy:  -388.42219205733261
    Total Energy =                       -388.4221920573322677
  Basis Set: CC-PVTZ
  Basis Set:
  Basis Set: CC-PVTZ
  Basis Set:
  @DF-RHF Final Energy:  -388.42212483641367
    Total Energy =                       -388.4221248364135590
  Basis Set: CC-PVTZ
  Basis Set:
  Basis Set: CC-PVTZ
  Basis Set:
  @DF-RHF Final Energy:  -388.42222644411447
    Total Energy =                       -388.4222264441149264
  Basis Set: CC-PVTZ
  Basis Set:
  Charge       = 0
  Multiplicity = 1
  Basis Set: CC-PVTZ
  Basis Set:

    Orbital Energies (a.u.)
    -----------------------

    Doubly Occupied:

       1A    -20.545356     2A    -11.264989     3A    -11.216649
       4A    -11.214737     5A    -11.214571     6A    -11.213214
       7A    -11.213168     8A    -11.211963     9A    -11.206547
      10A     -1.363244    11A     -1.095462    12A     -1.060643
      13A     -1.010085    14A     -0.947185    15A     -0.895951
      16A     -0.830687    17A     -0.798065    18A     -0.766246
      19A     -0.696294    20A     -0.647479    21A     -0.636591
      22A     -0.616485    23A     -0.609133    24A     -0.588779
      25A     -0.580253    26A     -0.555513    27A     -0.537754
      28A     -0.527707    29A     -0.508611    30A     -0.501039
      31A     -0.485487    32A     -0.475917    33A     -0.468404
      34A     -0.452332    35A     -0.449125    36A     -0.442342
      37A     -0.426045

  @DF-RHF Final Energy:  -388.42222700152149

   => Energetics <=

    Nuclear Repulsion Energy =            462.5878103379142203
    One-Electron Energy =               -1443.4719777594589232
    Two-Electron Energy =                 592.4619404200229837
    DFT Exchange-Correlation Energy =       0.0000000000000000
    Empirical Dispersion Energy =           0.0000000000000000
    PCM Polarization Energy =               0.0000000000000000
    EFP Energy =                            0.0000000000000000
    Total Energy =                       -388.4222270015217191
    Molecular point group: c1
  Basis Set: CC-PVTZ
  Basis Set:

  -Total Gradient:
     Atom            X                  Y                   Z
    ------   -----------------  -----------------  -----------------
       1        0.000014164808     0.000002107065    -0.000011856369
       2       -0.000013787433    -0.000008499197     0.000025633338
       3        0.000001197219     0.000014152224    -0.000024219474
       4        0.000001025946     0.000000072536    -0.000003509987
       5        0.000001536524    -0.000002193475    -0.000003298666
       6        0.000000331673    -0.000000906631     0.000008450162
       7       -0.000020608744     0.000018269494     0.000015964232
       8        0.000000738769    -0.000008896018    -0.000003206209
       9        0.000001420244     0.000005182175     0.000003907762
      10       -0.000002268017    -0.000023228276    -0.000016773995
      11       -0.000011602222    -0.000007897103     0.000015594923
      12        0.000008433835     0.000004703285     0.000005381846
      13       -0.000012430175     0.000015094679    -0.000000011888
      14        0.000003913549    -0.000001066065     0.000000204814
      15       -0.000004808847    -0.000005131721     0.000001358157
      16       -0.004206731477     0.003955653837    -0.004903952079
      17       -0.000007420824    -0.000002451644    -0.000004359773
      18        0.000016598608     0.000003793488    -0.000004184871
      19        0.002045128414     0.003090342787     0.005409613943
      20        0.003093796939    -0.004230863171     0.002784022772
      21        0.000019901731     0.000004296870    -0.000004839726
      22       -0.000927882821    -0.002824635258    -0.003280191569
      23        0.000000808442    -0.000000932730     0.000013997073
      24        0.000007121025    -0.000006939555    -0.000012243486
      25        0.000005089435     0.000012790541    -0.000009007960
      26        0.000000747466     0.000003670637    -0.000016918859
      27       -0.000014414070    -0.000006488775     0.000014445886

  **** Optimization is complete! (in 8 steps) ****
    Final optimized geometry and variables:
    Molecular point group: c1

    Geometry (in Angstrom), charge = 0, multiplicity = 1:

    H            2.876073929564    -1.935769049249    -0.436701902671
    O            3.507629029240    -1.413922567717    -0.895350945527
    C            2.914404323907    -0.801294132614    -2.009807434987
    C            1.973022439157     0.337219688389    -1.646443759036
    H            3.731453016547    -0.418846576595    -2.606574928997
    H            2.391611824924    -1.539495260115    -2.614855746859
    C            0.732832557599    -0.098103701621    -0.869009570074
    H            2.526626753861     1.072247049605    -1.070024755726
    H            1.666873188456     0.824799467269    -2.568878464877
    C           -0.209214306964     1.065087305095    -0.561481950633
    H            1.039124810564    -0.572797898980     0.056903549300
    H            0.194225579666    -0.850053750397    -1.443050702865
    C           -1.510656807127     0.680858045121     0.147080796039
    H            0.318829946147     1.804902559183     0.035214297016
    H           -0.462243311268     1.556996374920    -1.496521680715
    C           -1.326736674282     0.204759688611     1.585818237594
    H           -2.165978181456     1.544300944075     0.134866915629
    H           -2.015933934726    -0.091148462419    -0.429585571167
    C           -2.601406070276    -0.242986489614     2.323865892832
    H           -0.815663570701     0.965169171422     2.171562013016
    H           -0.644716450171    -0.639547510008     1.594515219747
    C           -3.876158689640     0.535717633373     2.005460284625
    H           -2.787947948879    -1.287358474969     2.088275003461
    H           -2.412823752475    -0.208507215027     3.391360466065
    H           -4.166014304958     0.423572588422     0.968513225022
    H           -4.697257978045     0.176353874847     2.615252975334
    H           -3.761631737398     1.596707959469     2.204696366858

  Mulliken Charges: (a.u.)
   Center  Symbol    Alpha    Beta     Spin     Total
       1     H     0.39229  0.39229  0.00000  0.21543
       2     O     4.20551  4.20551  0.00000 -0.41102
       3     C     2.98000  2.98000  0.00000  0.04000
       4     C     3.08934  3.08934  0.00000 -0.17867
       5     H     0.44857  0.44857  0.00000  0.10286
       6     H     0.46966  0.46966  0.00000  0.06069
       7     C     3.10228  3.10228  0.00000 -0.20457
       8     H     0.45073  0.45073  0.00000  0.09854
       9     H     0.45532  0.45532  0.00000  0.08936
      10     C     3.09933  3.09933  0.00000 -0.19866
      11     H     0.45572  0.45572  0.00000  0.08857
      12     H     0.45407  0.45407  0.00000  0.09186
      13     C     3.10103  3.10103  0.00000 -0.20207
      14     H     0.45159  0.45159  0.00000  0.09683
      15     H     0.44792  0.44792  0.00000  0.10417
      16     C     3.09672  3.09672  0.00000 -0.19344
      17     H     0.44331  0.44331  0.00000  0.11338
      18     H     0.45298  0.45298  0.00000  0.09404
      19     C     3.08649  3.08649  0.00000 -0.17299
      20     H     0.45167  0.45167  0.00000  0.09665
      21     H     0.45273  0.45273  0.00000  0.09454
      22     C     3.15743  3.15743  0.00000 -0.31486
      23     H     0.45493  0.45493  0.00000  0.09015
      24     H     0.44913  0.44913  0.00000  0.10175
      25     H     0.45189  0.45189  0.00000  0.09622
      26     H     0.44530  0.44530  0.00000  0.10939
      27     H     0.45407  0.45407  0.00000  0.09187

   Total alpha = 37.00000, Total beta = 37.00000, Total charge = -0.00000

*** Psi4 exiting successfully. Buy a developer a beer!
