  ==> Input File <==

--------------------------------------------------------------------------
set {
	reference rhf
	basis cc-pvtz
}

set_num_threads( 4 )
memory 2 gb

molecule MOL {
0 1

H	 -2.810273	 0.405652	 -0.126942
N	 -1.842531	 0.510092	 0.091318
C	 -1.074374	 0.844996	 -1.093552
H	 -1.523740	 -0.355762	 0.471668
C	 0.390772	 0.990448	 -0.751733
H	 -1.169379	 0.111488	 -1.893230
H	 -1.428108	 1.794651	 -1.479659
O	 0.881195	 -0.248324	 -0.336237
H	 0.941421	 1.336859	 -1.625207
H	 0.509968	 1.726250	 0.040301
C	 2.208068	 -0.234417	 0.074171
H	 2.725499	 -1.027054	 -0.446768
H	 2.688377	 0.712084	 -0.164856
H	 2.295137	 -0.403407	 1.144883

	symmetry c1
}
set optking {
	frozen_dihedral = ("
		5 8 11 13
	")
}

ee = optimize('scf')
oeprop('DIPOLE', 'QUADRUPOLE', 'MULLIKEN_CHARGES')
f=open( 'psi4out.xyz', 'w' )
f.write( "14  " )
f.write( str(ee) + "\n" )
f.write( MOL.save_string_xyz() )
f.close()
--------------------------------------------------------------------------

    Molecular point group: c1
  Charge       = 0
  Multiplicity = 1
  Basis Set: CC-PVTZ
  Basis Set:
  @DF-RHF Final Energy:  -248.22247309246850
    Total Energy =                       -248.2224730924685332
    Molecular point group: c1
  Basis Set: CC-PVTZ
  Basis Set:
  Basis Set: CC-PVTZ
  Basis Set:
  @DF-RHF Final Energy:  -248.22274132096362
    Total Energy =                       -248.2227413209637916
  Basis Set: CC-PVTZ
  Basis Set:
  Basis Set: CC-PVTZ
  Basis Set:
  @DF-RHF Final Energy:  -248.22282267589645
    Total Energy =                       -248.2228226758967367
  Basis Set: CC-PVTZ
  Basis Set:
  Charge       = 0
  Multiplicity = 1
  Basis Set: CC-PVTZ
  Basis Set:

    Orbital Energies (a.u.)
    -----------------------

    Doubly Occupied:

       1A    -20.547372     2A    -15.523129     3A    -11.264400
       4A    -11.263248     5A    -11.239382     6A     -1.379951
       7A     -1.175564     8A     -1.000374     9A     -0.907874
      10A     -0.815364    11A     -0.684095    12A     -0.673481
      13A     -0.645107    14A     -0.611214    15A     -0.607693
      16A     -0.540618    17A     -0.535868    18A     -0.497245
      19A     -0.473581    20A     -0.414811    21A     -0.383524

  @DF-RHF Final Energy:  -248.22282322754410

   => Energetics <=

    Nuclear Repulsion Energy =            194.4156723531839930
    One-Electron Energy =                -722.9092009439167441
    Two-Electron Energy =                 280.2707053631885401
    DFT Exchange-Correlation Energy =       0.0000000000000000
    Empirical Dispersion Energy =           0.0000000000000000
    PCM Polarization Energy =               0.0000000000000000
    EFP Energy =                            0.0000000000000000
    Total Energy =                       -248.2228232275441542
    Molecular point group: c1
  Basis Set: CC-PVTZ
  Basis Set:

  -Total Gradient:
     Atom            X                  Y                   Z
    ------   -----------------  -----------------  -----------------
       1        0.000009181748     0.000007063647    -0.000014793780
       2        0.000022180225     0.000004528943    -0.000013544481
       3       -0.000032555266     0.000025935723    -0.000018085659
       4        0.000008266793     0.000006381201    -0.000004832856
       5        0.000256508092    -0.000213540642    -0.001019677741
       6       -0.000001846350     0.000004122992     0.000015128683
       7       -0.000038809534     0.000011395082    -0.000011702521
       8       -0.000411168927     0.000479383643     0.001914893748
       9       -0.000002513620    -0.000026670222     0.000019222177
      10        0.000009158916     0.000001228450    -0.000010378472
      11        0.000583807133    -0.000828494195    -0.002107083595
      12        0.000024594396    -0.000008821772    -0.000000757998
      13       -0.000416315474     0.000527418422     0.001242212673
      14       -0.000010488134     0.000010068724     0.000009399822

  **** Optimization is complete! (in 4 steps) ****
    Final optimized geometry and variables:
    Molecular point group: c1

    Geometry (in Angstrom), charge = 0, multiplicity = 1:

    H           -2.926553874242     0.032495778205     0.272973370182
    N           -1.959022586402     0.145218960668     0.487937583840
    C           -1.198037641972     0.487520814638    -0.699341777994
    H           -1.631306743866    -0.718360411573     0.865797602816
    C            0.266747879009     0.647380055848    -0.362593097309
    H           -1.288205776182    -0.247283923455    -1.498393304219
    H           -1.562166778237     1.433659321417    -1.084782019762
    O            0.766465525494    -0.589282609683     0.052489871075
    H            0.809628890551     0.996415507543    -1.239025615689
    H            0.378667667623     1.386503718808     0.426765971469
    C            2.098276287039    -0.605728477847     0.465750114080
    H            2.619248732429    -1.413674929976    -0.032610483845
    H            2.603481046290     0.326964964555     0.237442727924
    H            2.157080116421    -0.762865506414     1.537873522952

  Mulliken Charges: (a.u.)
   Center  Symbol    Alpha    Beta     Spin     Total
       1     H     0.43035  0.43035  0.00000  0.13931
       2     N     3.69426  3.69426  0.00000 -0.38853
       3     C     3.02427  3.02427  0.00000 -0.04853
       4     H     0.42220  0.42220  0.00000  0.15560
       5     C     2.96737  2.96737  0.00000  0.06525
       6     H     0.46486  0.46486  0.00000  0.07028
       7     H     0.45875  0.45875  0.00000  0.08249
       8     O     4.18442  4.18442  0.00000 -0.36883
       9     H     0.46958  0.46958  0.00000  0.06084
      10     H     0.46926  0.46926  0.00000  0.06148
      11     C     3.02741  3.02741  0.00000 -0.05483
      12     H     0.45616  0.45616  0.00000  0.08769
      13     H     0.47166  0.47166  0.00000  0.05669
      14     H     0.45946  0.45946  0.00000  0.08109

   Total alpha = 21.00000, Total beta = 21.00000, Total charge =  0.00000
