  ==> Input File <==

--------------------------------------------------------------------------
set {
	reference rhf
	basis 6-31G*
}

set_num_threads( 4 )
memory 2 gb

molecule MOL {
0 1

H	 -2.519486	 -0.240903	 0.551868
N	 -1.852125	 0.165761	 -0.074816
C	 -0.563778	 -0.502042	 0.037919
H	 -1.769963	 1.132499	 0.177020
C	 0.575259	 0.508231	 -0.048326
H	 -0.482092	 -1.204004	 -0.786564
H	 -0.460411	 -1.085169	 0.956626
C	 1.954651	 -0.143624	 0.035137
H	 0.475158	 1.060484	 -0.977307
H	 0.469181	 1.234488	 0.755973
H	 2.103292	 -0.853109	 -0.774172
H	 2.742821	 0.599562	 -0.030094
H	 2.083613	 -0.679371	 0.971560

	symmetry c1
}
set optking {
	frozen_dihedral = ("
		1 2 3 6
	")
}

ee = optimize('scf')
oeprop('DIPOLE', 'QUADRUPOLE', 'MULLIKEN_CHARGES')
f=open( 'psi4out.xyz', 'w' )
f.write( "13  " )
f.write( str(ee) + "\n" )
f.write( MOL.save_string_xyz() )
f.close()
--------------------------------------------------------------------------

    Molecular point group: c1
  Charge       = 0
  Multiplicity = 1
  Basis Set: 6-31G*
  Basis Set:
  @DF-RHF Final Energy:  -173.27862128305838
    Total Energy =                       -173.2786212830583850
    Molecular point group: c1
  Basis Set: 6-31G*
  Basis Set:
  Basis Set: 6-31G*
  Basis Set:
  @DF-RHF Final Energy:  -173.27888121697714
    Total Energy =                       -173.2788812169771404
  Basis Set: 6-31G*
  Basis Set:
  Basis Set: 6-31G*
  Basis Set:
  @DF-RHF Final Energy:  -173.27894799060448
    Total Energy =                       -173.2789479906043937
  Basis Set: 6-31G*
  Basis Set:
  Basis Set: 6-31G*
  Basis Set:
  @DF-RHF Final Energy:  -173.27894941187293
    Total Energy =                       -173.2789494118728157
  Basis Set: 6-31G*
  Basis Set:
  Charge       = 0
  Multiplicity = 1
  Basis Set: 6-31G*
  Basis Set:

    Orbital Energies (a.u.)
    -----------------------

    Doubly Occupied:

       1A    -15.530922     2A    -11.239911     3A    -11.218685
       4A    -11.212605     5A     -1.175229     6A     -1.038202
       7A     -0.900095     8A     -0.806276     9A     -0.651819
      10A     -0.637173    11A     -0.603714    12A     -0.557404
      13A     -0.544318    14A     -0.496385    15A     -0.480232
      16A     -0.469888    17A     -0.379791

  @DF-RHF Final Energy:  -173.27894985720238

   => Energetics <=

    Nuclear Repulsion Energy =            131.8056087336089206
    One-Electron Energy =                -494.2838204960518169
    Two-Electron Energy =                 189.1992619052404621
    DFT Exchange-Correlation Energy =       0.0000000000000000
    Empirical Dispersion Energy =           0.0000000000000000
    PCM Polarization Energy =               0.0000000000000000
    EFP Energy =                            0.0000000000000000
    Total Energy =                       -173.2789498572024627
    Molecular point group: c1
  Basis Set: 6-31G*
  Basis Set:

  -Total Gradient:
     Atom            X                  Y                   Z
    ------   -----------------  -----------------  -----------------
       1        0.000783726768     0.002143257694     0.002259813662
       2       -0.000726722867    -0.002162316461    -0.003198490283
       3       -0.001352872262    -0.001999995185     0.002625306943
       4       -0.000012572249     0.000003380985    -0.000010817413
       5       -0.000006936020    -0.000035675872    -0.000011919661
       6        0.001253791256     0.002076154415    -0.001656533008
       7        0.000034234003    -0.000014790240    -0.000006690050
       8        0.000027285772     0.000004055413     0.000009926392
       9       -0.000004582270    -0.000005335374    -0.000005288962
      10       -0.000012872151    -0.000008513215    -0.000012147703
      11       -0.000005539169     0.000006230996     0.000004622841
      12        0.000017655843    -0.000002282756     0.000006770832
      13        0.000005403344    -0.000004170400    -0.000004553592

  **** Optimization is complete! (in 5 steps) ****
    Final optimized geometry and variables:
    Molecular point group: c1

    Geometry (in Angstrom), charge = 0, multiplicity = 1:

    H           -2.548058278636    -0.252415040284     0.515920860929
    N           -1.867220296266     0.146407192989    -0.099920092040
    C           -0.567951079559    -0.505960553750     0.057216546385
    H           -1.803624156316     1.113642506898     0.153462713700
    C            0.575861944622     0.501707490722    -0.029503662605
    H           -0.442078353720    -1.227313160800    -0.745306195484
    H           -0.491882153231    -1.050792967090     0.997598671912
    C            1.953263967908    -0.157227665841     0.017853663072
    H            0.470738638181     1.067252846617    -0.952143505041
    H            0.486377100290     1.216300424579     0.787047603573
    H            2.085352261970    -0.848811060939    -0.808931115951
    H            2.743289835846     0.584291891700    -0.042358104677
    H            2.092325175122    -0.713664887518     0.940480761624

  Mulliken Charges: (a.u.)
   Center  Symbol    Alpha    Beta     Spin     Total
       1     H     0.33301  0.33301  0.00000  0.33398
       2     N     3.92704  3.92704  0.00000 -0.85408
       3     C     3.04758  3.04758  0.00000 -0.09517
       4     H     0.33394  0.33394  0.00000  0.33212
       5     C     3.16636  3.16636  0.00000 -0.33272
       6     H     0.42031  0.42031  0.00000  0.15938
       7     H     0.43168  0.43168  0.00000  0.13665
       8     C     3.24234  3.24234  0.00000 -0.48468
       9     H     0.41477  0.41477  0.00000  0.17046
      10     H     0.42561  0.42561  0.00000  0.14878
      11     H     0.41883  0.41883  0.00000  0.16234
      12     H     0.41732  0.41732  0.00000  0.16535
      13     H     0.42121  0.42121  0.00000  0.15758

   Total alpha = 17.00000, Total beta = 17.00000, Total charge = -0.00000
