  ==> Input File <==

--------------------------------------------------------------------------
set {
	reference rhf
	basis 6-31G*
}

set_num_threads( 4 )
memory 2 gb

molecule MOL {
0 1

H	 2.652209	 0.763231	 0.000000
O	 2.263154	 -0.100023	 0.000000
C	 0.912879	 -0.015685	 0.000000
C	 0.313002	 0.639338	 1.067555
C	 0.134656	 -0.552744	 -1.012433
H	 0.934627	 1.048567	 1.842102
C	 -1.063056	 0.751079	 1.112142
H	 0.600733	 -1.060718	 -1.840235
C	 -1.246255	 -0.433205	 -0.954888
H	 -1.522828	 1.259278	 1.941014
C	 -1.854047	 0.216865	 0.103250
H	 -1.843162	 -0.852955	 -1.744952
H	 -2.923991	 0.307732	 0.144805

	symmetry c1
}
set optking {
	frozen_dihedral = ("
		4 3 2 1
	")
}

ee = optimize('scf')
oeprop('DIPOLE', 'QUADRUPOLE', 'MULLIKEN_CHARGES')
f=open( 'psi4out.xyz', 'w' )
f.write( "13  " )
f.write( str(ee) + "\n" )
f.write( MOL.save_string_xyz() )
f.close()
--------------------------------------------------------------------------

    Molecular point group: c1
  Charge       = 0
  Multiplicity = 1
  Basis Set: 6-31G*
  Basis Set:
  @DF-RHF Final Energy:  -305.55297067712496
    Total Energy =                       -305.5529706771249039
    Molecular point group: c1
  Basis Set: 6-31G*
  Basis Set:
  Basis Set: 6-31G*
  Basis Set:
  @DF-RHF Final Energy:  -305.55432083601215
    Total Energy =                       -305.5543208360123231
  Basis Set: 6-31G*
  Basis Set:
  Basis Set: 6-31G*
  Basis Set:
  @DF-RHF Final Energy:  -305.55441053827263
    Total Energy =                       -305.5544105382726912
  Basis Set: 6-31G*
  Basis Set:
  Basis Set: 6-31G*
  Basis Set:
  @DF-RHF Final Energy:  -305.55442048806862
    Total Energy =                       -305.5544204880686721
  Basis Set: 6-31G*
  Basis Set:
  Charge       = 0
  Multiplicity = 1
  Basis Set: 6-31G*
  Basis Set:

    Orbital Energies (a.u.)
    -----------------------

    Doubly Occupied:

       1A    -20.579907     2A    -11.290912     3A    -11.235436
       4A    -11.234276     5A    -11.227748     6A    -11.226219
       7A    -11.224601     8A     -1.395607     9A     -1.147465
      10A     -1.018035    11A     -1.003640    12A     -0.837978
      13A     -0.822739    14A     -0.732892    15A     -0.680842
      16A     -0.646272    17A     -0.623773    18A     -0.592157
      19A     -0.588427    20A     -0.528590    21A     -0.513414
      22A     -0.491687    23A     -0.470172    24A     -0.336843
      25A     -0.319897

  @DF-RHF Final Energy:  -305.55442245810781

   => Energetics <=

    Nuclear Repulsion Energy =            272.7566229180993673
    One-Electron Energy =                -955.0830280863156077
    Two-Electron Energy =                 376.7719827101082046
    DFT Exchange-Correlation Energy =       0.0000000000000000
    Empirical Dispersion Energy =           0.0000000000000000
    PCM Polarization Energy =               0.0000000000000000
    EFP Energy =                            0.0000000000000000
    Total Energy =                       -305.5544224581080925
    Molecular point group: c1
  Basis Set: 6-31G*
  Basis Set:

  -Total Gradient:
     Atom            X                  Y                   Z
    ------   -----------------  -----------------  -----------------
       1       -0.000083733445     0.000073215202    -0.002051966495
       2        0.000126797360    -0.000789489652     0.002932379137
       3       -0.000063088924     0.001939235228    -0.001756716541
       4       -0.000055140828    -0.001296244104     0.000802261296
       5        0.000170415597     0.000006362463     0.000020370236
       6       -0.000052183343    -0.000008232593    -0.000022467530
       7        0.000048771990     0.000040391588    -0.000005374841
       8        0.000059154463     0.000004495735     0.000015144609
       9       -0.000135058367     0.000083434699     0.000053258453
      10       -0.000051025623    -0.000009603538     0.000002882706
      11        0.000013466334    -0.000076173907    -0.000069433531
      12        0.000022640276     0.000004151622     0.000017259879
      13       -0.000001015491     0.000028457255     0.000062402624

  **** Optimization is complete! (in 5 steps) ****
    Final optimized geometry and variables:
    Molecular point group: c1

    Geometry (in Angstrom), charge = 0, multiplicity = 1:

    H            2.690207767347     0.631742770962    -0.075122057241
    O            2.263002351429    -0.213823570896    -0.087311016594
    C            0.905738667953    -0.061193048020    -0.036293691925
    C            0.298880711266     0.576091820839     1.034591068276
    C            0.137736421153    -0.612425208786    -1.047626646421
    H            0.906099475763     0.977462014513     1.826639138612
    C           -1.081646366422     0.681004975167     1.077579330336
    H            0.629922677298    -1.111923329876    -1.861447683863
    C           -1.242994173224    -0.514124155451    -0.990235848693
    H           -1.549961395639     1.179920139449     1.907307004924
    C           -1.858461366364     0.136077428139     0.067620066994
    H           -1.837592152539    -0.943538320615    -1.776744360585
    H           -2.929888696042     0.213830573304     0.107287893515

  Mulliken Charges: (a.u.)
   Center  Symbol    Alpha    Beta     Spin     Total
       1     H     0.27208  0.27208  0.00000  0.45583
       2     O     4.38538  4.38538  0.00000 -0.77075
       3     C     2.81339  2.81339  0.00000  0.37322
       4     C     3.12651  3.12651  0.00000 -0.25302
       5     C     3.11796  3.11796  0.00000 -0.23591
       6     H     0.39834  0.39834  0.00000  0.20333
       7     C     3.09517  3.09517  0.00000 -0.19034
       8     H     0.39238  0.39238  0.00000  0.21524
       9     C     3.09552  3.09552  0.00000 -0.19104
      10     H     0.39821  0.39821  0.00000  0.20358
      11     C     3.10728  3.10728  0.00000 -0.21455
      12     H     0.39800  0.39800  0.00000  0.20400
      13     H     0.39979  0.39979  0.00000  0.20042

   Total alpha = 25.00000, Total beta = 25.00000, Total charge =  0.00000
