  ==> Input File <==

--------------------------------------------------------------------------
set {
	reference rhf
	basis 6-31G*
}

set_num_threads( 1 )
memory 2 gb

molecule MOL {
0 1

H	 2.816513	 -0.451921	 -0.309399
O	 2.016064	 -0.864478	 0.000222
C	 1.050492	 0.053836	 0.000068
C	 -0.318135	 -0.576402	 0.000164
O	 1.285279	 1.218255	 -0.000078
C	 -1.454360	 0.441875	 -0.000474
H	 -0.374042	 -1.230163	 -0.866135
H	 -0.374274	 -1.229227	 0.867154
C	 -2.826123	 -0.230780	 0.000056
H	 -1.357605	 1.085198	 -0.868380
H	 -1.357504	 1.086451	 0.866496
H	 -2.959731	 -0.858053	 -0.876869
H	 -3.619374	 0.509403	 -0.000080
H	 -2.959371	 -0.857318	 0.877556

	symmetry c1
}
set optking {
	frozen_dihedral = ("
		7 4 6 10,
		2 3 4 7
	")
}

ee = energy('scf')
oeprop('DIPOLE', 'QUADRUPOLE', 'MULLIKEN_CHARGES')
f=open( 'psi4out.xyz', 'w' )
f.write( "14  " )
f.write( str(ee) + "\n" )
f.write( MOL.save_string_xyz() )
f.close()
--------------------------------------------------------------------------

    Molecular point group: c1

    Geometry (in Angstrom), charge = 0, multiplicity = 1:

       Center              X                  Y                   Z               Mass
    ------------   -----------------  -----------------  -----------------  -----------------
           H          2.816943443238    -0.451468159482    -0.305855556508     1.007825032070
           O          2.016494443238    -0.864025159482     0.003765443492    15.994914619560
           C          1.050922443238     0.054288840518     0.003611443492    12.000000000000
           C         -0.317704556762    -0.575949159482     0.003707443492    12.000000000000
           O          1.285709443238     1.218707840518     0.003465443492    15.994914619560
           C         -1.453929556762     0.442327840518     0.003069443492    12.000000000000
           H         -0.373611556762    -1.229710159482    -0.862591556508     1.007825032070
           H         -0.373843556762    -1.228774159482     0.870697443492     1.007825032070
           C         -2.825692556762    -0.230327159482     0.003599443492    12.000000000000
           H         -1.357174556762     1.085650840518    -0.864836556508     1.007825032070
           H         -1.357073556762     1.086903840518     0.870039443492     1.007825032070
           H         -2.959300556762    -0.857600159482    -0.873325556508     1.007825032070
           H         -3.618943556762     0.509855840518     0.003463443492     1.007825032070
           H         -2.958940556762    -0.856865159482     0.881099443492     1.007825032070

  Charge       = 0
  Multiplicity = 1
  Basis Set: 6-31G*
  Basis Set:

    Orbital Energies (a.u.)
    -----------------------

    Doubly Occupied:

       1A    -20.611506     2A    -20.552877     3A    -11.381618
       4A    -11.241229     5A    -11.225511     6A    -11.217101
       7A     -1.474615     8A     -1.366418     9A     -1.083030
      10A     -0.979351    11A     -0.856922    12A     -0.791622
      13A     -0.700905    14A     -0.688492    15A     -0.667109
      16A     -0.619406    17A     -0.588997    18A     -0.572222
      19A     -0.545197    20A     -0.505115    21A     -0.491992
      22A     -0.482458    23A     -0.478731    24A     -0.444664

  @DF-RHF Final Energy:  -305.87832729462184

   => Energetics <=

    Nuclear Repulsion Energy =            239.9646033855231906
    One-Electron Energy =                -892.5517540564565024
    Two-Electron Energy =                 346.7088233763109884
    DFT Exchange-Correlation Energy =       0.0000000000000000
    Empirical Dispersion Energy =           0.0000000000000000
    PCM Polarization Energy =               0.0000000000000000
    EFP Energy =                            0.0000000000000000
    Total Energy =                       -305.8783272946222951

  Mulliken Charges: (a.u.)
   Center  Symbol    Alpha    Beta     Spin     Total
       1     H     0.26731  0.26731  0.00000  0.46539
       2     O     4.35184  4.35184  0.00000 -0.70368
       3     C     2.62479  2.62479  0.00000  0.75043
       4     C     3.20919  3.20919  0.00000 -0.41838
       5     O     4.27653  4.27653  0.00000 -0.55306
       6     C     3.15251  3.15251  0.00000 -0.30502
       7     H     0.39980  0.39980  0.00000  0.20039
       8     H     0.39848  0.39848  0.00000  0.20304
       9     C     3.24289  3.24289  0.00000 -0.48577
      10     H     0.41063  0.41063  0.00000  0.17875
      11     H     0.40978  0.40978  0.00000  0.18044
      12     H     0.42109  0.42109  0.00000  0.15783
      13     H     0.41448  0.41448  0.00000  0.17103
      14     H     0.42069  0.42069  0.00000  0.15863

   Total alpha = 24.00000, Total beta = 24.00000, Total charge =  0.00000
