  ==> Input File <==

--------------------------------------------------------------------------
set {
	reference rhf
	basis 6-31G*
}

set_num_threads( 4 )
memory 2 gb

molecule MOL {
0 1

H	 3.587555	 -0.228322	 0.802147
N	 3.092854	 -0.246221	 -0.068770
C	 1.865559	 0.531981	 0.018834
H	 2.885910	 -1.207345	 -0.264331
C	 0.645745	 -0.382037	 -0.029944
H	 1.841966	 1.207024	 -0.831236
H	 1.815756	 1.155410	 0.915079
C	 -0.679275	 0.379305	 0.025956
H	 0.698998	 -0.976915	 -0.937203
H	 0.693479	 -1.083846	 0.802235
C	 -1.903357	 -0.536963	 -0.023547
H	 -0.726309	 1.082987	 -0.803784
H	 -0.717680	 0.977832	 0.934877
C	 -3.225172	 0.228290	 0.028445
H	 -1.867824	 -1.134999	 -0.931459
H	 -1.860449	 -1.239604	 0.805977
H	 -3.313397	 0.915643	 -0.808262
H	 -4.073500	 -0.448134	 -0.008893
H	 -3.306061	 0.809945	 0.942516

	symmetry c1
}
set optking {
	frozen_dihedral = ("
		1 2 3 6
	")
}

ee = optimize('scf')
oeprop('DIPOLE', 'QUADRUPOLE', 'MULLIKEN_CHARGES')
f=open( 'psi4out.xyz', 'w' )
f.write( "19  " )
f.write( str(ee) + "\n" )
f.write( MOL.save_string_xyz() )
f.close()
--------------------------------------------------------------------------

    Molecular point group: c1
  Charge       = 0
  Multiplicity = 1
  Basis Set: 6-31G*
  Basis Set:
  @DF-RHF Final Energy:  -251.34645224389922
    Total Energy =                       -251.3464522438990798
    Molecular point group: c1
  Basis Set: 6-31G*
  Basis Set:
  Basis Set: 6-31G*
  Basis Set:
  @DF-RHF Final Energy:  -251.34770554600590
    Total Energy =                       -251.3477055460057841
  Basis Set: 6-31G*
  Basis Set:
  Basis Set: 6-31G*
  Basis Set:
  @DF-RHF Final Energy:  -251.34791792099654
    Total Energy =                       -251.3479179209966787
  Basis Set: 6-31G*
  Basis Set:
  Basis Set: 6-31G*
  Basis Set:
  @DF-RHF Final Energy:  -251.34793195225353
    Total Energy =                       -251.3479319522537025
  Basis Set: 6-31G*
  Basis Set:
  Basis Set: 6-31G*
  Basis Set:
  @DF-RHF Final Energy:  -251.34794099342076
    Total Energy =                       -251.3479409934205933
  Basis Set: 6-31G*
  Basis Set:
  Charge       = 0
  Multiplicity = 1
  Basis Set: 6-31G*
  Basis Set:

    Orbital Energies (a.u.)
    -----------------------

    Doubly Occupied:

       1A    -15.528256     2A    -11.239230     3A    -11.216943
       4A    -11.216045     5A    -11.215319     6A    -11.209573
       7A     -1.172736     8A     -1.075709     9A     -1.000347
      10A     -0.901530    11A     -0.818963    12A     -0.793521
      13A     -0.670608    14A     -0.641077    15A     -0.600107
      16A     -0.597867    17A     -0.567783    18A     -0.554298
      19A     -0.529100    20A     -0.500390    21A     -0.485955
      22A     -0.468411    23A     -0.465576    24A     -0.459150
      25A     -0.370530

  @DF-RHF Final Energy:  -251.34794175243510

   => Energetics <=

    Nuclear Repulsion Energy =            245.4613433995591265
    One-Electron Energy =                -825.0205223057191688
    Two-Electron Energy =                 328.2112371537250510
    DFT Exchange-Correlation Energy =       0.0000000000000000
    Empirical Dispersion Energy =           0.0000000000000000
    PCM Polarization Energy =               0.0000000000000000
    EFP Energy =                            0.0000000000000000
    Total Energy =                       -251.3479417524349628
    Molecular point group: c1
  Basis Set: 6-31G*
  Basis Set:

  -Total Gradient:
     Atom            X                  Y                   Z
    ------   -----------------  -----------------  -----------------
       1        0.001256765887     0.002260223497    -0.000708307140
       2       -0.001287616955    -0.002518618761     0.001221339994
       3       -0.000978775608    -0.001636691478    -0.001937886596
       4       -0.000032015755     0.000090129481    -0.000000799093
       5        0.000166625586     0.000053510537    -0.000002984237
       6        0.000997150526     0.001668159778     0.001408183480
       7       -0.000027827132     0.000063603615     0.000051737687
       8       -0.000051466871    -0.000008037135    -0.000038618005
       9       -0.000019699299     0.000020713484     0.000058962056
      10        0.000019561260     0.000004487536    -0.000007359351
      11       -0.000044102506     0.000027617286    -0.000037267572
      12        0.000009563984    -0.000008893820    -0.000017653126
      13        0.000004413293    -0.000010180781    -0.000019446114
      14       -0.000013326820    -0.000017950022     0.000040567771
      15       -0.000010179942     0.000014535536    -0.000012311148
      16        0.000014573168    -0.000007340790    -0.000011656164
      17        0.000005848282    -0.000011674133    -0.000004274053
      18       -0.000003720549     0.000002626386     0.000013386270
      19       -0.000005770552     0.000013779783     0.000004385343

  **** Optimization is complete! (in 6 steps) ****
    Final optimized geometry and variables:
    Molecular point group: c1

    Geometry (in Angstrom), charge = 0, multiplicity = 1:

    H            3.617545101458    -0.205216738197     0.819345121490
    N            3.139724348256    -0.198353257569    -0.057376656107
    C            1.869019989626     0.515587554614     0.015182164122
    H            3.025433534155    -1.144145007513    -0.360708717870
    C            0.639877317588    -0.391260724882    -0.014197640512
    H            1.815302518018     1.233447659678    -0.799516398624
    H            1.853241107562     1.107147076234     0.926954185736
    C           -0.679990624641     0.380624897754     0.018665367651
    H            0.675440775507    -1.004432870914    -0.914035578217
    H            0.685491631062    -1.077989261321     0.829511697638
    C           -1.912287445977    -0.525060467053    -0.022624055178
    H           -0.714364756691     1.071068319969    -0.822186641981
    H           -0.716663700045     0.993799099660     0.917744382071
    C           -3.226895431416     0.253016841353     0.020988065103
    H           -1.882197606653    -1.132162828105    -0.924846821032
    H           -1.876514835694    -1.219824195191     0.813802844166
    H           -3.308794519363     0.931796848651    -0.823220785015
    H           -4.081340978233    -0.416023832464    -0.008724608262
    H           -3.302116564336     0.845328500042     0.928604241734

  Mulliken Charges: (a.u.)
   Center  Symbol    Alpha    Beta     Spin     Total
       1     H     0.33093  0.33093  0.00000  0.33813
       2     N     3.93265  3.93265  0.00000 -0.86530
       3     C     3.04731  3.04731  0.00000 -0.09461
       4     H     0.33136  0.33136  0.00000  0.33728
       5     C     3.16524  3.16524  0.00000 -0.33048
       6     H     0.42041  0.42041  0.00000  0.15919
       7     H     0.42606  0.42606  0.00000  0.14789
       8     C     3.15449  3.15449  0.00000 -0.30897
       9     H     0.42344  0.42344  0.00000  0.15313
      10     H     0.42460  0.42460  0.00000  0.15079
      11     C     3.15106  3.15106  0.00000 -0.30212
      12     H     0.42162  0.42162  0.00000  0.15676
      13     H     0.42363  0.42363  0.00000  0.15275
      14     C     3.23941  3.23941  0.00000 -0.47883
      15     H     0.42256  0.42256  0.00000  0.15489
      16     H     0.42314  0.42314  0.00000  0.15371
      17     H     0.42129  0.42129  0.00000  0.15742
      18     H     0.41909  0.41909  0.00000  0.16181
      19     H     0.42172  0.42172  0.00000  0.15656

   Total alpha = 25.00000, Total beta = 25.00000, Total charge = -0.00000
