                              Psi4 1.0.54 Driver

  ==> Input File <==

--------------------------------------------------------------------------
set {
	reference rhf
	basis cc-pvtz
}

set_num_threads( 4 )
memory 2 gb

molecule MOL {
0 1

H	 -3.268214	 -0.875720	 0.463107
C	 -2.806015	 0.000007	 0.024886
N	 -1.391133	 0.000016	 0.301321
H	 -3.029448	 0.000055	 -1.045738
H	 -3.268126	 0.875758	 0.463150
C	 -1.107518	 -0.000048	 1.720172
C	 -0.700887	 1.085220	 -0.361570
H	 -1.499314	 0.898879	 2.205226
H	 -1.593507	 -0.855131	 2.174850
C	 0.386917	 -0.083671	 1.968532
H	 -0.890010	 1.022427	 -1.426643
H	 -1.064959	 2.058128	 -0.018425
C	 0.793549	 1.001596	 -0.113211
H	 0.576041	 -0.020879	 3.033604
H	 0.750990	 -1.056579	 1.625386
N	 1.077164	 1.001532	 1.305641
H	 1.279537	 1.856680	 -0.567888
H	 1.185344	 0.102669	 -0.598264
C	 2.492046	 1.001541	 1.582076
H	 2.659990	 1.064424	 2.649973
H	 2.958862	 1.862255	 1.119673
H	 2.996797	 0.104289	 1.212855

	symmetry c1
}
set optking {
	frozen_dihedral = ("
		6 3 2 4
	")
}

ee,wfn = optimize('scf', return_wfn=True)
oeprop( wfn, 'DIPOLE', 'QUADRUPOLE', 'MULLIKEN_CHARGES')
f=open( 'psi4out.xyz', 'w' )
f.write( "22  " )
f.write( str(ee) + "\n" )
f.write( MOL.save_string_xyz() )
f.close()
--------------------------------------------------------------------------

    Molecular point group: c1
  Charge       = 0
  Multiplicity = 1
  Basis Set: CC-PVTZ
  Basis Set:
  @DF-RHF Final Energy:  -344.34995483336291
    Total Energy =                       -344.3499548333629718
    Molecular point group: c1
  Basis Set: CC-PVTZ
  Basis Set:
  Basis Set: CC-PVTZ
  Basis Set:
  @DF-RHF Final Energy:  -344.35058412732053
    Total Energy =                       -344.3505841273206443
  Basis Set: CC-PVTZ
  Basis Set:
  Basis Set: CC-PVTZ
  Basis Set:
  @DF-RHF Final Energy:  -344.35067184167394
    Total Energy =                       -344.3506718416738295
  Basis Set: CC-PVTZ
  Basis Set:
  Charge       = 0
  Multiplicity = 1
  Basis Set: CC-PVTZ
  Basis Set:

    Orbital Energies (a.u.)
    -----------------------

    Doubly Occupied:

       1A    -15.537850     2A    -15.537671     3A    -11.237637
       4A    -11.237593     5A    -11.236987     6A    -11.236945
       7A    -11.234334     8A    -11.234330     9A     -1.257700
      10A     -1.206765    11A     -1.025951    12A     -0.993117
      13A     -0.912205    14A     -0.868187    15A     -0.836368
      16A     -0.755707    17A     -0.667094    18A     -0.638351
      19A     -0.632471    20A     -0.627466    21A     -0.623461
      22A     -0.582664    23A     -0.550195    24A     -0.546440
      25A     -0.542526    26A     -0.517622    27A     -0.496941
      28A     -0.491212    29A     -0.466374    30A     -0.457395
      31A     -0.353057    32A     -0.348095

  @DF-RHF Final Energy:  -344.35067267260911

   => Energetics <=

    Nuclear Repulsion Energy =            422.0626125293210862
    One-Electron Energy =               -1303.0451531108647032
    Two-Electron Energy =                 536.6318679089345096
    DFT Exchange-Correlation Energy =       0.0000000000000000
    Empirical Dispersion Energy =           0.0000000000000000
    PCM Polarization Energy =               0.0000000000000000
    EFP Energy =                            0.0000000000000000
    Total Energy =                       -344.3506726726091074
    Molecular point group: c1
  Basis Set: CC-PVTZ
  Basis Set:

  -Total Gradient:
     Atom            X                  Y                   Z
    ------   -----------------  -----------------  -----------------
       1        0.000027375096    -0.000006087634     0.000004120389
       2        0.000014517194    -0.000763739672     0.000045780017
       3        0.000039867929    -0.000675025733     0.000019379001
       4        0.000022917514     0.000794472408     0.000009565671
       5        0.000020217964     0.000007383635     0.000008639087
       6       -0.000094880408     0.000659004832     0.000041396754
       7       -0.000019806361    -0.000026762860     0.000014095829
       8       -0.000010620250     0.000006942889    -0.000003903303
       9       -0.000015378738    -0.000008125193    -0.000013521975
      10       -0.000009512768    -0.000026393584    -0.000121701365
      11        0.000003629398     0.000002905807    -0.000001168935
      12        0.000018728652     0.000000405506    -0.000002086909
      13       -0.000005560543     0.000022123143    -0.000003152359
      14       -0.000044381598     0.000004062846    -0.000025569200
      15        0.000025975286    -0.000023033344     0.000006584796
      16        0.000006550676     0.000018215612     0.000012295746
      17        0.000012350804     0.000001898406     0.000007833065
      18       -0.000009757927     0.000001623736     0.000007236651
      19        0.000013819369     0.000012128317    -0.000011341379
      20       -0.000000848102    -0.000000098349     0.000000551617
      21        0.000006118363    -0.000001085716     0.000003608777
      22       -0.000001321555    -0.000000815053     0.000001358023

  **** Optimization is complete! (in 4 steps) ****
    Final optimized geometry and variables:
    Molecular point group: c1

    Geometry (in Angstrom), charge = 0, multiplicity = 1:

    H           -3.088109954872    -1.420836034124    -0.408923247950
    C           -2.634233348407    -0.523801161561    -0.811464316776
    N           -1.221716112519    -0.512227745821    -0.523116933520
    H           -2.792448966562    -0.516496259684    -1.882549004523
    H           -3.158922695389     0.338971072531    -0.390908823004
    C           -0.954553279090    -0.521348177993     0.898894256148
    C           -0.538171882986     0.590497754756    -1.164424038925
    H           -1.362250559189     0.369340159169     1.385984067133
    H           -1.436874138391    -1.385329871389     1.340990460324
    C            0.537642261786    -0.590484980645     1.164412386251
    H           -0.713882883003     0.538907784492    -2.232385837596
    H           -0.918302502900     1.554455262425    -0.813331686540
    C            0.954449406849     0.522885104186    -0.900041242862
    H            0.712968677664    -0.536923427251     2.232409809221
    H            0.917250120586    -1.555530798003     0.815668935055
    N            1.222663554722     0.509825038419     0.521581105040
    H            1.434740661228     1.389095712925    -1.339693983119
    H            1.362578860414    -0.365514019502    -1.391142793774
    C            2.634107632943     0.523548985456     0.813818724781
    H            2.789422889975     0.576184412505     1.884242608195
    H            3.095800159998     1.394985584839     0.366452619515
    H            3.153906007000    -0.363374919037     0.440288403851

  Mulliken Charges: (a.u.)
   Center  Symbol    Alpha    Beta     Spin     Total
       1     H     0.45147  0.45147  0.00000  0.09707
       2     C     3.09838  3.09838  0.00000 -0.19677
       3     N     3.61310  3.61310  0.00000 -0.22621
       4     H     0.45223  0.45223  0.00000  0.09554
       5     H     0.47019  0.47019  0.00000  0.05962
       6     C     3.03585  3.03585  0.00000 -0.07171
       7     C     3.03536  3.03536  0.00000 -0.07072
       8     H     0.46767  0.46767  0.00000  0.06466
       9     H     0.45383  0.45383  0.00000  0.09233
      10     C     3.03540  3.03540  0.00000 -0.07080
      11     H     0.45372  0.45372  0.00000  0.09255
      12     H     0.46821  0.46821  0.00000  0.06357
      13     C     3.03557  3.03557  0.00000 -0.07114
      14     H     0.45379  0.45379  0.00000  0.09242
      15     H     0.46799  0.46799  0.00000  0.06402
      16     N     3.61305  3.61305  0.00000 -0.22611
      17     H     0.45379  0.45379  0.00000  0.09241
      18     H     0.46803  0.46803  0.00000  0.06393
      19     C     3.09843  3.09843  0.00000 -0.19685
      20     H     0.45194  0.45194  0.00000  0.09612
      21     H     0.45194  0.45194  0.00000  0.09612
      22     H     0.47003  0.47003  0.00000  0.05993

   Total alpha = 32.00000, Total beta = 32.00000, Total charge = -0.00000

*** Psi4 exiting successfully. Buy a developer a beer!
