  ==> Input File <==

--------------------------------------------------------------------------
set {
	reference rhf
	basis 6-31G*
}

set_num_threads( 4 )
memory 2 gb

molecule MOL {
0 1

O	 -0.988096	 -1.408613	 0.050699
C	 -0.676749	 -0.249230	 -0.009274
C	 -1.746085	 0.827156	 -0.009539
N	 0.623947	 0.147590	 -0.102813
H	 -1.701500	 1.431508	 -0.908902
H	 -2.703425	 0.330732	 0.036390
H	 -1.647323	 1.487769	 0.845106
C	 1.356676	 0.419594	 1.118251
C	 1.232298	 0.650186	 -1.315064
H	 2.377770	 0.070115	 1.012186
H	 0.887218	 -0.092918	 1.939763
H	 1.380175	 1.485199	 1.335860
H	 2.282860	 0.384993	 -1.320558
H	 0.782146	 0.217282	 -2.194207
H	 1.159609	 1.733859	 -1.387053

	symmetry c1
}
set optking {
	frozen_dihedral = ("
		8 4 2 3
	")
}

ee = optimize('scf')
oeprop('DIPOLE', 'QUADRUPOLE', 'MULLIKEN_CHARGES')
f=open( 'psi4out.xyz', 'w' )
f.write( "15  " )
f.write( str(ee) + "\n" )
f.write( MOL.save_string_xyz() )
f.close()
--------------------------------------------------------------------------

    Molecular point group: c1
  Charge       = 0
  Multiplicity = 1
  Basis Set: 6-31G*
  Basis Set:
  @DF-RHF Final Energy:  -285.99323768795051
    Total Energy =                       -285.9932376879504545
    Molecular point group: c1
  Basis Set: 6-31G*
  Basis Set:
  Basis Set: 6-31G*
  Basis Set:
  @DF-RHF Final Energy:  -285.99881416205750
    Total Energy =                       -285.9988141620574424
  Basis Set: 6-31G*
  Basis Set:
  Basis Set: 6-31G*
  Basis Set:
  @DF-RHF Final Energy:  -286.00254170473238
    Total Energy =                       -286.0025417047324936
  Basis Set: 6-31G*
  Basis Set:
  Basis Set: 6-31G*
  Basis Set:
  @DF-RHF Final Energy:  -286.00437872953535
    Total Energy =                       -286.0043787295352899
  Basis Set: 6-31G*
  Basis Set:
  @DF-RHF Final Energy:  -286.00532097740165
    Total Energy =                       -286.0053209774015386
  @DF-RHF Final Energy:  -286.00541493983553
    Total Energy =                       -286.0054149398355321
  Basis Set: 6-31G*
  Basis Set:
  @DF-RHF Final Energy:  -286.00554879458468
    Total Energy =                       -286.0055487945846835
  Basis Set: 6-31G*
  Basis Set:
  Basis Set: 6-31G*
  Basis Set:
  @DF-RHF Final Energy:  -286.00555941349438
    Total Energy =                       -286.0055594134943249
  Basis Set: 6-31G*
  Basis Set:
  Basis Set: 6-31G*
  Basis Set:
  @DF-RHF Final Energy:  -286.00556253199511
    Total Energy =                       -286.0055625319951105
  Basis Set: 6-31G*
  Basis Set:
  Charge       = 0
  Multiplicity = 1
  Basis Set: 6-31G*
  Basis Set:

    Orbital Energies (a.u.)
    -----------------------

    Doubly Occupied:

       1A    -20.548059     2A    -15.566000     3A    -11.349699
       4A    -11.257506     5A    -11.257298     6A    -11.233751
       7A     -1.407031     8A     -1.238267     9A     -1.010246
      10A     -0.970225    11A     -0.907184    12A     -0.740934
      13A     -0.680195    14A     -0.660186    15A     -0.644799
      16A     -0.605912    17A     -0.587407    18A     -0.577144
      19A     -0.556866    20A     -0.547985    21A     -0.529404
      22A     -0.495600    23A     -0.423680    24A     -0.372992

  @DF-RHF Final Energy:  -286.00556241552067

   => Energetics <=

    Nuclear Repulsion Energy =            252.4282829290241636
    One-Electron Energy =                -888.5309498910551156
    Two-Electron Energy =                 350.0971045465103089
    DFT Exchange-Correlation Energy =       0.0000000000000000
    Empirical Dispersion Energy =           0.0000000000000000
    PCM Polarization Energy =               0.0000000000000000
    EFP Energy =                            0.0000000000000000
    Total Energy =                       -286.0055624155206715
    Molecular point group: c1
  Basis Set: 6-31G*
  Basis Set:

  -Total Gradient:
     Atom            X                  Y                   Z
    ------   -----------------  -----------------  -----------------
       1        0.000044793897     0.000066652564     0.000052169130
       2       -0.001076443394    -0.000111038835    -0.009803812679
       3        0.000389928983     0.001525107363     0.006030295341
       4        0.001874054485    -0.007360068842     0.005206355908
       5        0.000041651691     0.000044549429     0.000028577158
       6        0.000003423154     0.000020993421     0.000017423035
       7       -0.000005141806    -0.000004285519    -0.000002766565
       8       -0.001132861796     0.005869420161    -0.001411044614
       9       -0.000129452501    -0.000057719392    -0.000080348944
      10       -0.000011880411    -0.000007263156    -0.000008880862
      11       -0.000003731650     0.000001861219     0.000005646469
      12       -0.000007569478    -0.000014392249    -0.000012400352
      13       -0.000007720066     0.000002063855    -0.000006702582
      14        0.000016544398     0.000022461862    -0.000014752929
      15        0.000004404499     0.000001658120     0.000000242485

  **** Optimization is complete! (in 10 steps) ****
    Final optimized geometry and variables:
    Molecular point group: c1

    Geometry (in Angstrom), charge = 0, multiplicity = 1:

    O           -1.055155578125    -1.390427679478     0.444531437019
    C           -0.648740079319    -0.356947606041     0.023439069724
    C           -1.585204028617     0.813886586030    -0.210485232565
    N            0.747685201787    -0.147775511833    -0.136292912802
    H           -1.600269595699     1.125542860487    -1.248991012726
    H           -2.582876671111     0.525650069739     0.086155621147
    H           -1.260694714387     1.666115443024     0.378543336394
    C            1.383207464888     0.271529778949     1.104832499282
    C            1.133248553454     0.697010677058    -1.252646184182
    H            2.458307374220     0.217741901753     0.985311429334
    H            1.098513615449    -0.399137892447     1.903764553947
    H            1.123790930770     1.293351361218     1.388596855224
    H            2.201876028101     0.601780064570    -1.401202142680
    H            0.647429666827     0.361963474605    -2.160825258819
    H            0.907587095818     1.754394284833    -1.105569566179

  Mulliken Charges: (a.u.)
   Center  Symbol    Alpha    Beta     Spin     Total
       1     O     4.25399  4.25399  0.00000 -0.50799
       2     C     2.65771  2.65771  0.00000  0.68459
       3     C     3.29385  3.29385  0.00000 -0.58770
       4     N     3.79955  3.79955  0.00000 -0.59910
       5     H     0.40514  0.40514  0.00000  0.18972
       6     H     0.39299  0.39299  0.00000  0.21402
       7     H     0.40676  0.40676  0.00000  0.18649
       8     C     3.15490  3.15490  0.00000 -0.30981
       9     C     3.15437  3.15437  0.00000 -0.30874
      10     H     0.40850  0.40850  0.00000  0.18300
      11     H     0.39792  0.39792  0.00000  0.20417
      12     H     0.42954  0.42954  0.00000  0.14091
      13     H     0.40685  0.40685  0.00000  0.18630
      14     H     0.40991  0.40991  0.00000  0.18018
      15     H     0.42802  0.42802  0.00000  0.14396

   Total alpha = 24.00000, Total beta = 24.00000, Total charge =  0.00000
