  ==> Input File <==

--------------------------------------------------------------------------
set {
	reference rhf
	basis 6-31G*
}

set_num_threads( 1 )
memory 2 gb

molecule MOL {
0 1

O	 1.808766	 1.250095	 0.342525
C	 1.705091	 0.115954	 0.001797
C	 0.436644	 -0.543358	 -0.482162
O	 2.721346	 -0.737485	 -0.000216
C	 -0.765421	 0.395948	 -0.501848
H	 0.637318	 -0.946831	 -1.470926
H	 0.253849	 -1.403458	 0.156221
C	 -2.035677	 -0.297298	 -0.996743
H	 -0.541437	 1.250133	 -1.133027
H	 -0.926046	 0.792174	 0.495906
C	 -3.251338	 0.630762	 -1.023748
H	 -1.867038	 -0.695559	 -1.996216
H	 -2.253609	 -1.154318	 -0.361207
C	 -4.520503	 -0.062793	 -1.517159
H	 -3.036185	 1.486149	 -1.660273
H	 -3.421615	 1.028719	 -0.025864
H	 -4.393125	 -0.441839	 -2.527265
H	 -5.364078	 0.620417	 -1.524643
H	 -4.781368	 -0.903253	 -0.880067
C	 4.024888	 -0.184556	 -0.001949
H	 4.179030	 0.422472	 -0.882452
H	 4.701782	 -1.024608	 -0.003642
H	 4.181981	 0.421185	 0.878906

	symmetry c1
}
set optking {
	frozen_dihedral = ("
		15 11 8 12,
		9 5 8 12,
		1 2 3 6,
		9 5 3 6
	")
}

ee = energy('scf')
oeprop('DIPOLE', 'QUADRUPOLE', 'MULLIKEN_CHARGES')
f=open( 'psi4out.xyz', 'w' )
f.write( "23  " )
f.write( str(ee) + "\n" )
f.write( MOL.save_string_xyz() )
f.close()
--------------------------------------------------------------------------

    Molecular point group: c1

    Geometry (in Angstrom), charge = 0, multiplicity = 1:

       Center              X                  Y                   Z               Mass
    ------------   -----------------  -----------------  -----------------  -----------------
           O          1.756086369358     1.186281081306     0.802224754999    15.994914619560
           C          1.652411369358     0.052140081306     0.461496754999    12.000000000000
           C          0.383964369358    -0.607171918694    -0.022462245001    12.000000000000
           O          2.668666369358    -0.801298918694     0.459483754999    15.994914619560
           C         -0.818100630642     0.332134081306    -0.042148245001    12.000000000000
           H          0.584638369358    -1.010644918694    -1.011226245001     1.007825032070
           H          0.201169369358    -1.467271918694     0.615920754999     1.007825032070
           C         -2.088356630642    -0.361111918694    -0.537043245001    12.000000000000
           H         -0.594116630642     1.186319081306    -0.673327245001     1.007825032070
           H         -0.978725630642     0.728360081306     0.955605754999     1.007825032070
           C         -3.304017630642     0.566948081306    -0.564048245001    12.000000000000
           H         -1.919717630642    -0.759372918694    -1.536516245001     1.007825032070
           H         -2.306288630642    -1.218131918694     0.098492754999     1.007825032070
           C         -4.573182630642    -0.126606918694    -1.057459245001    12.000000000000
           H         -3.088864630642     1.422335081306    -1.200573245001     1.007825032070
           H         -3.474294630642     0.964905081306     0.433835754999     1.007825032070
           H         -4.445804630642    -0.505652918694    -2.067565245001     1.007825032070
           H         -5.416757630642     0.556603081306    -1.064943245001     1.007825032070
           H         -4.834047630642    -0.967066918694    -0.420367245001     1.007825032070
           C          3.972208369358    -0.248369918694     0.457750754999    12.000000000000
           H          4.126350369358     0.358658081306    -0.422752245001     1.007825032070
           H          4.649102369358    -1.088421918694     0.456057754999     1.007825032070
           H          4.129301369358     0.357371081306     1.338605754999     1.007825032070

  Charge       = 0
  Multiplicity = 1
  Basis Set: 6-31G*
  Basis Set:

    Orbital Energies (a.u.)
    -----------------------

    Doubly Occupied:

       1A    -20.601409     2A    -20.546206     3A    -11.372487
       4A    -11.281873     5A    -11.235617     6A    -11.219236
       7A    -11.217919     8A    -11.216522     9A    -11.209711
      10A     -1.468650    11A     -1.362944    12A     -1.093205
      13A     -1.043461    14A     -0.986943    15A     -0.932801
      16A     -0.843980    17A     -0.795135    18A     -0.767313
      19A     -0.696867    20A     -0.683157    21A     -0.671571
      22A     -0.651561    23A     -0.609492    24A     -0.600385
      25A     -0.573275    26A     -0.560995    27A     -0.555475
      28A     -0.527261    29A     -0.516934    30A     -0.507786
      31A     -0.484541    32A     -0.469921    33A     -0.466430
      34A     -0.462668    35A     -0.454301    36A     -0.434265

  @DF-RHF Final Energy:  -422.97378265888972

   => Energetics <=

    Nuclear Repulsion Energy =            452.1845350403266366
    One-Electron Energy =               -1472.0720295428138797
    Two-Electron Energy =                 596.9137118435976390
    DFT Exchange-Correlation Energy =       0.0000000000000000
    Empirical Dispersion Energy =           0.0000000000000000
    PCM Polarization Energy =               0.0000000000000000
    EFP Energy =                            0.0000000000000000
    Total Energy =                       -422.9737826588896041

  Mulliken Charges: (a.u.)
   Center  Symbol    Alpha    Beta     Spin     Total
       1     O     4.28377  4.28377  0.00000 -0.56755
       2     C     2.60453  2.60453  0.00000  0.79095
       3     C     3.20887  3.20887  0.00000 -0.41773
       4     O     4.30803  4.30803  0.00000 -0.61606
       5     C     3.15262  3.15262  0.00000 -0.30524
       6     H     0.40175  0.40175  0.00000  0.19650
       7     H     0.39996  0.39996  0.00000  0.20008
       8     C     3.15328  3.15328  0.00000 -0.30655
       9     H     0.41209  0.41209  0.00000  0.17581
      10     H     0.41140  0.41140  0.00000  0.17721
      11     C     3.15154  3.15154  0.00000 -0.30309
      12     H     0.42427  0.42427  0.00000  0.15146
      13     H     0.42384  0.42384  0.00000  0.15232
      14     C     3.23958  3.23958  0.00000 -0.47916
      15     H     0.42145  0.42145  0.00000  0.15711
      16     H     0.42122  0.42122  0.00000  0.15757
      17     H     0.42190  0.42190  0.00000  0.15621
      18     H     0.41847  0.41847  0.00000  0.16306
      19     H     0.42175  0.42175  0.00000  0.15649
      20     C     3.09356  3.09356  0.00000 -0.18713
      21     H     0.41345  0.41345  0.00000  0.17310
      22     H     0.40793  0.40793  0.00000  0.18414
      23     H     0.40474  0.40474  0.00000  0.19052

   Total alpha = 36.00000, Total beta = 36.00000, Total charge = -0.00000
