                              Psi4 1.0.54 Driver

  ==> Input File <==

--------------------------------------------------------------------------
set {
	reference rhf
	basis cc-pvtz
}

set_num_threads( 4 )
memory 2 gb

molecule MOL {
0 1

O	 -0.183095	 -0.600390	 -2.969009
C	 -0.738227	 0.050701	 -2.144788
C	 -0.881910	 -0.448129	 -0.720509
C	 -1.310991	 1.411177	 -2.463877
C	 0.376695	 -0.140025	 0.100361
H	 -1.035196	 -1.519049	 -0.762286
H	 -1.748977	 0.002726	 -0.249565
C	 1.630207	 -0.772146	 -0.501001
H	 0.486632	 0.935267	 0.162725
H	 0.248225	 -0.501310	 1.117842
C	 2.907848	 -0.545876	 0.309149
H	 1.772784	 -0.391628	 -1.509394
H	 1.468529	 -1.842059	 -0.599744
C	 3.373802	 0.906639	 0.372125
H	 3.699140	 -1.146831	 -0.127906
H	 2.764321	 -0.923458	 1.318191
H	 3.519798	 1.311927	 -0.623875
H	 4.316899	 0.983758	 0.900700
H	 2.661122	 1.540651	 0.885346
H	 -2.393801	 1.364953	 -2.405715
H	 -1.016288	 1.715431	 -3.456424
H	 -0.982382	 2.145165	 -1.736645

	symmetry c1
}
set optking {
	frozen_dihedral = ("
		6 3 5 8
	")
}

ee,wfn = optimize('scf', return_wfn=True)
oeprop( wfn, 'DIPOLE', 'QUADRUPOLE', 'MULLIKEN_CHARGES')
f=open( 'psi4out.xyz', 'w' )
f.write( "22  " )
f.write( str(ee) + "\n" )
f.write( MOL.save_string_xyz() )
f.close()
--------------------------------------------------------------------------

    Molecular point group: c1
  Charge       = 0
  Multiplicity = 1
  Basis Set: CC-PVTZ
  Basis Set:
  @DF-RHF Final Energy:  -348.22021771967673
    Total Energy =                       -348.2202177196767821
    Molecular point group: c1
  Basis Set: CC-PVTZ
  Basis Set:
  Basis Set: CC-PVTZ
  Basis Set:
  @DF-RHF Final Energy:  -348.21670985479074
    Total Energy =                       -348.2167098547907358
  Basis Set: CC-PVTZ
  Basis Set:
  Basis Set: CC-PVTZ
  Basis Set:
  @DF-RHF Final Energy:  -348.22155170852324
    Total Energy =                       -348.2215517085228385
  Basis Set: CC-PVTZ
  Basis Set:
  Basis Set: CC-PVTZ
  Basis Set:
  @DF-RHF Final Energy:  -348.22174623791113
    Total Energy =                       -348.2217462379113613
  Basis Set: CC-PVTZ
  Basis Set:
  @DF-RHF Final Energy:  -348.22176526357066
    Total Energy =                       -348.2217652635704326
  @DF-RHF Final Energy:  -348.22195923419611
    Total Energy =                       -348.2219592341958219
  @DF-RHF Final Energy:  -348.22213034187291
    Total Energy =                       -348.2221303418725142
  @DF-RHF Final Energy:  -348.22216022263916
    Total Energy =                       -348.2221602226391042
  @DF-RHF Final Energy:  -348.22216871719098
    Total Energy =                       -348.2221687171906410
  @DF-RHF Final Energy:  -348.22217299732250
    Total Energy =                       -348.2221729973227298
  @DF-RHF Final Energy:  -348.22217756742759
    Total Energy =                       -348.2221775674275932
  @DF-RHF Final Energy:  -348.22218246380118
    Total Energy =                       -348.2221824638012890
  @DF-RHF Final Energy:  -348.22218625926001
    Total Energy =                       -348.2221862592604111
  @DF-RHF Final Energy:  -348.22218974418320
    Total Energy =                       -348.2221897441831970
  @DF-RHF Final Energy:  -348.22219504949510
    Total Energy =                       -348.2221950494949851
  @DF-RHF Final Energy:  -348.22146392222658
    Total Energy =                       -348.2214639222267465
  @DF-RHF Final Energy:  -348.22224203602474
    Total Energy =                       -348.2222420360251363
  @DF-RHF Final Energy:  -348.22161545601512
    Total Energy =                       -348.2216154560147743
  @DF-RHF Final Energy:  -348.22225101014573
    Total Energy =                       -348.2222510101453281
  Basis Set: CC-PVTZ
  Basis Set:
  @DF-RHF Final Energy:  -348.22224721925227
    Total Energy =                       -348.2222472192519263
  Basis Set: CC-PVTZ
  Basis Set:
  Basis Set: CC-PVTZ
  Basis Set:
  @DF-RHF Final Energy:  -348.22225547668950
    Total Energy =                       -348.2222554766893836
  Basis Set: CC-PVTZ
  Basis Set:
  Basis Set: CC-PVTZ
  Basis Set:
  @DF-RHF Final Energy:  -348.22226077020076
    Total Energy =                       -348.2222607702006485
  Basis Set: CC-PVTZ
  Basis Set:
  Charge       = 0
  Multiplicity = 1
  Basis Set: CC-PVTZ
  Basis Set:

    Orbital Energies (a.u.)
    -----------------------

    Doubly Occupied:

       1A    -20.537250     2A    -11.319103     3A    -11.229659
       4A    -11.228166     5A    -11.226082     6A    -11.219979
       7A    -11.219365     8A    -11.212466     9A     -1.396845
      10A     -1.098908    11A     -1.045736    12A     -0.997303
      13A     -0.940972    14A     -0.863216    15A     -0.792024
      16A     -0.730478    17A     -0.661016    18A     -0.645672
      19A     -0.629627    20A     -0.621204    21A     -0.602317
      22A     -0.577290    23A     -0.572707    24A     -0.545337
      25A     -0.536367    26A     -0.513921    27A     -0.509490
      28A     -0.494527    29A     -0.472992    30A     -0.465344
      31A     -0.455724    32A     -0.400016

  @DF-RHF Final Energy:  -348.22226155396686

   => Energetics <=

    Nuclear Repulsion Energy =            382.3578819895894867
    One-Electron Energy =               -1229.6380812921352117
    Two-Electron Energy =                 499.0579377485789792
    DFT Exchange-Correlation Energy =       0.0000000000000000
    Empirical Dispersion Energy =           0.0000000000000000
    PCM Polarization Energy =               0.0000000000000000
    EFP Energy =                            0.0000000000000000
    Total Energy =                       -348.2222615539667459
    Molecular point group: c1
  Basis Set: CC-PVTZ
  Basis Set:

  -Total Gradient:
     Atom            X                  Y                   Z
    ------   -----------------  -----------------  -----------------
       1       -0.000000428574     0.000007645615    -0.000000061949
       2       -0.000000416388    -0.000011863869     0.000001056501
       3        0.000379308574     0.000138961582    -0.000587808415
       4        0.000001103249     0.000005749758     0.000002900410
       5       -0.000081676722    -0.000415116025     0.000403983484
       6       -0.000304117636    -0.000015678151     0.000405317637
       7       -0.000000336798    -0.000000820453     0.000000025873
       8        0.000008130933     0.000292501798    -0.000214386726
       9       -0.000000400511    -0.000001878353     0.000002827135
      10       -0.000002221253     0.000000700227     0.000000057958
      11        0.000000551689     0.000000399769    -0.000004672572
      12        0.000004354570    -0.000001233952     0.000004386367
      13        0.000003053449     0.000000179795    -0.000000744842
      14       -0.000001089735     0.000002161093    -0.000000686849
      15        0.000000665399    -0.000003163709    -0.000000444055
      16       -0.000003362515    -0.000000132153    -0.000002049072
      17        0.000000330811     0.000000847969    -0.000000154939
      18        0.000001009898    -0.000000515974     0.000000096565
      19       -0.000001247416     0.000000858124     0.000000590114
      20       -0.000001809668    -0.000001437552    -0.000000936455
      21       -0.000000380870     0.000001328004    -0.000004922332
      22       -0.000001020483     0.000000506458    -0.000004373847

  **** Optimization is complete! (in 23 steps) ****
    Final optimized geometry and variables:
    Molecular point group: c1

    Geometry (in Angstrom), charge = 0, multiplicity = 1:

    O           -1.251145508723    -1.094084095521    -2.125183469891
    C           -1.382201947110    -0.309868434857    -1.242362965514
    C           -1.390236520458    -0.749595344488     0.208748567115
    C           -1.562575212118     1.164548803757    -1.530131220135
    C           -0.277982105493    -0.138076229093     1.070392571478
    H           -1.325122258649    -1.829202609186     0.218382479693
    H           -2.353537203326    -0.473360250370     0.629215285509
    C            1.128747356397    -0.502881689729     0.596448880330
    H           -0.397108080320     0.938605018713     1.109305802920
    H           -0.413659083606    -0.492807777991     2.087152219293
    C            2.251694311183    -0.009078805133     1.510101825600
    H            1.293020450528    -0.119539834158    -0.407392325860
    H            1.195329444278    -1.583594001737     0.516016911442
    C            2.409168909132     1.508619051970     1.565568755884
    H            3.185364079591    -0.442813206899     1.166791608689
    H            2.091506022856    -0.392317238265     2.514369279624
    H            2.567075432998     1.920110123467     0.573692245818
    H            3.262347311567     1.783826985487     2.174622781924
    H            1.538437258903     1.993314604532     1.991028202114
    H           -2.399028872708     1.568473952921    -0.971521757341
    H           -1.721032666942     1.307411233923    -2.587952728788
    H           -0.676755427294     1.711579479327    -1.227704572505

  Mulliken Charges: (a.u.)
   Center  Symbol    Alpha    Beta     Spin     Total
       1     O     4.17612  4.17612  0.00000 -0.35225
       2     C     2.85354  2.85354  0.00000  0.29293
       3     C     3.10695  3.10695  0.00000 -0.21390
       4     C     3.16062  3.16062  0.00000 -0.32125
       5     C     3.12228  3.12228  0.00000 -0.24457
       6     H     0.43861  0.43861  0.00000  0.12278
       7     H     0.43991  0.43991  0.00000  0.12018
       8     C     3.09572  3.09572  0.00000 -0.19143
       9     H     0.44731  0.44731  0.00000  0.10537
      10     H     0.44000  0.44000  0.00000  0.12000
      11     C     3.09032  3.09032  0.00000 -0.18064
      12     H     0.44842  0.44842  0.00000  0.10317
      13     H     0.44249  0.44249  0.00000  0.11502
      14     C     3.15460  3.15460  0.00000 -0.30919
      15     H     0.44605  0.44605  0.00000  0.10791
      16     H     0.45400  0.45400  0.00000  0.09199
      17     H     0.45388  0.45388  0.00000  0.09224
      18     H     0.44444  0.44444  0.00000  0.11112
      19     H     0.45459  0.45459  0.00000  0.09081
      20     H     0.44883  0.44883  0.00000  0.10234
      21     H     0.43252  0.43252  0.00000  0.13496
      22     H     0.44879  0.44879  0.00000  0.10242

   Total alpha = 32.00000, Total beta = 32.00000, Total charge = -0.00000

*** Psi4 exiting successfully. Buy a developer a beer!
