  ==> Input File <==

--------------------------------------------------------------------------
set {
	reference rhf
	basis 6-31G*
}

set_num_threads( 1 )
memory 2 gb

molecule MOL {
0 1

H	 -2.798360	 -0.862255	 -0.071053
N	 -1.863561	 -0.715187	 0.256814
C	 -1.344686	 0.554728	 -0.219830
H	 -1.300452	 -1.461917	 -0.101532
C	 0.081427	 0.741154	 0.254071
H	 -1.362155	 0.656231	 -1.305829
H	 -1.952773	 1.354456	 0.191809
O	 0.874168	 -0.245412	 -0.342030
H	 0.444037	 1.730782	 -0.023037
H	 0.121165	 0.653424	 1.337565
C	 1.759650	 0.232848	 -1.303675
H	 2.311642	 -0.612798	 -1.690825
H	 1.232689	 0.714382	 -2.125513
H	 2.461208	 0.947214	 -0.877874

	symmetry c1
}
set optking {
	frozen_dihedral = ("
		8 5 3 6,
		6 3 2 4,
		5 8 11 13
	")
}

ee = energy('scf')
oeprop('DIPOLE', 'QUADRUPOLE', 'MULLIKEN_CHARGES')
f=open( 'psi4out.xyz', 'w' )
f.write( "14  " )
f.write( str(ee) + "\n" )
f.write( MOL.save_string_xyz() )
f.close()
--------------------------------------------------------------------------

    Molecular point group: c1

    Geometry (in Angstrom), charge = 0, multiplicity = 1:

       Center              X                  Y                   Z               Mass
    ------------   -----------------  -----------------  -----------------  -----------------
           H         -2.705028554705    -0.962810326373     0.219489518805     1.007825032070
           N         -1.770229554705    -0.815742326373     0.547356518805    14.003074004780
           C         -1.251354554705     0.454172673627     0.070712518805    12.000000000000
           H         -1.207120554705    -1.562472326373     0.189010518805     1.007825032070
           C          0.174758445295     0.640598673627     0.544613518805    12.000000000000
           H         -1.268823554705     0.555675673627    -1.015286481195     1.007825032070
           H         -1.859441554705     1.253900673627     0.482351518805     1.007825032070
           O          0.967499445295    -0.345967326373    -0.051487481195    15.994914619560
           H          0.537368445295     1.630226673627     0.267505518805     1.007825032070
           H          0.214496445295     0.552868673627     1.628107518805     1.007825032070
           C          1.852981445295     0.132292673627    -1.013132481195    12.000000000000
           H          2.404973445295    -0.713353326373    -1.400282481195     1.007825032070
           H          1.326020445295     0.613826673627    -1.834970481195     1.007825032070
           H          2.554539445295     0.846658673627    -0.587331481195     1.007825032070

  Charge       = 0
  Multiplicity = 1
  Basis Set: 6-31G*
  Basis Set:

    Orbital Energies (a.u.)
    -----------------------

    Doubly Occupied:

       1A    -20.555704     2A    -15.528440     3A    -11.268796
       4A    -11.265456     5A    -11.239441     6A     -1.381977
       7A     -1.173322     8A     -0.997188     9A     -0.914008
      10A     -0.813030    11A     -0.684171    12A     -0.676533
      13A     -0.641068    14A     -0.617824    15A     -0.599927
      16A     -0.540581    17A     -0.533325    18A     -0.503124
      19A     -0.473404    20A     -0.414205    21A     -0.378188

  @DF-RHF Final Energy:  -248.12037581533394

   => Energetics <=

    Nuclear Repulsion Energy =            195.8909292447064558
    One-Electron Energy =                -725.6231790046140304
    Two-Electron Energy =                 281.6118739445739720
    DFT Exchange-Correlation Energy =       0.0000000000000000
    Empirical Dispersion Energy =           0.0000000000000000
    PCM Polarization Energy =               0.0000000000000000
    EFP Energy =                            0.0000000000000000
    Total Energy =                       -248.1203758153335457

  Mulliken Charges: (a.u.)
   Center  Symbol    Alpha    Beta     Spin     Total
       1     H     0.33294  0.33294  0.00000  0.33412
       2     N     3.92424  3.92424  0.00000 -0.84848
       3     C     3.06390  3.06390  0.00000 -0.12780
       4     H     0.32404  0.32404  0.00000  0.35192
       5     C     2.99888  2.99888  0.00000  0.00225
       6     H     0.43339  0.43339  0.00000  0.13321
       7     H     0.42325  0.42325  0.00000  0.15350
       8     O     4.30789  4.30789  0.00000 -0.61578
       9     H     0.42965  0.42965  0.00000  0.14071
      10     H     0.41060  0.41060  0.00000  0.17880
      11     C     3.08089  3.08089  0.00000 -0.16179
      12     H     0.41233  0.41233  0.00000  0.17534
      13     H     0.43072  0.43072  0.00000  0.13857
      14     H     0.42729  0.42729  0.00000  0.14543

   Total alpha = 21.00000, Total beta = 21.00000, Total charge = -0.00000
