  ==> Input File <==

--------------------------------------------------------------------------
set {
	reference rhf
	basis 6-31G*
}

set_num_threads( 1 )
memory 2 gb

molecule MOL {
0 1

H	 -1.148722	 -1.354801	 0.261141
O	 -1.422729	 -0.573567	 -0.196946
C	 -0.731407	 0.539437	 0.309156
C	 0.680193	 0.672443	 -0.251532
H	 -1.319765	 1.404033	 0.030086
H	 -0.700012	 0.506517	 1.397677
C	 1.599139	 -0.492137	 0.118598
H	 0.616402	 0.758534	 -1.332349
H	 1.107032	 1.602637	 0.117369
H	 1.239738	 -1.428634	 -0.297334
H	 2.601428	 -0.335055	 -0.265730
H	 1.674954	 -0.608418	 1.197020

	symmetry c1
}
set optking {
	frozen_dihedral = ("
		8 4 3 2
	")
}

ee = energy('scf')
oeprop('DIPOLE', 'QUADRUPOLE', 'MULLIKEN_CHARGES')
f=open( 'psi4out.xyz', 'w' )
f.write( "12  " )
f.write( str(ee) + "\n" )
f.write( MOL.save_string_xyz() )
f.close()
--------------------------------------------------------------------------

    Molecular point group: c1

    Geometry (in Angstrom), charge = 0, multiplicity = 1:

       Center              X                  Y                   Z               Mass
    ------------   -----------------  -----------------  -----------------  -----------------
           H         -1.147416289199    -1.354998094163     0.259790981738     1.007825032070
           O         -1.421423289199    -0.573764094163    -0.198296018262    15.994914619560
           C         -0.730101289199     0.539239905837     0.307805981738    12.000000000000
           C          0.681498710801     0.672245905837    -0.252882018262    12.000000000000
           H         -1.318459289199     1.403835905837     0.028735981738     1.007825032070
           H         -0.698706289199     0.506319905837     1.396326981738     1.007825032070
           C          1.600444710801    -0.492334094163     0.117247981738    12.000000000000
           H          0.617707710801     0.758336905837    -1.333699018262     1.007825032070
           H          1.108337710801     1.602439905837     0.116018981738     1.007825032070
           H          1.241043710801    -1.428831094163    -0.298684018262     1.007825032070
           H          2.602733710801    -0.335252094163    -0.267080018262     1.007825032070
           H          1.676259710801    -0.608615094163     1.195669981738     1.007825032070

  Charge       = 0
  Multiplicity = 1
  Basis Set: 6-31G*
  Basis Set:

    Orbital Energies (a.u.)
    -----------------------

    Doubly Occupied:

       1A    -20.553401     2A    -11.268105     3A    -11.217698
       4A    -11.215945     5A     -1.360256     6A     -1.050184
       7A     -0.926552     8A     -0.807931     9A     -0.698670
      10A     -0.635438    11A     -0.599566    12A     -0.588510
      13A     -0.535467    14A     -0.510880    15A     -0.492417
      16A     -0.468692    17A     -0.429148

  @DF-RHF Final Energy:  -193.10989774778170

   => Energetics <=

    Nuclear Repulsion Energy =            133.0244929679566894
    One-Electron Energy =                -525.5510386607948021
    Two-Electron Energy =                 199.4166479450565248
    DFT Exchange-Correlation Energy =       0.0000000000000000
    Empirical Dispersion Energy =           0.0000000000000000
    PCM Polarization Energy =               0.0000000000000000
    EFP Energy =                            0.0000000000000000
    Total Energy =                       -193.1098977477815879

  Mulliken Charges: (a.u.)
   Center  Symbol    Alpha    Beta     Spin     Total
       1     H     0.28020  0.28020  0.00000  0.43961
       2     O     4.36997  4.36997  0.00000 -0.73994
       3     C     2.99823  2.99823  0.00000  0.00353
       4     C     3.15903  3.15903  0.00000 -0.31807
       5     H     0.41478  0.41478  0.00000  0.17045
       6     H     0.43234  0.43234  0.00000  0.13532
       7     C     3.24963  3.24963  0.00000 -0.49927
       8     H     0.41409  0.41409  0.00000  0.17181
       9     H     0.42370  0.42370  0.00000  0.15260
      10     H     0.42004  0.42004  0.00000  0.15992
      11     H     0.41451  0.41451  0.00000  0.17097
      12     H     0.42347  0.42347  0.00000  0.15307

   Total alpha = 17.00000, Total beta = 17.00000, Total charge =  0.00000
