  ==> Input File <==

--------------------------------------------------------------------------
set {
	reference rhf
	basis 6-31G*
}

set_num_threads( 1 )
memory 2 gb

molecule MOL {
0 1

O	 1.884884	 1.227109	 -0.380470
C	 1.705091	 0.115954	 0.001797
C	 0.381791	 -0.609817	 0.001258
O	 2.673453	 -0.650525	 0.487513
C	 -0.823008	 0.326187	 0.001381
H	 0.371250	 -1.265087	 -0.865474
H	 0.370908	 -1.265746	 0.867490
C	 -2.149452	 -0.435131	 -0.000098
H	 -0.770201	 0.977095	 -0.865636
H	 -0.771220	 0.975655	 0.869608
C	 -3.368779	 0.488503	 -0.000883
H	 -2.193746	 -1.087250	 -0.871175
H	 -2.195311	 -1.087803	 0.870418
C	 -4.693822	 -0.272754	 -0.001129
H	 -3.325798	 1.139422	 -0.871284
H	 -3.326423	 1.139959	 0.869145
H	 -4.781274	 -0.907928	 -0.878124
H	 -5.538651	 0.408946	 -0.001420
H	 -4.781694	 -0.907783	 0.875984
C	 3.971872	 -0.088296	 0.541948
H	 4.310799	 0.181895	 -0.447827
H	 4.607625	 -0.853646	 0.959002
H	 3.979852	 0.789509	 1.171948

	symmetry c1
}
set optking {
	frozen_dihedral = ("
		15 11 8 12,
		9 5 8 12,
		9 5 3 6,
		1 2 4 20
	")
}

ee = energy('scf')
oeprop('DIPOLE', 'QUADRUPOLE', 'MULLIKEN_CHARGES')
f=open( 'psi4out.xyz', 'w' )
f.write( "23  " )
f.write( str(ee) + "\n" )
f.write( MOL.save_string_xyz() )
f.close()
--------------------------------------------------------------------------

    Molecular point group: c1

    Geometry (in Angstrom), charge = 0, multiplicity = 1:

       Center              X                  Y                   Z               Mass
    ------------   -----------------  -----------------  -----------------  -----------------
           O          1.892257215174     1.213722247611    -0.456867393276    15.994914619560
           C          1.712464215174     0.102567247611    -0.074600393276    12.000000000000
           C          0.389164215174    -0.623203752389    -0.075139393276    12.000000000000
           O          2.680826215174    -0.663911752389     0.411115606724    15.994914619560
           C         -0.815634784826     0.312800247611    -0.075016393276    12.000000000000
           H          0.378623215174    -1.278473752389    -0.941871393276     1.007825032070
           H          0.378281215174    -1.279132752389     0.791092606724     1.007825032070
           C         -2.142078784826    -0.448517752389    -0.076495393276    12.000000000000
           H         -0.762827784826     0.963708247611    -0.942033393276     1.007825032070
           H         -0.763846784826     0.962268247611     0.793210606724     1.007825032070
           C         -3.361405784826     0.475116247611    -0.077280393276    12.000000000000
           H         -2.186372784826    -1.100636752389    -0.947572393276     1.007825032070
           H         -2.187937784826    -1.101189752389     0.794020606724     1.007825032070
           C         -4.686448784826    -0.286140752389    -0.077526393276    12.000000000000
           H         -3.318424784826     1.126035247611    -0.947681393276     1.007825032070
           H         -3.319049784826     1.126572247611     0.792747606724     1.007825032070
           H         -4.773900784826    -0.921314752389    -0.954521393276     1.007825032070
           H         -5.531277784826     0.395559247611    -0.077817393276     1.007825032070
           H         -4.774320784826    -0.921169752389     0.799586606724     1.007825032070
           C          3.979245215174    -0.101682752389     0.465550606724    12.000000000000
           H          4.318172215174     0.168508247611    -0.524224393276     1.007825032070
           H          4.614998215174    -0.867032752389     0.882604606724     1.007825032070
           H          3.987225215174     0.776122247611     1.095550606724     1.007825032070

  Charge       = 0
  Multiplicity = 1
  Basis Set: 6-31G*
  Basis Set:

    Orbital Energies (a.u.)
    -----------------------

    Doubly Occupied:

       1A    -20.604223     2A    -20.544842     3A    -11.372173
       4A    -11.280752     5A    -11.235009     6A    -11.220611
       7A    -11.218451     8A    -11.216916     9A    -11.209959
      10A     -1.469385    11A     -1.362585    12A     -1.093723
      13A     -1.043873    14A     -0.987127    15A     -0.932304
      16A     -0.844054    17A     -0.795560    18A     -0.768202
      19A     -0.696288    20A     -0.683296    21A     -0.671483
      22A     -0.652045    23A     -0.608597    24A     -0.599434
      25A     -0.573322    26A     -0.563372    27A     -0.552356
      28A     -0.524783    29A     -0.521858    30A     -0.508026
      31A     -0.484167    32A     -0.470959    33A     -0.466235
      34A     -0.462138    35A     -0.455701    36A     -0.434233

  @DF-RHF Final Energy:  -422.97578708157477

   => Energetics <=

    Nuclear Repulsion Energy =            452.1621165310403399
    One-Electron Energy =               -1472.0197476263347198
    Two-Electron Energy =                 596.8818440137199559
    DFT Exchange-Correlation Energy =       0.0000000000000000
    Empirical Dispersion Energy =           0.0000000000000000
    PCM Polarization Energy =               0.0000000000000000
    EFP Energy =                            0.0000000000000000
    Total Energy =                       -422.9757870815744809

  Mulliken Charges: (a.u.)
   Center  Symbol    Alpha    Beta     Spin     Total
       1     O     4.28612  4.28612  0.00000 -0.57225
       2     C     2.60409  2.60409  0.00000  0.79182
       3     C     3.20941  3.20941  0.00000 -0.41882
       4     O     4.30682  4.30682  0.00000 -0.61365
       5     C     3.15461  3.15461  0.00000 -0.30922
       6     H     0.39964  0.39964  0.00000  0.20071
       7     H     0.40115  0.40115  0.00000  0.19771
       8     C     3.15314  3.15314  0.00000 -0.30628
       9     H     0.40719  0.40719  0.00000  0.18563
      10     H     0.41553  0.41553  0.00000  0.16895
      11     C     3.15171  3.15171  0.00000 -0.30342
      12     H     0.42350  0.42350  0.00000  0.15300
      13     H     0.42373  0.42373  0.00000  0.15254
      14     C     3.23963  3.23963  0.00000 -0.47927
      15     H     0.42092  0.42092  0.00000  0.15816
      16     H     0.42172  0.42172  0.00000  0.15656
      17     H     0.42164  0.42164  0.00000  0.15671
      18     H     0.41841  0.41841  0.00000  0.16318
      19     H     0.42181  0.42181  0.00000  0.15638
      20     C     3.09285  3.09285  0.00000 -0.18569
      21     H     0.40906  0.40906  0.00000  0.18188
      22     H     0.40841  0.40841  0.00000  0.18317
      23     H     0.40890  0.40890  0.00000  0.18221

   Total alpha = 36.00000, Total beta = 36.00000, Total charge = -0.00000
