  ==> Input File <==

--------------------------------------------------------------------------
set {
	reference rhf
	basis 6-31G*
}

set_num_threads( 4 )
memory 2 gb

molecule MOL {
0 1

O	 -2.549567	 -1.605221	 0.943368
C	 -1.865696	 -2.293434	 0.248300
C	 -0.744896	 -1.691852	 -0.581285
C	 -2.055945	 -3.792364	 0.182050
C	 0.492618	 -1.415413	 0.287784
H	 -1.109045	 -0.759668	 -0.999297
H	 -0.481526	 -2.351250	 -1.403391
C	 1.631333	 -0.777471	 -0.511575
H	 0.193504	 -0.771196	 1.106868
H	 0.843891	 -2.345676	 0.731593
C	 2.915987	 -0.544314	 0.291766
H	 1.290604	 0.169226	 -0.926778
H	 1.864706	 -1.416536	 -1.360681
C	 3.373361	 0.914346	 0.347591
H	 3.708709	 -1.142521	 -0.150311
H	 2.780642	 -0.921148	 1.303579
H	 3.506512	 1.320010	 -0.651625
H	 4.322697	 0.999599	 0.867103
H	 2.660624	 1.545032	 0.868198
H	 -2.393171	 -4.074183	 -0.811993
H	 -2.789506	 -4.105111	 0.912024
H	 -1.116153	 -4.307372	 0.359146

	symmetry c1
}
set optking {
	frozen_dihedral = ("
		12 8 11 15
	")
}

ee = optimize('scf')
oeprop('DIPOLE', 'QUADRUPOLE', 'MULLIKEN_CHARGES')
f=open( 'psi4out.xyz', 'w' )
f.write( "22  " )
f.write( str(ee) + "\n" )
f.write( MOL.save_string_xyz() )
f.close()
--------------------------------------------------------------------------

    Molecular point group: c1
  Charge       = 0
  Multiplicity = 1
  Basis Set: 6-31G*
  Basis Set:
  @DF-RHF Final Energy:  -348.09375307357931
    Total Energy =                       -348.0937530735794780
    Molecular point group: c1
  Basis Set: 6-31G*
  Basis Set:
  Basis Set: 6-31G*
  Basis Set:
  @DF-RHF Final Energy:  -348.09416574743221
    Total Energy =                       -348.0941657474322142
  Basis Set: 6-31G*
  Basis Set:
  Basis Set: 6-31G*
  Basis Set:
  @DF-RHF Final Energy:  -348.09222747621203
    Total Energy =                       -348.0922274762116331
  Basis Set: 6-31G*
  Basis Set:
  Basis Set: 6-31G*
  Basis Set:
  @DF-RHF Final Energy:  -348.09428010440769
    Total Energy =                       -348.0942801044078578
  Basis Set: 6-31G*
  Basis Set:
  @DF-RHF Final Energy:  -348.09405887617436
    Total Energy =                       -348.0940588761741310
  @DF-RHF Final Energy:  -348.09416065165198
    Total Energy =                       -348.0941606516516913
  @DF-RHF Final Energy:  -348.09427840003940
    Total Energy =                       -348.0942784000395704
  @DF-RHF Final Energy:  -348.09429329504559
    Total Energy =                       -348.0942932950453041
  Basis Set: 6-31G*
  Basis Set:
  @DF-RHF Final Energy:  -348.09431598315484
    Total Energy =                       -348.0943159831546154
  Basis Set: 6-31G*
  Basis Set:
  Basis Set: 6-31G*
  Basis Set:
  @DF-RHF Final Energy:  -348.09431422840476
    Total Energy =                       -348.0943142284049259
  Basis Set: 6-31G*
  Basis Set:
  Basis Set: 6-31G*
  Basis Set:
  @DF-RHF Final Energy:  -348.09431766006162
    Total Energy =                       -348.0943176600611082
  Basis Set: 6-31G*
  Basis Set:
  Charge       = 0
  Multiplicity = 1
  Basis Set: 6-31G*
  Basis Set:

    Orbital Energies (a.u.)
    -----------------------

    Doubly Occupied:

       1A    -20.547341     2A    -11.324485     3A    -11.230494
       4A    -11.228980     5A    -11.228166     6A    -11.222001
       7A    -11.220142     8A    -11.212077     9A     -1.393098
      10A     -1.094452    11A     -1.044079    12A     -1.000432
      13A     -0.938189    14A     -0.847519    15A     -0.797624
      16A     -0.732629    17A     -0.662330    18A     -0.644999
      19A     -0.628115    20A     -0.611854    21A     -0.598400
      22A     -0.581609    23A     -0.560628    24A     -0.552398
      25A     -0.529212    26A     -0.510361    27A     -0.503565
      28A     -0.487535    29A     -0.473617    30A     -0.462784
      31A     -0.458177    32A     -0.396000

  @DF-RHF Final Energy:  -348.09431792449800

   => Energetics <=

    Nuclear Repulsion Energy =            369.6002764023023701
    One-Electron Energy =               -1203.9426031802277066
    Two-Electron Energy =                 486.2480088534271090
    DFT Exchange-Correlation Energy =       0.0000000000000000
    Empirical Dispersion Energy =           0.0000000000000000
    PCM Polarization Energy =               0.0000000000000000
    EFP Energy =                            0.0000000000000000
    Total Energy =                       -348.0943179244982275
    Molecular point group: c1
  Basis Set: 6-31G*
  Basis Set:

  -Total Gradient:
     Atom            X                  Y                   Z
    ------   -----------------  -----------------  -----------------
       1        0.000012871186     0.000003074383     0.000004310030
       2       -0.000002159385    -0.000022678525     0.000011929316
       3        0.000020354366    -0.000008752131     0.000007368194
       4       -0.000034117868     0.000013039311    -0.000016387715
       5       -0.000008083200     0.000020986103     0.000004926210
       6       -0.000001075184     0.000003199366    -0.000008687197
       7        0.000000054578     0.000004973099    -0.000001130386
       8       -0.000037158840     0.000025276454     0.000041908766
       9       -0.000000745226    -0.000002466754    -0.000000300681
      10       -0.000003698594    -0.000007738329    -0.000007987918
      11       -0.000011767256    -0.000049296664     0.000045399224
      12        0.000030792521    -0.000010364491    -0.000044515739
      13        0.000006687196    -0.000001642665     0.000003640453
      14       -0.000001928357     0.000001329405    -0.000009900702
      15        0.000007777587     0.000042415820    -0.000040030895
      16        0.000002952634    -0.000006245636     0.000001112025
      17        0.000006021304     0.000000860805    -0.000000808149
      18       -0.000006854024    -0.000003056144     0.000000985336
      19       -0.000001031932    -0.000002667252    -0.000000848219
      20        0.000009136355    -0.000004424313     0.000001008099
      21        0.000002909792    -0.000000959904     0.000002178360
      22        0.000009062347     0.000005138065     0.000005831584

  **** Optimization is complete! (in 12 steps) ****
    Final optimized geometry and variables:
    Molecular point group: c1

    Geometry (in Angstrom), charge = 0, multiplicity = 1:

    O           -2.685841344563    -0.191082593553     0.814956361724
    C           -2.016264485341    -0.878721981274     0.105716878277
    C           -0.905669553054    -0.278860421133    -0.738588508096
    C           -2.219562775273    -2.375664902530     0.029109368273
    C            0.360987335639    -0.052756130054     0.101083275335
    H           -1.260733280351     0.671225121398    -1.122542466244
    H           -0.679141058689    -0.922514947067    -1.584061060077
    C            1.497880677315     0.578962310230    -0.705192683699
    H            0.109377399438     0.585206623435     0.943197086850
    H            0.700251161517    -0.999453798802     0.517749693289
    C            2.771334458986     0.836431475891     0.132483173433
    H            1.144327147074     1.514650174778    -1.131651104588
    H            1.731607935239    -0.063688644576    -1.550133428989
    C            3.169346872971     2.311564343565     0.193599847372
    H            3.600774586204     0.262757277112    -0.270560579669
    H            2.622186317738     0.471237249055     1.145356101457
    H            3.375523832628     2.702666251920    -0.798626295101
    H            4.059934931173     2.454033522689     0.797911098625
    H            2.374619899046     2.912672856411     0.626501846790
    H           -2.581105106817    -2.644551786329    -0.959930595991
    H           -2.939675756508    -2.689640746838     0.771811686731
    H           -1.280672924209    -2.900303130165     0.180335537212

  Mulliken Charges: (a.u.)
   Center  Symbol    Alpha    Beta     Spin     Total
       1     O     4.26219  4.26219  0.00000 -0.52438
       2     C     2.73717  2.73717  0.00000  0.52566
       3     C     3.20074  3.20074  0.00000 -0.40148
       4     C     3.28953  3.28953  0.00000 -0.57907
       5     C     3.16427  3.16427  0.00000 -0.32855
       6     H     0.40102  0.40102  0.00000  0.19797
       7     H     0.41689  0.41689  0.00000  0.16621
       8     C     3.15491  3.15491  0.00000 -0.30982
       9     H     0.40607  0.40607  0.00000  0.18785
      10     H     0.42017  0.42017  0.00000  0.15966
      11     C     3.15644  3.15644  0.00000 -0.31287
      12     H     0.41752  0.41752  0.00000  0.16495
      13     H     0.42059  0.42059  0.00000  0.15883
      14     C     3.24032  3.24032  0.00000 -0.48064
      15     H     0.41929  0.41929  0.00000  0.16143
      16     H     0.41864  0.41864  0.00000  0.16273
      17     H     0.42102  0.42102  0.00000  0.15795
      18     H     0.41943  0.41943  0.00000  0.16115
      19     H     0.42010  0.42010  0.00000  0.15979
      20     H     0.40682  0.40682  0.00000  0.18637
      21     H     0.39707  0.39707  0.00000  0.20586
      22     H     0.40980  0.40980  0.00000  0.18040

   Total alpha = 32.00000, Total beta = 32.00000, Total charge = -0.00000
