  ==> Input File <==

--------------------------------------------------------------------------
set {
	reference rhf
	basis cc-pvtz
}

set_num_threads( 4 )
memory 2 gb

molecule MOL {
0 1

H	 -3.553909	 1.682006	 -0.690698
O	 -2.851618	 1.101803	 -0.919493
C	 -2.302264	 0.528872	 0.237390
C	 -1.175688	 -0.398187	 -0.171891
H	 -1.922782	 1.302307	 0.901893
H	 -3.060736	 -0.028479	 0.783201
C	 0.196029	 0.106276	 0.266738
H	 -1.201873	 -0.515469	 -1.250677
H	 -1.365975	 -1.378728	 0.252664
C	 1.330220	 -0.826136	 -0.155230
H	 0.359542	 1.097229	 -0.145561
H	 0.212134	 0.218135	 1.348778
C	 2.719700	 -0.407669	 0.328325
H	 1.339388	 -0.911200	 -1.239363
H	 1.119001	 -1.821953	 0.224128
C	 3.241564	 0.893452	 -0.276737
H	 3.418299	 -1.204729	 0.093035
H	 2.711776	 -0.323368	 1.411960
H	 3.254204	 0.841071	 -1.360784
H	 2.634460	 1.745075	 0.005842
H	 4.254264	 1.092401	 0.054971

	symmetry c1
}
set optking {
	frozen_dihedral = ("
		2 3 4 8
	")
}

ee = optimize('scf')
oeprop('DIPOLE', 'QUADRUPOLE', 'MULLIKEN_CHARGES')
f=open( 'psi4out.xyz', 'w' )
f.write( "21  " )
f.write( str(ee) + "\n" )
f.write( MOL.save_string_xyz() )
f.close()
--------------------------------------------------------------------------

    Molecular point group: c1
  Charge       = 0
  Multiplicity = 1
  Basis Set: CC-PVTZ
  Basis Set:
  @DF-RHF Final Energy:  -310.32721490765147
    Total Energy =                       -310.3272149076517508
    Molecular point group: c1
  Basis Set: CC-PVTZ
  Basis Set:
  Basis Set: CC-PVTZ
  Basis Set:
  @DF-RHF Final Energy:  -310.32759158368043
    Total Energy =                       -310.3275915836808281
  Basis Set: CC-PVTZ
  Basis Set:
  Basis Set: CC-PVTZ
  Basis Set:
  @DF-RHF Final Energy:  -310.32770779249182
    Total Energy =                       -310.3277077924921059
  Basis Set: CC-PVTZ
  Basis Set:
  Basis Set: CC-PVTZ
  Basis Set:
  @DF-RHF Final Energy:  -310.32770961953179
    Total Energy =                       -310.3277096195320723
  Basis Set: CC-PVTZ
  Basis Set:
  Charge       = 0
  Multiplicity = 1
  Basis Set: CC-PVTZ
  Basis Set:

    Orbital Energies (a.u.)
    -----------------------

    Doubly Occupied:

       1A    -20.545259     2A    -11.265333     3A    -11.211683
       4A    -11.210328     5A    -11.209257     6A    -11.208976
       7A    -11.204172     8A     -1.362206     9A     -1.084822
      10A     -1.031356    11A     -0.953656    12A     -0.876325
      13A     -0.806840    14A     -0.777325    15A     -0.704950
      16A     -0.644680    17A     -0.625576    18A     -0.604564
      19A     -0.591884    20A     -0.564361    21A     -0.541395
      22A     -0.520110    23A     -0.506843    24A     -0.493233
      25A     -0.477469    26A     -0.459414    27A     -0.456137
      28A     -0.447167    29A     -0.426583

  @DF-RHF Final Energy:  -310.32770992369103

   => Energetics <=

    Nuclear Repulsion Energy =            314.3696185455082741
    One-Electron Energy =               -1043.7708483331794014
    Two-Electron Energy =                 419.0735198639801524
    DFT Exchange-Correlation Energy =       0.0000000000000000
    Empirical Dispersion Energy =           0.0000000000000000
    PCM Polarization Energy =               0.0000000000000000
    EFP Energy =                            0.0000000000000000
    Total Energy =                       -310.3277099236909748
    Molecular point group: c1
  Basis Set: CC-PVTZ
  Basis Set:

  -Total Gradient:
     Atom            X                  Y                   Z
    ------   -----------------  -----------------  -----------------
       1       -0.000055405261     0.000057340182    -0.000047331434
       2       -0.001147972988    -0.001351069781    -0.000034298954
       3        0.001892908751     0.001993247823     0.000191669105
       4       -0.002024487320    -0.002636905296     0.000127670568
       5       -0.000016185932     0.000030510399    -0.000040700689
       6       -0.000015166299     0.000011706962    -0.000030507865
       7       -0.000057804871     0.000023212068     0.000005718945
       8        0.001420203409     0.001811556888    -0.000208931641
       9       -0.000034658480     0.000055353639     0.000031796877
      10       -0.000026700693     0.000017445744    -0.000009685456
      11       -0.000011022805    -0.000028076824    -0.000001883179
      12        0.000004673830     0.000019927143     0.000009621223
      13        0.000011347711    -0.000008057177     0.000013769062
      14        0.000003563516     0.000004784517     0.000005986921
      15        0.000004458501    -0.000000820957    -0.000013572392
      16        0.000016997908     0.000004411437    -0.000001155607
      17        0.000016783185     0.000001229104     0.000013226167
      18       -0.000004384783     0.000005337314    -0.000002717679
      19       -0.000002396140     0.000002616802    -0.000004817863
      20        0.000025843917    -0.000009898595     0.000001649084
      21       -0.000000595159    -0.000003851390    -0.000005505192

  **** Optimization is complete! (in 5 steps) ****
    Final optimized geometry and variables:
    Molecular point group: c1

    Geometry (in Angstrom), charge = 0, multiplicity = 1:

    H           -3.632068214058     1.540361437314    -0.601181231684
    O           -2.951350134957     0.931262621432    -0.821202165390
    C           -2.427127989456     0.352676699509     0.348474458345
    C           -1.281399731029    -0.587721333364    -0.034401051123
    H           -2.070794169794     1.126782177617     1.022742143960
    H           -3.208246090070    -0.195291687372     0.867737134190
    C            0.094945367063    -0.079952506374     0.392971881650
    H           -1.297711101153    -0.692305886431    -1.112507709739
    H           -1.451021748791    -1.572088371134     0.388114148439
    C            1.228859775846    -1.005075036265    -0.042293358606
    H            0.241495172546     0.912499644638    -0.021001182185
    H            0.120271716842     0.030604700189     1.475178434386
    C            2.620648753807    -0.585464749764     0.434122111474
    H            1.230462440234    -1.083044889086    -1.127025756104
    H            1.024242322333    -2.004775524347     0.331786388098
    C            3.134361042095     0.719830948615    -0.168740437847
    H            3.320258067036    -1.379295699832     0.190832401652
    H            2.619528425820    -0.505837795947     1.518171065525
    H            3.139812836754     0.671951564969    -1.252965664452
    H            2.525837845638     1.567883207207     0.120989839614
    H            4.148568357011     0.920741464497     0.157262810259

  Mulliken Charges: (a.u.)
   Center  Symbol    Alpha    Beta     Spin     Total
       1     H     0.39555  0.39555  0.00000  0.20890
       2     O     4.19809  4.19809  0.00000 -0.39619
       3     C     2.96696  2.96696  0.00000  0.06609
       4     C     3.09058  3.09058  0.00000 -0.18117
       5     H     0.47501  0.47501  0.00000  0.04999
       6     H     0.47120  0.47120  0.00000  0.05759
       7     C     3.09943  3.09943  0.00000 -0.19885
       8     H     0.44605  0.44605  0.00000  0.10790
       9     H     0.45134  0.45134  0.00000  0.09733
      10     C     3.09635  3.09635  0.00000 -0.19269
      11     H     0.44802  0.44802  0.00000  0.10396
      12     H     0.45674  0.45674  0.00000  0.08652
      13     C     3.09000  3.09000  0.00000 -0.18001
      14     H     0.45255  0.45255  0.00000  0.09489
      15     H     0.45044  0.45044  0.00000  0.09912
      16     C     3.15177  3.15177  0.00000 -0.30354
      17     H     0.44885  0.44885  0.00000  0.10230
      18     H     0.45555  0.45555  0.00000  0.08890
      19     H     0.45443  0.45443  0.00000  0.09115
      20     H     0.45396  0.45396  0.00000  0.09209
      21     H     0.44714  0.44714  0.00000  0.10572

   Total alpha = 29.00000, Total beta = 29.00000, Total charge = -0.00000
