  ==> Input File <==

--------------------------------------------------------------------------
set {
	reference rhf
	basis 6-31G*
}

set_num_threads( 1 )
memory 2 gb

molecule MOL {
0 1

H	 2.465338	 -2.224223	 0.000000
O	 2.784187	 -1.332015	 0.000000
C	 1.765313	 -0.449364	 0.000000
C	 2.043195	 0.846774	 -0.422789
C	 0.486891	 -0.788924	 0.398083
H	 3.044691	 1.085883	 -0.727242
C	 1.042294	 1.795855	 -0.445348
H	 0.244692	 -1.779766	 0.728382
C	 -0.494256	 0.188795	 0.362939
H	 1.265630	 2.794103	 -0.773188
C	 -0.250568	 1.479342	 -0.050163
N	 -1.844961	 -0.175699	 0.785107
H	 -1.037481	 2.204620	 -0.062151
O	 -2.030209	 -1.301122	 1.138857
O	 -2.683536	 0.671620	 0.751859

	symmetry c1
}
set optking {
	frozen_dihedral = ("
		11 9 12 14
	")
}

ee = energy('scf')
oeprop('DIPOLE', 'QUADRUPOLE', 'MULLIKEN_CHARGES')
f=open( 'psi4out.xyz', 'w' )
f.write( "15  " )
f.write( str(ee) + "\n" )
f.write( MOL.save_string_xyz() )
f.close()
--------------------------------------------------------------------------

    Molecular point group: c1

    Geometry (in Angstrom), charge = 0, multiplicity = 1:

       Center              X                  Y                   Z               Mass
    ------------   -----------------  -----------------  -----------------  -----------------
           H          2.433359498779    -2.261136786233    -0.276980051068     1.007825032070
           O          2.752208498779    -1.368928786233    -0.276980051068    15.994914619560
           C          1.733334498779    -0.486277786233    -0.276980051068    12.000000000000
           C          2.011216498779     0.809860213767    -0.699769051068    12.000000000000
           C          0.454912498779    -0.825837786233     0.121102948932    12.000000000000
           H          3.012712498779     1.048969213767    -1.004222051068     1.007825032070
           C          1.010315498779     1.758941213767    -0.722328051068    12.000000000000
           H          0.212713498779    -1.816679786233     0.451401948932     1.007825032070
           C         -0.526234501221     0.151881213767     0.085958948932    12.000000000000
           H          1.233651498779     2.757189213767    -1.050168051068     1.007825032070
           C         -0.282546501221     1.442428213767    -0.327143051068    12.000000000000
           N         -1.876939501221    -0.212612786233     0.508126948932    14.003074004780
           H         -1.069459501221     2.167706213767    -0.339131051068     1.007825032070
           O         -2.062187501221    -1.338035786233     0.861876948932    15.994914619560
           O         -2.715514501221     0.634706213767     0.474878948932    15.994914619560

  Charge       = 0
  Multiplicity = 1
  Basis Set: 6-31G*
  Basis Set:

    Orbital Energies (a.u.)
    -----------------------

    Doubly Occupied:

       1A    -20.614143     2A    -20.605072     3A    -20.604472
       4A    -15.859431     5A    -11.329446     6A    -11.310915
       7A    -11.267272     8A    -11.266615     9A    -11.264194
      10A    -11.260942    11A     -1.638226    12A     -1.435340
      13A     -1.421497    14A     -1.200464    15A     -1.094860
      16A     -1.046330    17A     -0.965886    18A     -0.877872
      19A     -0.828701    20A     -0.791278    21A     -0.750943
      22A     -0.737147    23A     -0.724007    24A     -0.707838
      25A     -0.673587    26A     -0.635597    27A     -0.621586
      28A     -0.586781    29A     -0.558269    30A     -0.543830
      31A     -0.515021    32A     -0.491943    33A     -0.489888
      34A     -0.454910    35A     -0.377275    36A     -0.344299

  @DF-RHF Final Energy:  -509.02716249202160

   => Energetics <=

    Nuclear Repulsion Energy =            503.4583639726762385
    One-Electron Energy =               -1693.1796684874434504
    Two-Electron Energy =                 680.6941420227467461
    DFT Exchange-Correlation Energy =       0.0000000000000000
    Empirical Dispersion Energy =           0.0000000000000000
    PCM Polarization Energy =               0.0000000000000000
    EFP Energy =                            0.0000000000000000
    Total Energy =                       -509.0271624920205795

  Mulliken Charges: (a.u.)
   Center  Symbol    Alpha    Beta     Spin     Total
       1     H     0.26749  0.26749  0.00000  0.46503
       2     O     4.37648  4.37648  0.00000 -0.75296
       3     C     2.79437  2.79437  0.00000  0.41126
       4     C     3.10769  3.10769  0.00000 -0.21539
       5     C     3.13454  3.13454  0.00000 -0.26908
       6     H     0.38094  0.38094  0.00000  0.23812
       7     C     3.10118  3.10118  0.00000 -0.20237
       8     H     0.36704  0.36704  0.00000  0.26593
       9     C     2.91410  2.91410  0.00000  0.17180
      10     H     0.38667  0.38667  0.00000  0.22666
      11     C     3.09704  3.09704  0.00000 -0.19408
      12     N     3.24020  3.24020  0.00000  0.51960
      13     H     0.36506  0.36506  0.00000  0.26987
      14     O     4.23538  4.23538  0.00000 -0.47076
      15     O     4.23181  4.23181  0.00000 -0.46362

   Total alpha = 36.00000, Total beta = 36.00000, Total charge = -0.00000
