                              Psi4 1.0.54 Driver

  ==> Input File <==

--------------------------------------------------------------------------
set {
	reference rhf
	basis cc-pvtz
}

set_num_threads( 4 )
memory 2 gb

molecule MOL {
0 1

H	 2.614283	 2.028610	 0.296620
O	 3.358864	 1.662087	 -0.142800
C	 3.565468	 0.338079	 0.273842
C	 2.533667	 -0.637565	 -0.272227
H	 4.548038	 0.064914	 -0.086598
H	 3.593945	 0.282242	 1.360360
C	 3.131304	 -1.851428	 -0.980193
H	 1.901696	 -0.966492	 0.547272
H	 1.895094	 -0.095226	 -0.965402
C	 2.066041	 -2.790961	 -1.543512
H	 3.763096	 -2.396071	 -0.286503
H	 3.774699	 -1.514650	 -1.791309
C	 2.608658	 -3.986958	 -2.327994
H	 1.440202	 -3.149624	 -0.729932
H	 1.412919	 -2.219535	 -2.197249
C	 3.379175	 -5.010346	 -1.495693
H	 1.771874	 -4.489603	 -2.805140
H	 3.243869	 -3.628108	 -3.134771
C	 3.813466	 -6.231271	 -2.302627
H	 2.758595	 -5.334607	 -0.663105
H	 4.259265	 -4.549295	 -1.057656
C	 4.586279	 -7.253324	 -1.475548
H	 2.936750	 -6.706493	 -2.734033
H	 4.426604	 -5.908263	 -3.139759
H	 3.987907	 -7.620171	 -0.648135
H	 4.876668	 -8.107097	 -2.077090
H	 5.489920	 -6.818958	 -1.060685

	symmetry c1
}
set optking {
	frozen_dihedral = ("
		8 4 3 2
	")
}

ee,wfn = optimize('scf', return_wfn=True)
oeprop( wfn, 'DIPOLE', 'QUADRUPOLE', 'MULLIKEN_CHARGES')
f=open( 'psi4out.xyz', 'w' )
f.write( "27  " )
f.write( str(ee) + "\n" )
f.write( MOL.save_string_xyz() )
f.close()
--------------------------------------------------------------------------

    Molecular point group: c1
  Charge       = 0
  Multiplicity = 1
  Basis Set: CC-PVTZ
  Basis Set:
  @DF-RHF Final Energy:  -388.42222376956107
    Total Energy =                       -388.4222237695610147
    Molecular point group: c1
  Basis Set: CC-PVTZ
  Basis Set:
  Basis Set: CC-PVTZ
  Basis Set:
  @DF-RHF Final Energy:  -388.42264577694090
    Total Energy =                       -388.4226457769408398
  Basis Set: CC-PVTZ
  Basis Set:
  Basis Set: CC-PVTZ
  Basis Set:
  @DF-RHF Final Energy:  -388.42271787445452
    Total Energy =                       -388.4227178744545199
  Basis Set: CC-PVTZ
  Basis Set:
  Basis Set: CC-PVTZ
  Basis Set:
  @DF-RHF Final Energy:  -388.42272304817459
    Total Energy =                       -388.4227230481748165
  Basis Set: CC-PVTZ
  Basis Set:
  Charge       = 0
  Multiplicity = 1
  Basis Set: CC-PVTZ
  Basis Set:

    Orbital Energies (a.u.)
    -----------------------

    Doubly Occupied:

       1A    -20.544961     2A    -11.264661     3A    -11.214314
       4A    -11.213067     5A    -11.212630     6A    -11.212490
       7A    -11.211418     8A    -11.210231     9A    -11.206183
      10A     -1.362280    11A     -1.094665    12A     -1.061272
      13A     -1.010300    14A     -0.944610    15A     -0.883655
      16A     -0.824374    17A     -0.804046    18A     -0.777110
      19A     -0.691375    20A     -0.648579    21A     -0.634600
      22A     -0.612427    23A     -0.610851    24A     -0.581087
      25A     -0.578178    26A     -0.556579    27A     -0.538895
      28A     -0.523934    29A     -0.510234    30A     -0.486153
      31A     -0.483922    32A     -0.475828    33A     -0.464473
      34A     -0.460453    35A     -0.456239    36A     -0.442863
      37A     -0.420443

  @DF-RHF Final Energy:  -388.42272304829959

   => Energetics <=

    Nuclear Repulsion Energy =            454.2616831176949859
    One-Electron Energy =               -1426.9100606199904178
    Two-Electron Energy =                 584.2256544539955030
    DFT Exchange-Correlation Energy =       0.0000000000000000
    Empirical Dispersion Energy =           0.0000000000000000
    PCM Polarization Energy =               0.0000000000000000
    EFP Energy =                            0.0000000000000000
    Total Energy =                       -388.4227230482999857
    Molecular point group: c1
  Basis Set: CC-PVTZ
  Basis Set:

  -Total Gradient:
     Atom            X                  Y                   Z
    ------   -----------------  -----------------  -----------------
       1        0.000112494509    -0.000080971803    -0.000037184603
       2        0.001177062801    -0.000323558795    -0.001557671612
       3       -0.001309860966    -0.000028718502     0.002335611903
       4       -0.001553539700     0.002425269146    -0.001210492816
       5       -0.000033381277     0.000040765290    -0.000022162136
       6       -0.000026309249     0.000045856021    -0.000005044698
       7       -0.000022770361    -0.000051294401    -0.000005057070
       8        0.001626894890    -0.002050511327     0.000499643341
       9        0.000037764932    -0.000012251646     0.000007589165
      10        0.000027259076     0.000014750553    -0.000045246539
      11        0.000010351834    -0.000016195448     0.000021880471
      12       -0.000018574352     0.000005538227     0.000007731006
      13       -0.000035863349    -0.000010233136    -0.000008780565
      14        0.000002695326     0.000007507062    -0.000016118937
      15        0.000005642694     0.000011865552    -0.000003259752
      16       -0.000025503022    -0.000004650315     0.000016882160
      17       -0.000002641035    -0.000002130260     0.000015854381
      18       -0.000017232572    -0.000005501285    -0.000014019042
      19        0.000020924786     0.000005727834     0.000001001602
      20       -0.000001065754    -0.000008234206    -0.000008574730
      21        0.000012121785     0.000028810767     0.000028849024
      22        0.000010894293     0.000002885881    -0.000001388799
      23       -0.000000640290     0.000007287969     0.000011013485
      24        0.000000813994    -0.000001524420    -0.000010420647
      25       -0.000001695873     0.000002082406    -0.000001980149
      26        0.000001635922    -0.000000397698    -0.000000132954
      27        0.000002520959    -0.000002173464     0.000001478515

  **** Optimization is complete! (in 5 steps) ****
    Final optimized geometry and variables:
    Molecular point group: c1

    Geometry (in Angstrom), charge = 0, multiplicity = 1:

    H           -0.655952306514     4.817934600251     1.282381277819
    O            0.144290620878     4.466977043067     0.936454689109
    C            0.305204509000     3.135742402113     1.352254577814
    C           -0.750184640318     2.180580532041     0.773339797739
    H            1.289519528338     2.850742637321     1.006480138230
    H            0.320525636260     3.078367017093     2.436932048833
    C           -0.143154818161     0.944013832364     0.111244613826
    H           -1.424243432311     1.850045169069     1.558527123133
    H           -1.340552690775     2.725879628903     0.045587193584
    C           -1.197342452981    -0.018663179804    -0.430732164990
    H            0.490920436796     0.434471649076     0.830654303380
    H            0.507157278283     1.260667099670    -0.700497182259
    C           -0.640882542059    -1.222093621826    -1.193925594055
    H           -1.818340334352    -0.370916945652     0.389808211718
    H           -1.858598503909     0.532362287637    -1.093920740766
    C            0.160119609773    -2.209446600627    -0.347155892576
    H           -1.472751045658    -1.752369185188    -1.649299373499
    H           -0.022253599073    -0.869435911183    -2.015879361791
    C            0.615657437948    -3.437170534212    -1.131607390642
    H           -0.445736610482    -2.530187561293     0.497729151201
    H            1.032768438698    -1.718491344331     0.072584894181
    C            1.420880900058    -4.422073475173    -0.290558354562
    H           -0.253435914186    -3.942561381798    -1.543755237150
    H            1.212798094389    -3.117995619359    -1.981544977213
    H            0.839305151767    -4.785545651488     0.550262275317
    H            1.726609163954    -5.281323324717    -0.876473550171
    H            2.317286169804    -3.956914986348     0.106080915296

  Mulliken Charges: (a.u.)
   Center  Symbol    Alpha    Beta     Spin     Total
       1     H     0.39470  0.39470  0.00000  0.21060
       2     O     4.20168  4.20168  0.00000 -0.40337
       3     C     2.96833  2.96833  0.00000  0.06334
       4     C     3.09988  3.09988  0.00000 -0.19976
       5     H     0.45864  0.45864  0.00000  0.08271
       6     H     0.46755  0.46755  0.00000  0.06491
       7     C     3.09971  3.09971  0.00000 -0.19941
       8     H     0.45557  0.45557  0.00000  0.08886
       9     H     0.45113  0.45113  0.00000  0.09774
      10     C     3.10089  3.10089  0.00000 -0.20178
      11     H     0.45171  0.45171  0.00000  0.09658
      12     H     0.45067  0.45067  0.00000  0.09866
      13     C     3.09807  3.09807  0.00000 -0.19615
      14     H     0.45383  0.45383  0.00000  0.09235
      15     H     0.44752  0.44752  0.00000  0.10496
      16     C     3.08801  3.08801  0.00000 -0.17602
      17     H     0.44848  0.44848  0.00000  0.10303
      18     H     0.45302  0.45302  0.00000  0.09395
      19     C     3.08402  3.08402  0.00000 -0.16804
      20     H     0.45555  0.45555  0.00000  0.08890
      21     H     0.45355  0.45355  0.00000  0.09290
      22     C     3.14974  3.14974  0.00000 -0.29949
      23     H     0.45409  0.45409  0.00000  0.09181
      24     H     0.45437  0.45437  0.00000  0.09125
      25     H     0.45544  0.45544  0.00000  0.08912
      26     H     0.44840  0.44840  0.00000  0.10320
      27     H     0.45543  0.45543  0.00000  0.08914

   Total alpha = 37.00000, Total beta = 37.00000, Total charge =  0.00000

*** Psi4 exiting successfully. Buy a developer a beer!
