  ==> Input File <==

--------------------------------------------------------------------------
set {
	reference rhf
	basis 6-31G*
}

set_num_threads( 1 )
memory 2 gb

molecule MOL {
0 1

O	 0.518492	 1.231105	 -0.533142
C	 0.486307	 0.169203	 0.000779
C	 1.608116	 -0.841643	 0.000302
O	 -0.562404	 -0.275679	 0.678931
C	 2.990107	 -0.200498	 -0.000684
H	 1.468623	 -1.481519	 -0.865924
H	 1.469683	 -1.481289	 0.866878
H	 3.129736	 0.423364	 -0.875135
H	 3.757882	 -0.966877	 -0.001197
H	 3.130964	 0.423383	 0.873533
C	 -1.700647	 0.575611	 0.763240
C	 -2.750942	 -0.150262	 1.577060
H	 -2.050892	 0.795869	 -0.235959
H	 -1.409771	 1.508417	 1.226766
H	 -3.027464	 -1.084816	 1.102400
H	 -3.639868	 0.465735	 1.666541
H	 -2.382952	 -0.368367	 2.573187

	symmetry c1
}
set optking {
	frozen_dihedral = ("
		2 4 11 13,
		11 4 2 3
	")
}

ee = energy('scf')
oeprop('DIPOLE', 'QUADRUPOLE', 'MULLIKEN_CHARGES')
f=open( 'psi4out.xyz', 'w' )
f.write( "17  " )
f.write( str(ee) + "\n" )
f.write( MOL.save_string_xyz() )
f.close()
--------------------------------------------------------------------------

    Molecular point group: c1

    Geometry (in Angstrom), charge = 0, multiplicity = 1:

       Center              X                  Y                   Z               Mass
    ------------   -----------------  -----------------  -----------------  -----------------
           O          0.446556152441     1.151442782966    -0.893694268138    15.994914619560
           C          0.414371152441     0.089540782966    -0.359773268138    12.000000000000
           C          1.536180152441    -0.921305217034    -0.360250268138    12.000000000000
           O         -0.634339847559    -0.355341217034     0.318378731862    15.994914619560
           C          2.918171152441    -0.280160217034    -0.361236268138    12.000000000000
           H          1.396687152441    -1.561181217034    -1.226476268138     1.007825032070
           H          1.397747152441    -1.560951217034     0.506325731862     1.007825032070
           H          3.057800152441     0.343701782966    -1.235687268138     1.007825032070
           H          3.685946152441    -1.046539217034    -0.361749268138     1.007825032070
           H          3.059028152441     0.343720782966     0.512980731862     1.007825032070
           C         -1.772582847559     0.495948782966     0.402687731862    12.000000000000
           C         -2.822877847559    -0.229924217034     1.216507731862    12.000000000000
           H         -2.122827847559     0.716206782966    -0.596511268138     1.007825032070
           H         -1.481706847559     1.428754782966     0.866213731862     1.007825032070
           H         -3.099399847559    -1.164478217034     0.741847731862     1.007825032070
           H         -3.711803847559     0.386072782966     1.305988731862     1.007825032070
           H         -2.454887847559    -0.448029217034     2.212634731862     1.007825032070

  Charge       = 0
  Multiplicity = 1
  Basis Set: 6-31G*
  Basis Set:

    Orbital Energies (a.u.)
    -----------------------

    Doubly Occupied:

       1A    -20.601965     2A    -20.543220     3A    -11.371199
       4A    -11.284632     5A    -11.236658     6A    -11.222365
       7A    -11.218634     8A     -1.467665     9A     -1.361586
      10A     -1.070558    11A     -1.032005    12A     -0.911028
      13A     -0.848519    14A     -0.774030    15A     -0.694643
      16A     -0.688248    17A     -0.665189    18A     -0.625443
      19A     -0.586897    20A     -0.573653    21A     -0.557251
      22A     -0.526889    23A     -0.525002    24A     -0.510877
      25A     -0.503932    26A     -0.491417    27A     -0.452454
      28A     -0.434502

  @DF-RHF Final Energy:  -344.91086601119468

   => Energetics <=

    Nuclear Repulsion Energy =            314.7750680056357169
    One-Electron Energy =               -1093.8109343549754158
    Two-Electron Energy =                 434.1250003381452984
    DFT Exchange-Correlation Energy =       0.0000000000000000
    Empirical Dispersion Energy =           0.0000000000000000
    PCM Polarization Energy =               0.0000000000000000
    EFP Energy =                            0.0000000000000000
    Total Energy =                       -344.9108660111944005

  Mulliken Charges: (a.u.)
   Center  Symbol    Alpha    Beta     Spin     Total
       1     O     4.28639  4.28639  0.00000 -0.57278
       2     C     2.60420  2.60420  0.00000  0.79159
       3     C     3.20713  3.20713  0.00000 -0.41426
       4     O     4.31237  4.31237  0.00000 -0.62475
       5     C     3.24248  3.24248  0.00000 -0.48495
       6     H     0.39970  0.39970  0.00000  0.20060
       7     H     0.40094  0.40094  0.00000  0.19813
       8     H     0.40447  0.40447  0.00000  0.19105
       9     H     0.41633  0.41633  0.00000  0.16734
      10     H     0.41441  0.41441  0.00000  0.17118
      11     C     3.00286  3.00286  0.00000 -0.00573
      12     C     3.24845  3.24845  0.00000 -0.49691
      13     H     0.41021  0.41021  0.00000  0.17959
      14     H     0.41005  0.41005  0.00000  0.17989
      15     H     0.41181  0.41181  0.00000  0.17637
      16     H     0.41626  0.41626  0.00000  0.16747
      17     H     0.41192  0.41192  0.00000  0.17616

   Total alpha = 28.00000, Total beta = 28.00000, Total charge = -0.00000
