                              Psi4 1.0.54 Driver

  ==> Input File <==

--------------------------------------------------------------------------
set {
	reference rhf
	basis cc-pvtz
}

set_num_threads( 4 )
memory 2 gb

molecule MOL {
0 1

H	 -0.366580	 2.045936	 -0.305741
C	 0.351829	 1.335402	 0.083179
N	 -0.000018	 0.000080	 -0.334836
H	 1.327156	 1.599860	 -0.305475
H	 0.380566	 1.445403	 1.171445
C	 0.416531	 -0.268589	 -1.690079
C	 0.483797	 -0.999344	 0.586747
H	 0.076008	 -1.250396	 -1.993710
H	 -0.020244	 0.459085	 -2.362317
H	 1.502996	 -0.234216	 -1.814509
H	 0.096137	 -0.806074	 1.578991
H	 0.143414	 -1.980424	 0.280565
H	 1.575801	 -1.024877	 0.649894

	symmetry c1
}
set optking {
	frozen_dihedral = ("
		6 3 2 1
	")
}

ee,wfn = optimize('scf', return_wfn=True)
oeprop( wfn, 'DIPOLE', 'QUADRUPOLE', 'MULLIKEN_CHARGES')
f=open( 'psi4out.xyz', 'w' )
f.write( "13  " )
f.write( str(ee) + "\n" )
f.write( MOL.save_string_xyz() )
f.close()
--------------------------------------------------------------------------

    Molecular point group: c1
  Charge       = 0
  Multiplicity = 1
  Basis Set: CC-PVTZ
  Basis Set:
  @DF-RHF Final Energy:  -173.33100997598675
    Total Energy =                       -173.3310099759868308
    Molecular point group: c1
  Basis Set: CC-PVTZ
  Basis Set:
  Basis Set: CC-PVTZ
  Basis Set:
  @DF-RHF Final Energy:  -173.33198081811679
    Total Energy =                       -173.3319808181167332
  Basis Set: CC-PVTZ
  Basis Set:
  Basis Set: CC-PVTZ
  Basis Set:
  @DF-RHF Final Energy:  -173.33209375544479
    Total Energy =                       -173.3320937554447880
  Basis Set: CC-PVTZ
  Basis Set:
  Charge       = 0
  Multiplicity = 1
  Basis Set: CC-PVTZ
  Basis Set:

    Orbital Energies (a.u.)
    -----------------------

    Doubly Occupied:

       1A    -15.539665     2A    -11.234135     3A    -11.233997
       4A    -11.233977     5A     -1.226017     6A     -0.952223
       7A     -0.951142     8A     -0.807600     9A     -0.643362
      10A     -0.631054    11A     -0.628640    12A     -0.549377
      13A     -0.543507    14A     -0.514907    15A     -0.501787
      16A     -0.498870    17A     -0.350553

  @DF-RHF Final Energy:  -173.33209750184247

   => Energetics <=

    Nuclear Repulsion Energy =            139.4049840772476330
    One-Electron Energy =                -509.3925400692645553
    Two-Electron Energy =                 196.6554584901744533
    DFT Exchange-Correlation Energy =       0.0000000000000000
    Empirical Dispersion Energy =           0.0000000000000000
    PCM Polarization Energy =               0.0000000000000000
    EFP Energy =                            0.0000000000000000
    Total Energy =                       -173.3320975018424974
    Molecular point group: c1
  Basis Set: CC-PVTZ
  Basis Set:

  -Total Gradient:
     Atom            X                  Y                   Z
    ------   -----------------  -----------------  -----------------
       1       -0.002598511087    -0.000544943633     0.003844700377
       2        0.004209274087     0.000275241245    -0.004453996638
       3       -0.004695721603     0.001467287846    -0.000546849386
       4        0.000082262931    -0.000005222554    -0.000019355867
       5        0.000010529130    -0.000002555518    -0.000067088802
       6        0.003058745553    -0.001084716650     0.001398698258
       7       -0.000142625499     0.000003085721    -0.000160925223
       8        0.000002304201    -0.000011233943     0.000013245685
       9       -0.000007507394     0.000015380612    -0.000034567334
      10        0.000021102507    -0.000016517101    -0.000018108362
      11        0.000028110532    -0.000006015156    -0.000013028119
      12        0.000028829009    -0.000091951152     0.000045862492
      13        0.000003207633     0.000002160284     0.000011412919

  **** Optimization is complete! (in 4 steps) ****
    Final optimized geometry and variables:
    Molecular point group: c1

    Geometry (in Angstrom), charge = 0, multiplicity = 1:

    H           -0.734369715825     2.025917086565     0.070365093936
    C           -0.008947720787     1.313718381553     0.446208655143
    N           -0.342944326772    -0.025048678262     0.008874837420
    H            0.992700778475     1.625494320346     0.144089576231
    H           -0.058286658056     1.366899538938     1.526332415676
    C            0.081880443684    -0.257196183001    -1.351400925878
    C            0.183604841386    -1.037275236144     0.895978514268
    H           -0.259468942098    -1.227914679893    -1.688309154155
    H           -0.346553028384     0.491730051318    -2.006555033820
    H            1.169306076980    -0.220318699829    -1.464247627798
    H           -0.210114311381    -0.898127917990     1.894422718504
    H           -0.118936215403    -2.018887183351     0.553116780748
    H            1.276161785555    -1.025927690651     0.957181750788

  Mulliken Charges: (a.u.)
   Center  Symbol    Alpha    Beta     Spin     Total
       1     H     0.45053  0.45053  0.00000  0.09893
       2     C     3.08885  3.08885  0.00000 -0.17770
       3     N     3.59741  3.59741  0.00000 -0.19483
       4     H     0.47106  0.47106  0.00000  0.05788
       5     H     0.45550  0.45550  0.00000  0.08901
       6     C     3.09042  3.09042  0.00000 -0.18084
       7     C     3.08877  3.08877  0.00000 -0.17754
       8     H     0.45278  0.45278  0.00000  0.09444
       9     H     0.45241  0.45241  0.00000  0.09519
      10     H     0.47309  0.47309  0.00000  0.05382
      11     H     0.45214  0.45214  0.00000  0.09572
      12     H     0.45284  0.45284  0.00000  0.09432
      13     H     0.47420  0.47420  0.00000  0.05160

   Total alpha = 17.00000, Total beta = 17.00000, Total charge = -0.00000

*** Psi4 exiting successfully. Buy a developer a beer!
