  ==> Input File <==

--------------------------------------------------------------------------
set {
	reference rhf
	basis cc-pvtz
}

set_num_threads( 4 )
memory 2 gb

molecule MOL {
0 1

H	 -1.150778	 -0.161954	 0.787991
N	 -0.712187	 0.000026	 -0.093397
C	 0.734067	 -0.000020	 0.038424
H	 -1.039978	 0.881219	 -0.427308
H	 1.140372	 -0.872115	 -0.458226
H	 1.140363	 0.872301	 -0.457869
H	 1.095085	 -0.000244	 1.065614

	symmetry c1
}
set optking {
	frozen_dihedral = ("
		1 2 3 7
	")
}

ee = optimize('scf')
oeprop('DIPOLE', 'QUADRUPOLE', 'MULLIKEN_CHARGES')
f=open( 'psi4out.xyz', 'w' )
f.write( "7  " )
f.write( str(ee) + "\n" )
f.write( MOL.save_string_xyz() )
f.close()
--------------------------------------------------------------------------

    Molecular point group: c1
  Charge       = 0
  Multiplicity = 1
  Basis Set: CC-PVTZ
  Basis Set:
  @DF-RHF Final Energy:   -95.25027197888994
    Total Energy =                        -95.2502719788899697
    Molecular point group: c1
  Basis Set: CC-PVTZ
  Basis Set:
  Basis Set: CC-PVTZ
  Basis Set:
  @DF-RHF Final Energy:   -95.25057508257686
    Total Energy =                        -95.2505750825768587
  Basis Set: CC-PVTZ
  Basis Set:
  Basis Set: CC-PVTZ
  Basis Set:
  @DF-RHF Final Energy:   -95.25064223870125
    Total Energy =                        -95.2506422387012321
  Basis Set: CC-PVTZ
  Basis Set:
  Charge       = 0
  Multiplicity = 1
  Basis Set: CC-PVTZ
  Basis Set:

    Orbital Energies (a.u.)
    -----------------------

    Doubly Occupied:

       1A    -15.526905     2A    -11.235682     3A     -1.169582
       4A     -0.898101     5A     -0.665324     6A     -0.600471
       7A     -0.559601     8A     -0.518308     9A     -0.384437

  @DF-RHF Final Energy:   -95.25064256401478

   => Energetics <=

    Nuclear Repulsion Energy =             42.2996085535832833
    One-Electron Energy =                -211.9836819468702345
    Two-Electron Energy =                  74.4334308292721687
    DFT Exchange-Correlation Energy =       0.0000000000000000
    Empirical Dispersion Energy =           0.0000000000000000
    PCM Polarization Energy =               0.0000000000000000
    EFP Energy =                            0.0000000000000000
    Total Energy =                        -95.2506425640147825
    Molecular point group: c1
  Basis Set: CC-PVTZ
  Basis Set:

  -Total Gradient:
     Atom            X                  Y                   Z
    ------   -----------------  -----------------  -----------------
       1       -0.000051225743     0.001501080548     0.000293156226
       2        0.000039016180    -0.002363892724    -0.000360483157
       3       -0.000016317083     0.002289793539     0.000069845658
       4        0.000006814710     0.000026027007     0.000002969944
       5       -0.000023057338    -0.000011042389     0.000002162586
       6        0.000031662109    -0.000011660258    -0.000009304708
       7        0.000013107165    -0.001430305724     0.000001653451

  **** Optimization is complete! (in 4 steps) ****
    Final optimized geometry and variables:
    Molecular point group: c1

    Geometry (in Angstrom), charge = 0, multiplicity = 1:

    H           -1.152754519362    -0.186188917338     0.805872388080
    N           -0.717484446556    -0.022913691904    -0.075026991464
    C            0.737316620020    -0.022739912422     0.038440314882
    H           -1.053947987956     0.854635388800    -0.404589442328
    H            1.155718936022    -0.900514967858    -0.440703182789
    H            1.165487984651     0.846452943808    -0.445400849736
    H            1.075373118963    -0.025253344673     1.069570141903

  Mulliken Charges: (a.u.)
   Center  Symbol    Alpha    Beta     Spin     Total
       1     H     0.42826  0.42826  0.00000  0.14349
       2     N     3.68675  3.68675  0.00000 -0.37349
       3     C     3.06942  3.06942  0.00000 -0.13884
       4     H     0.42778  0.42778  0.00000  0.14445
       5     H     0.46099  0.46099  0.00000  0.07802
       6     H     0.46126  0.46126  0.00000  0.07748
       7     H     0.46555  0.46555  0.00000  0.06891

   Total alpha =  9.00000, Total beta =  9.00000, Total charge = -0.00000
