  ==> Input File <==

--------------------------------------------------------------------------
set {
	reference rhf
	basis cc-pvtz
}

set_num_threads( 4 )
memory 2 gb

molecule MOL {
0 1

H	 -1.635885	 2.244530	 -0.612486
C	 -1.190210	 2.261137	 0.373069
C	 0.126440	 1.500233	 0.389517
H	 -1.901267	 1.821450	 1.059574
H	 -1.031016	 3.293824	 0.659631
C	 0.000000	 0.039916	 0.000014
H	 0.583216	 1.539846	 1.374750
H	 0.846332	 1.959255	 -0.282753
C	 1.286532	 -0.763243	 0.000268
O	 -1.044655	 -0.445949	 -0.288101
C	 2.547023	 0.087626	 -0.000114
H	 1.264245	 -1.421103	 -0.864380
H	 1.264290	 -1.420353	 0.865489
H	 2.584452	 0.725630	 -0.872909
H	 3.427035	 -0.544422	 0.000125
H	 2.584484	 0.726356	 0.872143

	symmetry c1
}
set optking {
	frozen_dihedral = ("
		3 6 9 12
	")
}

ee = optimize('scf')
oeprop('DIPOLE', 'QUADRUPOLE', 'MULLIKEN_CHARGES')
f=open( 'psi4out.xyz', 'w' )
f.write( "16  " )
f.write( str(ee) + "\n" )
f.write( MOL.save_string_xyz() )
f.close()
--------------------------------------------------------------------------

    Molecular point group: c1
  Charge       = 0
  Multiplicity = 1
  Basis Set: CC-PVTZ
  Basis Set:
  @DF-RHF Final Energy:  -270.12507653974080
    Total Energy =                       -270.1250765397404052
    Molecular point group: c1
  Basis Set: CC-PVTZ
  Basis Set:
  Basis Set: CC-PVTZ
  Basis Set:
  @DF-RHF Final Energy:  -270.12659822116643
    Total Energy =                       -270.1265982211664323
  Basis Set: CC-PVTZ
  Basis Set:
  Basis Set: CC-PVTZ
  Basis Set:
  @DF-RHF Final Energy:  -270.12750810675101
    Total Energy =                       -270.1275081067510087
  Basis Set: CC-PVTZ
  Basis Set:
  Basis Set: CC-PVTZ
  Basis Set:
  @DF-RHF Final Energy:  -270.12744393854439
    Total Energy =                       -270.1274439385440473
  Basis Set: CC-PVTZ
  Basis Set:
  Basis Set: CC-PVTZ
  Basis Set:
  @DF-RHF Final Energy:  -270.12750917692961
    Total Energy =                       -270.1275091769296068
  Basis Set: CC-PVTZ
  Basis Set:
  Basis Set: CC-PVTZ
  Basis Set:
  @DF-RHF Final Energy:  -270.12758058711825
    Total Energy =                       -270.1275805871181319
  Basis Set: CC-PVTZ
  Basis Set:
  Charge       = 0
  Multiplicity = 1
  Basis Set: CC-PVTZ
  Basis Set:

    Orbital Energies (a.u.)
    -----------------------

    Doubly Occupied:

       1A    -20.535141     2A    -11.318373     3A    -11.232357
       4A    -11.231786     5A    -11.225368     6A    -11.211157
       7A     -1.396827     8A     -1.072916     9A     -1.036133
      10A     -0.907788    11A     -0.867951    12A     -0.722856
      13A     -0.657211    14A     -0.648086    15A     -0.632509
      16A     -0.609935    17A     -0.553915    18A     -0.542509
      19A     -0.538131    20A     -0.511540    21A     -0.507218
      22A     -0.503004    23A     -0.474504    24A     -0.398114

  @DF-RHF Final Energy:  -270.12758114793695

   => Energetics <=

    Nuclear Repulsion Energy =            240.8623057126946492
    One-Electron Energy =                -843.3091161046457955
    Two-Electron Energy =                 332.3192292440144229
    DFT Exchange-Correlation Energy =       0.0000000000000000
    Empirical Dispersion Energy =           0.0000000000000000
    PCM Polarization Energy =               0.0000000000000000
    EFP Energy =                            0.0000000000000000
    Total Energy =                       -270.1275811479367803
    Molecular point group: c1
  Basis Set: CC-PVTZ
  Basis Set:

  -Total Gradient:
     Atom            X                  Y                   Z
    ------   -----------------  -----------------  -----------------
       1        0.000005062315    -0.000003343026    -0.000005942536
       2       -0.000007615738    -0.000014512130     0.000037950498
       3        0.000171256741     0.000269783230    -0.001026980669
       4       -0.000009537777     0.000005390561    -0.000001975452
       5        0.000003147044    -0.000006938015    -0.000002224163
       6       -0.000118718089    -0.000209906443     0.001316992656
       7       -0.000001663256    -0.000020073269     0.000001469240
       8        0.000002396372     0.000007635690     0.000010603577
       9       -0.000597346994    -0.000918272806     0.000352811123
      10       -0.000003265397     0.000013536904    -0.000003357310
      11        0.000003803415    -0.000013406205    -0.000009765532
      12        0.000566517916     0.000887779454    -0.000688535310
      13       -0.000003215549    -0.000013108557     0.000006416019
      14        0.000006353020    -0.000000751344     0.000001016478
      15       -0.000011642976     0.000002018760     0.000001316525
      16       -0.000005531046     0.000014167197     0.000010204855

  **** Optimization is complete! (in 7 steps) ****
    Final optimized geometry and variables:
    Molecular point group: c1

    Geometry (in Angstrom), charge = 0, multiplicity = 1:

    H           -2.027157260467     1.737687760557    -0.664785202734
    C           -1.559718751967     1.783903778395     0.309471614002
    C           -0.204676898333     1.093842955353     0.297468777611
    H           -2.230348712498     1.311609750800     1.014677946453
    H           -1.447417817365     2.825163097306     0.587334410163
    C           -0.271061524067    -0.370703495613    -0.082956699189
    H            0.272859429714     1.163856988987     1.271147744539
    H            0.473058030687     1.587387559774    -0.392483318876
    C            1.007181539601    -1.200136454335    -0.084617038000
    O           -1.300598522278    -0.891717108705    -0.367119697414
    C            2.342118807453    -0.461283779884    -0.070351886505
    H            0.945227345242    -1.840975681180    -0.954928923059
    H            0.935991769322    -1.853163439448     0.780226969591
    H            2.457943852566     0.175418062240    -0.939642340139
    H            3.154818351005    -1.176886635367    -0.081771669361
    H            2.462761807003     0.153411916042     0.812884770231

  Mulliken Charges: (a.u.)
   Center  Symbol    Alpha    Beta     Spin     Total
       1     H     0.44731  0.44731  0.00000  0.10538
       2     C     3.14196  3.14196  0.00000 -0.28392
       3     C     3.10567  3.10567  0.00000 -0.21133
       4     H     0.44783  0.44783  0.00000  0.10435
       5     H     0.45096  0.45096  0.00000  0.09809
       6     C     2.87201  2.87201  0.00000  0.25598
       7     H     0.44348  0.44348  0.00000  0.11305
       8     H     0.44338  0.44338  0.00000  0.11324
       9     C     3.08927  3.08927  0.00000 -0.17854
      10     O     4.17728  4.17728  0.00000 -0.35457
      11     C     3.15932  3.15932  0.00000 -0.31864
      12     H     0.43701  0.43701  0.00000  0.12599
      13     H     0.44200  0.44200  0.00000  0.11600
      14     H     0.45004  0.45004  0.00000  0.09991
      15     H     0.44121  0.44121  0.00000  0.11759
      16     H     0.45128  0.45128  0.00000  0.09744

   Total alpha = 24.00000, Total beta = 24.00000, Total charge = -0.00000
