  ==> Input File <==

--------------------------------------------------------------------------
set {
	reference rhf
	basis 6-31G*
}

set_num_threads( 4 )
memory 2 gb

molecule MOL {
0 1

H	 -2.172150	 0.880146	 0.502514
C	 -2.018062	 -0.000025	 -0.114509
O	 -0.774054	 0.001095	 -0.743181
H	 -2.760490	 0.003458	 -0.901350
H	 -2.173624	 -0.884374	 0.496163
C	 -0.353102	 -1.141418	 -1.467056
C	 1.024849	 -0.747352	 -1.994290
C	 -0.231921	 -2.362797	 -0.550138
C	 -1.296970	 -1.432653	 -2.638129
H	 1.687864	 -0.514645	 -1.168645
H	 0.946623	 0.133399	 -2.621612
H	 1.464816	 -1.550263	 -2.576890
H	 0.380188	 -2.124709	 0.313381
H	 0.233026	 -3.187018	 -1.081255
H	 -1.198229	 -2.708076	 -0.198592
H	 -1.432740	 -0.541359	 -3.241630
H	 -0.883304	 -2.212363	 -3.269370
H	 -2.272110	 -1.770064	 -2.303636

	symmetry c1
}
set optking {
	frozen_dihedral = ("
		6 3 2 5
	")
}

ee = optimize('scf')
oeprop('DIPOLE', 'QUADRUPOLE', 'MULLIKEN_CHARGES')
f=open( 'psi4out.xyz', 'w' )
f.write( "18  " )
f.write( str(ee) + "\n" )
f.write( MOL.save_string_xyz() )
f.close()
--------------------------------------------------------------------------

    Molecular point group: c1
  Charge       = 0
  Multiplicity = 1
  Basis Set: 6-31G*
  Basis Set:
  @DF-RHF Final Energy:  -271.17282410482522
    Total Energy =                       -271.1728241048252812
    Molecular point group: c1
  Basis Set: 6-31G*
  Basis Set:
  Basis Set: 6-31G*
  Basis Set:
  @DF-RHF Final Energy:  -271.17484551837799
    Total Energy =                       -271.1748455183781630
  Basis Set: 6-31G*
  Basis Set:
  Basis Set: 6-31G*
  Basis Set:
  @DF-RHF Final Energy:  -271.17536026831573
    Total Energy =                       -271.1753602683156714
  Basis Set: 6-31G*
  Basis Set:
  Basis Set: 6-31G*
  Basis Set:
  @DF-RHF Final Energy:  -271.17526399390488
    Total Energy =                       -271.1752639939047640
  Basis Set: 6-31G*
  Basis Set:
  @DF-RHF Final Energy:  -271.17540182996413
    Total Energy =                       -271.1754018299642439
  Basis Set: 6-31G*
  Basis Set:
  @DF-RHF Final Energy:  -271.17538741116323
    Total Energy =                       -271.1753874111633422
  Basis Set: 6-31G*
  Basis Set:
  Basis Set: 6-31G*
  Basis Set:
  @DF-RHF Final Energy:  -271.17540682566471
    Total Energy =                       -271.1754068256646519
  Basis Set: 6-31G*
  Basis Set:
  Basis Set: 6-31G*
  Basis Set:
  @DF-RHF Final Energy:  -271.17540851647163
    Total Energy =                       -271.1754085164718617
  Basis Set: 6-31G*
  Basis Set:
  Charge       = 0
  Multiplicity = 1
  Basis Set: 6-31G*
  Basis Set:

    Orbital Energies (a.u.)
    -----------------------

    Doubly Occupied:

       1A    -20.546679     2A    -11.281325     3A    -11.260725
       4A    -11.209641     5A    -11.207769     6A    -11.203262
       7A     -1.369987     8A     -1.072967     9A     -0.946176
      10A     -0.939469    11A     -0.912449    12A     -0.752402
      13A     -0.655318    14A     -0.644329    15A     -0.637625
      16A     -0.592211    17A     -0.574178    18A     -0.552822
      19A     -0.534469    20A     -0.524007    21A     -0.514717
      22A     -0.488172    23A     -0.486396    24A     -0.439016
      25A     -0.403915

  @DF-RHF Final Energy:  -271.17540841067319

   => Energetics <=

    Nuclear Repulsion Energy =            272.3287106176520638
    One-Electron Energy =                -907.5081884360679396
    Two-Electron Energy =                 364.0040694077426906
    DFT Exchange-Correlation Energy =       0.0000000000000000
    Empirical Dispersion Energy =           0.0000000000000000
    PCM Polarization Energy =               0.0000000000000000
    EFP Energy =                            0.0000000000000000
    Total Energy =                       -271.1754084106731852
    Molecular point group: c1
  Basis Set: 6-31G*
  Basis Set:

  -Total Gradient:
     Atom            X                  Y                   Z
    ------   -----------------  -----------------  -----------------
       1       -0.000009651075     0.000005985336     0.000004631624
       2        0.000366938335     0.000217948675     0.000889875156
       3       -0.000285775880     0.000236113785    -0.000709909659
       4        0.000011064969     0.000003606824     0.000004406962
       5       -0.000223432961    -0.000245685031    -0.000498623685
       6        0.000107836461    -0.000179237569     0.000353197360
       7       -0.000000542519    -0.000031473544     0.000009366135
       8        0.000016816949     0.000039287351     0.000000562931
       9        0.000014864953    -0.000038979761    -0.000043435551
      10        0.000011043636     0.000014681687    -0.000002714142
      11       -0.000022645980    -0.000016134886    -0.000000640508
      12        0.000013133396    -0.000010223385     0.000016057331
      13       -0.000013608017    -0.000007503332     0.000013886789
      14        0.000016837390     0.000005804117    -0.000007223205
      15        0.000000306923     0.000009806394    -0.000011838158
      16        0.000000893680    -0.000000706619    -0.000001795482
      17       -0.000014002371    -0.000001496414    -0.000012709023
      18        0.000009922111    -0.000001793630    -0.000003094872

  **** Optimization is complete! (in 9 steps) ****
    Final optimized geometry and variables:
    Molecular point group: c1

    Geometry (in Angstrom), charge = 0, multiplicity = 1:

    H           -1.463466989250     1.787910515572     1.749747873531
    C           -1.429066054451     0.952573389108     1.063153570153
    O           -0.139304830442     0.920250022928     0.534901710261
    H           -2.180098062664     1.110537735886     0.294337750842
    H           -1.681940032095     0.049286782305     1.609660199507
    C            0.279802437975    -0.204892687209    -0.216957664700
    C            1.645950282203     0.207962688868    -0.759925497643
    C            0.427896976772    -1.433813072745     0.686043385601
    C           -0.679610108887    -0.492825351048    -1.375676537049
    H            2.314635510120     0.449898033120     0.058419152207
    H            1.549170127559     1.087290937650    -1.386698896801
    H            2.090692533318    -0.589412181106    -1.346570142405
    H            1.064304498455    -1.199973748549     1.532647446147
    H            0.876950859287    -2.254978027411     0.136552689879
    H           -0.527206219334    -1.781514023706     1.064398559715
    H           -0.830749970268     0.400819959143    -1.972271868170
    H           -0.270942068413    -1.265623339576    -2.018415447344
    H           -1.647339333345    -0.837806805222    -1.026948804945

  Mulliken Charges: (a.u.)
   Center  Symbol    Alpha    Beta     Spin     Total
       1     H     0.41295  0.41295  0.00000  0.17410
       2     C     3.07931  3.07931  0.00000 -0.15861
       3     O     4.31877  4.31877  0.00000 -0.63753
       4     H     0.42819  0.42819  0.00000  0.14362
       5     H     0.43074  0.43074  0.00000  0.13852
       6     C     2.84288  2.84288  0.00000  0.31425
       7     C     3.23303  3.23303  0.00000 -0.46605
       8     C     3.24444  3.24444  0.00000 -0.48889
       9     C     3.24949  3.24949  0.00000 -0.49897
      10     H     0.41366  0.41366  0.00000  0.17268
      11     H     0.41467  0.41467  0.00000  0.17066
      12     H     0.42512  0.42512  0.00000  0.14977
      13     H     0.41322  0.41322  0.00000  0.17356
      14     H     0.42082  0.42082  0.00000  0.15836
      15     H     0.42069  0.42069  0.00000  0.15862
      16     H     0.41352  0.41352  0.00000  0.17295
      17     H     0.41869  0.41869  0.00000  0.16263
      18     H     0.41983  0.41983  0.00000  0.16034

   Total alpha = 25.00000, Total beta = 25.00000, Total charge =  0.00000
