  ==> Input File <==

--------------------------------------------------------------------------
set {
	reference rhf
	basis 6-31G*
}

set_num_threads( 4 )
memory 2 gb

molecule MOL {
0 1

H	 -2.579234	 -0.539523	 -0.268126
N	 -1.838649	 0.134945	 -0.257814
C	 -0.563778	 -0.502042	 0.037919
H	 -2.068365	 0.806545	 0.449958
C	 0.575259	 0.508231	 -0.048326
H	 -0.405486	 -1.282971	 -0.699841
H	 -0.542354	 -0.987633	 1.016943
C	 1.954651	 -0.143624	 0.035137
H	 0.475158	 1.060484	 -0.977307
H	 0.469181	 1.234488	 0.755973
H	 2.103292	 -0.853109	 -0.774172
H	 2.742821	 0.599562	 -0.030094
H	 2.083613	 -0.679371	 0.971560

	symmetry c1
}
set optking {
	frozen_dihedral = ("
		6 3 5 9
	")
}

ee = optimize('scf')
oeprop('DIPOLE', 'QUADRUPOLE', 'MULLIKEN_CHARGES')
f=open( 'psi4out.xyz', 'w' )
f.write( "13  " )
f.write( str(ee) + "\n" )
f.write( MOL.save_string_xyz() )
f.close()
--------------------------------------------------------------------------

    Molecular point group: c1
  Charge       = 0
  Multiplicity = 1
  Basis Set: 6-31G*
  Basis Set:
  @DF-RHF Final Energy:  -173.28215136306892
    Total Energy =                       -173.2821513630688912
    Molecular point group: c1
  Basis Set: 6-31G*
  Basis Set:
  Basis Set: 6-31G*
  Basis Set:
  @DF-RHF Final Energy:  -173.28218035930038
    Total Energy =                       -173.2821803593003835
  Basis Set: 6-31G*
  Basis Set:
  Basis Set: 6-31G*
  Basis Set:
  @DF-RHF Final Energy:  -173.28219369433779
    Total Energy =                       -173.2821936943377921
  Basis Set: 6-31G*
  Basis Set:
  Charge       = 0
  Multiplicity = 1
  Basis Set: 6-31G*
  Basis Set:

    Orbital Energies (a.u.)
    -----------------------

    Doubly Occupied:

       1A    -15.533090     2A    -11.240072     3A    -11.211934
       4A    -11.209311     5A     -1.177136     6A     -1.035101
       7A     -0.898677     8A     -0.800089     9A     -0.659728
      10A     -0.632443    11A     -0.601494    12A     -0.565889
      13A     -0.531175    14A     -0.491986    15A     -0.476330
      16A     -0.468563    17A     -0.381640

  @DF-RHF Final Energy:  -173.28219403608446

   => Energetics <=

    Nuclear Repulsion Energy =            131.7650465578715000
    One-Electron Energy =                -494.2651693457652868
    Two-Electron Energy =                 189.2179287518093815
    DFT Exchange-Correlation Energy =       0.0000000000000000
    Empirical Dispersion Energy =           0.0000000000000000
    PCM Polarization Energy =               0.0000000000000000
    EFP Energy =                            0.0000000000000000
    Total Energy =                       -173.2821940360844337
    Molecular point group: c1
  Basis Set: 6-31G*
  Basis Set:

  -Total Gradient:
     Atom            X                  Y                   Z
    ------   -----------------  -----------------  -----------------
       1        0.000005662131    -0.000014733467    -0.000001900779
       2        0.000006541124     0.000017032217    -0.000042222997
       3       -0.001304653391     0.001392071329    -0.001168580751
       4        0.000018491590    -0.000005932703     0.000009874531
       5        0.001395615388    -0.001653364171    -0.000723975761
       6        0.000873442504    -0.000889675105     0.001148602300
       7        0.000000587692    -0.000029098249     0.000011676773
       8       -0.000012448837    -0.000011436541    -0.000009147949
       9       -0.000951010660     0.001174054668     0.000783614503
      10       -0.000009258393     0.000007014614    -0.000001551396
      11        0.000009266656     0.000003707589    -0.000005467072
      12       -0.000011935568     0.000006866716     0.000007813078
      13       -0.000020300237     0.000003493103    -0.000008734479

  **** Optimization is complete! (in 4 steps) ****
    Final optimized geometry and variables:
    Molecular point group: c1

    Geometry (in Angstrom), charge = 0, multiplicity = 1:

    H           -2.586377300185    -0.530646028442    -0.189698419929
    N           -1.844304736270     0.142223917515    -0.200655026426
    C           -0.566468241012    -0.495501660762     0.077916029468
    H           -2.058797641882     0.820446135523     0.505788324699
    C            0.574437969764     0.513028162164    -0.010445165521
    H           -0.411785175956    -1.279186557880    -0.657817777286
    H           -0.534478336973    -0.984789605576     1.055154189668
    C            1.953504066412    -0.135524501646     0.090358645787
    H            0.474940467274     1.063860346623    -0.940452554272
    H            0.461479638030     1.245232416132     0.788052180645
    H            2.118376162757    -0.835459641664    -0.723847443128
    H            2.740445730465     0.610562290427     0.048334689184
    H            2.066680017178    -0.681146307723     1.023209097044

  Mulliken Charges: (a.u.)
   Center  Symbol    Alpha    Beta     Spin     Total
       1     H     0.33238  0.33238  0.00000  0.33524
       2     N     3.92125  3.92125  0.00000 -0.84249
       3     C     3.05927  3.05927  0.00000 -0.11855
       4     H     0.33527  0.33527  0.00000  0.32945
       5     C     3.15267  3.15267  0.00000 -0.30535
       6     H     0.42123  0.42123  0.00000  0.15755
       7     H     0.43526  0.43526  0.00000  0.12948
       8     C     3.24346  3.24346  0.00000 -0.48692
       9     H     0.41162  0.41162  0.00000  0.17676
      10     H     0.42706  0.42706  0.00000  0.14587
      11     H     0.42051  0.42051  0.00000  0.15897
      12     H     0.41767  0.41767  0.00000  0.16467
      13     H     0.42234  0.42234  0.00000  0.15531

   Total alpha = 17.00000, Total beta = 17.00000, Total charge = -0.00000
