                              Psi4 1.0.54 Driver

  ==> Input File <==

--------------------------------------------------------------------------
set {
	reference rhf
	basis cc-pvtz
}

set_num_threads( 4 )
memory 2 gb

molecule MOL {
0 1

H	 -0.264722	 1.119872	 -2.399138
C	 -1.022246	 1.042866	 -1.625917
O	 -0.775228	 0.000056	 -0.739966
H	 -1.968481	 0.829156	 -2.102486
H	 -1.105305	 2.002377	 -1.125844
C	 0.406133	 -0.000384	 0.036994
C	 1.526415	 -0.003194	 -0.997339
C	 0.498772	 1.259027	 0.900673
C	 0.495883	 -1.257378	 0.904465
H	 1.452279	 0.872071	 -1.630204
H	 1.451276	 -0.881020	 -1.626529
H	 2.497919	 -0.002741	 -0.517601
H	 0.368981	 2.144239	 0.289753
H	 1.470064	 1.313479	 1.377660
H	 -0.248448	 1.271586	 1.684297
H	 0.363971	 -2.144195	 0.296316
H	 1.467114	 -1.312636	 1.381470
H	 -0.251246	 -1.265768	 1.688235

	symmetry c1
}
set optking {
	frozen_dihedral = ("
		2 3 6 7
	")
}

ee,wfn = optimize('scf', return_wfn=True)
oeprop( wfn, 'DIPOLE', 'QUADRUPOLE', 'MULLIKEN_CHARGES')
f=open( 'psi4out.xyz', 'w' )
f.write( "18  " )
f.write( str(ee) + "\n" )
f.write( MOL.save_string_xyz() )
f.close()
--------------------------------------------------------------------------

    Molecular point group: c1
  Charge       = 0
  Multiplicity = 1
  Basis Set: CC-PVTZ
  Basis Set:
  @DF-RHF Final Energy:  -271.26834523247800
    Total Energy =                       -271.2683452324780546
    Molecular point group: c1
  Basis Set: CC-PVTZ
  Basis Set:
  Basis Set: CC-PVTZ
  Basis Set:
  @DF-RHF Final Energy:  -271.21097325199912
    Total Energy =                       -271.2109732519990075
  Basis Set: CC-PVTZ
  Basis Set:
  Basis Set: CC-PVTZ
  Basis Set:
  @DF-RHF Final Energy:  -271.27103192898585
    Total Energy =                       -271.2710319289859626
  Basis Set: CC-PVTZ
  Basis Set:
  Basis Set: CC-PVTZ
  Basis Set:
  @DF-RHF Final Energy:  -271.27628018481334
    Total Energy =                       -271.2762801848131176
  Basis Set: CC-PVTZ
  Basis Set:
  Basis Set: CC-PVTZ
  Basis Set:
  @DF-RHF Final Energy:  -271.27665144617032
    Total Energy =                       -271.2766514461703764
  Basis Set: CC-PVTZ
  Basis Set:
  Basis Set: CC-PVTZ
  Basis Set:
  @DF-RHF Final Energy:  -271.27671857741450
    Total Energy =                       -271.2767185774147833
  Basis Set: CC-PVTZ
  Basis Set:
  Basis Set: CC-PVTZ
  Basis Set:
  @DF-RHF Final Energy:  -271.27675431132360
    Total Energy =                       -271.2767543113236570
  Basis Set: CC-PVTZ
  Basis Set:
  Charge       = 0
  Multiplicity = 1
  Basis Set: CC-PVTZ
  Basis Set:

    Orbital Energies (a.u.)
    -----------------------

    Doubly Occupied:

       1A    -20.540668     2A    -11.280111     3A    -11.258066
       4A    -11.207322     5A    -11.206821     6A    -11.201792
       7A     -1.373733     8A     -1.074657     9A     -0.946760
      10A     -0.940800    11A     -0.913182    12A     -0.753507
      13A     -0.656662    14A     -0.646685    15A     -0.639437
      16A     -0.593884    17A     -0.575939    18A     -0.553316
      19A     -0.534303    20A     -0.524868    21A     -0.515060
      22A     -0.488331    23A     -0.487949    24A     -0.440786
      25A     -0.407693

  @DF-RHF Final Energy:  -271.27675480058258

   => Energetics <=

    Nuclear Repulsion Energy =            272.6723656611000024
    One-Electron Energy =                -908.3735738052864690
    Two-Electron Energy =                 364.4244533436040001
    DFT Exchange-Correlation Energy =       0.0000000000000000
    Empirical Dispersion Energy =           0.0000000000000000
    PCM Polarization Energy =               0.0000000000000000
    EFP Energy =                            0.0000000000000000
    Total Energy =                       -271.2767548005824665
    Molecular point group: c1
  Basis Set: CC-PVTZ
  Basis Set:

  -Total Gradient:
     Atom            X                  Y                   Z
    ------   -----------------  -----------------  -----------------
       1        0.000022393198    -0.000000512930    -0.000005868799
       2        0.000044044307    -0.000049118300    -0.000016266475
       3       -0.000049377157     0.000104285421     0.000116582031
       4       -0.000013447691    -0.000009467848    -0.000003200569
       5        0.000000388136     0.000024357460     0.000029060950
       6       -0.000037354664    -0.000141477578    -0.000142266496
       7        0.000044842781     0.000065969110     0.000032344998
       8        0.000001694954    -0.000005939924     0.000008378651
       9       -0.000008839351     0.000020712973     0.000008175846
      10       -0.000010727621     0.000004381107    -0.000017289677
      11       -0.000005550551    -0.000025375682     0.000003910733
      12        0.000028996732     0.000014894144     0.000000345111
      13       -0.000012366944    -0.000006791309     0.000001490917
      14        0.000000206901     0.000001220133    -0.000004159807
      15        0.000012893869    -0.000003142025    -0.000000141881
      16        0.000011654212     0.000000150296    -0.000020828543
      17       -0.000012248836     0.000016230931     0.000005876520
      18       -0.000017202274    -0.000010375981     0.000003856490

  **** Optimization is complete! (in 8 steps) ****
    Final optimized geometry and variables:
    Molecular point group: c1

    Geometry (in Angstrom), charge = 0, multiplicity = 1:

    H           -0.159494401714     0.297566563270    -2.383034596481
    C           -1.019292491020     0.281520030223    -1.721135194142
    O           -0.787178872323    -0.456781295430    -0.565940954957
    H           -1.834907335285    -0.201167873515    -2.240713698945
    H           -1.312497049177     1.304749356461    -1.509531666409
    C            0.213123349297    -0.045424312485     0.344596238644
    C            1.590070649110    -0.012081309799    -0.321332653813
    C           -0.125016513376     1.317268106881     0.952613185989
    C            0.186952945363    -1.117227216149     1.428739801658
    H            1.666444280063     0.776271130054    -1.059784496875
    H            1.796173715781    -0.958008261626    -0.807751826729
    H            2.358894696924     0.163434200416     0.421588110497
    H           -0.069175179297     2.114562471486     0.222077013418
    H            0.572570275504     1.555527282862     1.746690296206
    H           -1.124845391821     1.304643438102     1.369381212417
    H            0.407498246203    -2.086894298244     1.000632779655
    H            0.916051399520    -0.905548179766     2.201765708757
    H           -0.794860749581    -1.164838986692     1.882479132532

  Mulliken Charges: (a.u.)
   Center  Symbol    Alpha    Beta     Spin     Total
       1     H     0.46949  0.46949  0.00000  0.06102
       2     C     3.04426  3.04426  0.00000 -0.08852
       3     O     4.18980  4.18980  0.00000 -0.37961
       4     H     0.44026  0.44026  0.00000  0.11949
       5     H     0.47006  0.47006  0.00000  0.05988
       6     C     2.87282  2.87282  0.00000  0.25435
       7     C     3.16538  3.16538  0.00000 -0.33075
       8     C     3.16347  3.16347  0.00000 -0.32694
       9     C     3.14152  3.14152  0.00000 -0.28304
      10     H     0.44934  0.44934  0.00000  0.10132
      11     H     0.44501  0.44501  0.00000  0.10999
      12     H     0.44805  0.44805  0.00000  0.10390
      13     H     0.44948  0.44948  0.00000  0.10104
      14     H     0.44875  0.44875  0.00000  0.10250
      15     H     0.44529  0.44529  0.00000  0.10942
      16     H     0.44900  0.44900  0.00000  0.10200
      17     H     0.45938  0.45938  0.00000  0.08124
      18     H     0.44865  0.44865  0.00000  0.10271

   Total alpha = 25.00000, Total beta = 25.00000, Total charge = -0.00000

*** Psi4 exiting successfully. Buy a developer a beer!
