                              Psi4 1.0.54 Driver

  ==> Input File <==

--------------------------------------------------------------------------
set {
	reference rhf
	basis cc-pvtz
}

set_num_threads( 4 )
memory 2 gb

molecule MOL {
0 1

H	 -0.677821	 4.243415	 0.745301
O	 0.139273	 3.767996	 0.752533
C	 -0.103622	 2.507955	 0.402914
C	 1.152780	 1.680080	 0.392445
O	 -1.191994	 2.125901	 0.143200
C	 0.926581	 0.227233	 0.000178
H	 1.594575	 1.757991	 1.380612
H	 1.850142	 2.167008	 -0.281577
C	 2.220156	 -0.582071	 -0.000088
H	 0.212826	 -0.220565	 0.682429
H	 0.468701	 0.188942	 -0.981810
C	 3.466689	 0.296012	 -0.000457
H	 2.239073	 -1.234095	 -0.869382
H	 2.239505	 -1.233985	 0.869270
H	 3.493549	 0.935857	 -0.875887
H	 4.368821	 -0.304526	 -0.001199
H	 3.494559	 0.935166	 0.875458

	symmetry c1
}
set optking {
	frozen_dihedral = ("
		10 6 9 13
	")
}

ee,wfn = optimize('scf', return_wfn=True)
oeprop( wfn, 'DIPOLE', 'QUADRUPOLE', 'MULLIKEN_CHARGES')
f=open( 'psi4out.xyz', 'w' )
f.write( "17  " )
f.write( str(ee) + "\n" )
f.write( MOL.save_string_xyz() )
f.close()
--------------------------------------------------------------------------

    Molecular point group: c1
  Charge       = 0
  Multiplicity = 1
  Basis Set: CC-PVTZ
  Basis Set:
  @DF-RHF Final Energy:  -345.03609865373602
    Total Energy =                       -345.0360986537360759
    Molecular point group: c1
  Basis Set: CC-PVTZ
  Basis Set:
  Basis Set: CC-PVTZ
  Basis Set:
  @DF-RHF Final Energy:  -344.90057865362132
    Total Energy =                       -344.9005786536212099
  Basis Set: CC-PVTZ
  Basis Set:
  Basis Set: CC-PVTZ
  Basis Set:
  @DF-RHF Final Energy:  -345.00518977265290
    Total Energy =                       -345.0051897726526136
  Basis Set: CC-PVTZ
  Basis Set:
  Basis Set: CC-PVTZ
  Basis Set:
  @DF-RHF Final Energy:  -345.03802372015878
    Total Energy =                       -345.0380237201588329
  Basis Set: CC-PVTZ
  Basis Set:
  @DF-RHF Final Energy:  -345.03992915609450
    Total Energy =                       -345.0399291560943880
  @DF-RHF Final Energy:  -345.03915394292790
    Total Energy =                       -345.0391539429280101
  Basis Set: CC-PVTZ
  Basis Set:
  @DF-RHF Final Energy:  -345.04015270768610
    Total Energy =                       -345.0401527076862749
  Basis Set: CC-PVTZ
  Basis Set:
  Basis Set: CC-PVTZ
  Basis Set:
  @DF-RHF Final Energy:  -345.04016447555841
    Total Energy =                       -345.0401644755584130
  Basis Set: CC-PVTZ
  Basis Set:
  Basis Set: CC-PVTZ
  Basis Set:
  @DF-RHF Final Energy:  -345.04016670570405
    Total Energy =                       -345.0401667057038821
  Basis Set: CC-PVTZ
  Basis Set:
  Charge       = 0
  Multiplicity = 1
  Basis Set: CC-PVTZ
  Basis Set:

    Orbital Energies (a.u.)
    -----------------------

    Doubly Occupied:

       1A    -20.603575     2A    -20.540333     3A    -11.373101
       4A    -11.238439     5A    -11.221687     6A    -11.221121
       7A    -11.213601     8A     -1.477285     9A     -1.368785
      10A     -1.089636    11A     -1.015580    12A     -0.921273
      13A     -0.834611    14A     -0.772771    15A     -0.703446
      16A     -0.692987    17A     -0.671153    18A     -0.629723
      19A     -0.604809    20A     -0.576236    21A     -0.561794
      22A     -0.550491    23A     -0.526771    24A     -0.484288
      25A     -0.476772    26A     -0.473451    27A     -0.462829
      28A     -0.447001

  @DF-RHF Final Energy:  -345.04016742700111

   => Energetics <=

    Nuclear Repulsion Energy =            308.6615080431981255
    One-Electron Energy =               -1081.8962525503147845
    Two-Electron Energy =                 428.1945770801154367
    DFT Exchange-Correlation Energy =       0.0000000000000000
    Empirical Dispersion Energy =           0.0000000000000000
    PCM Polarization Energy =               0.0000000000000000
    EFP Energy =                            0.0000000000000000
    Total Energy =                       -345.0401674270011654
    Molecular point group: c1
  Basis Set: CC-PVTZ
  Basis Set:

  -Total Gradient:
     Atom            X                  Y                   Z
    ------   -----------------  -----------------  -----------------
       1        0.000025138559     0.000011051415    -0.000005100117
       2       -0.000079163320    -0.000095275099    -0.000000099945
       3       -0.000188149791     0.000061728551     0.000047823393
       4       -0.000014305034    -0.000020506139     0.000036211363
       5        0.000245055823     0.000066119353    -0.000033766964
       6       -0.003781688461    -0.002247769233    -0.004830401543
       7        0.000026773441     0.000014355026     0.000001112649
       8       -0.000022496150     0.000010439672    -0.000010040751
       9       -0.001363133410    -0.004188574280     0.004676106060
      10        0.003423667584     0.002488189766     0.003364813225
      11       -0.000018685801    -0.000007115727    -0.000025902562
      12       -0.000002773189     0.000032869600     0.000002041324
      13        0.001727423586     0.003909163184    -0.003227209082
      14       -0.000019884010    -0.000031042837     0.000028078285
      15        0.000015020425    -0.000015265977    -0.000023608646
      16        0.000013610470     0.000005932811    -0.000001605656
      17        0.000013589274     0.000005699914     0.000001548970

  **** Optimization is complete! (in 10 steps) ****
    Final optimized geometry and variables:
    Molecular point group: c1

    Geometry (in Angstrom), charge = 0, multiplicity = 1:

    H           -1.226908266847     2.740333079695     1.322979269798
    O           -0.470890886406     2.260358720768     1.020099323402
    C           -0.872224125265     1.061643097669     0.605569175154
    C            0.280204070792     0.234279815038     0.101650634122
    O           -2.006691558386     0.731201737188     0.645355275303
    C           -0.144949169076    -1.156283867881    -0.363037415300
    H            1.005643793320     0.185192566446     0.906350377209
    H            0.751642204364     0.807222345858    -0.687590672421
    C            1.002684196392    -2.072483873889    -0.850635858673
    H           -0.631674230996    -1.624537771993     0.482670186189
    H           -0.892984581739    -1.047333095246    -1.136562501251
    C            2.297929887228    -1.382192279017    -1.283772256671
    H            0.646664853801    -2.621877868356    -1.714759825270
    H            1.237653766900    -2.800526065776    -0.083152894789
    H            2.126275902825    -0.677347484081    -2.090190933377
    H            3.004938927967    -2.120020797278    -1.644741732540
    H            2.774898811839    -0.847761372957    -0.471063376145

  Mulliken Charges: (a.u.)
   Center  Symbol    Alpha    Beta     Spin     Total
       1     H     0.38253  0.38253  0.00000  0.23494
       2     O     4.15964  4.15964  0.00000 -0.31928
       3     C     2.80908  2.80908  0.00000  0.38185
       4     C     3.11157  3.11157  0.00000 -0.22314
       5     O     4.19077  4.19077  0.00000 -0.38154
       6     C     3.09128  3.09128  0.00000 -0.18255
       7     H     0.43686  0.43686  0.00000  0.12628
       8     H     0.43578  0.43578  0.00000  0.12844
       9     C     3.08959  3.08959  0.00000 -0.17918
      10     H     0.44343  0.44343  0.00000  0.11313
      11     H     0.44280  0.44280  0.00000  0.11441
      12     C     3.15877  3.15877  0.00000 -0.31754
      13     H     0.44895  0.44895  0.00000  0.10211
      14     H     0.44938  0.44938  0.00000  0.10124
      15     H     0.45313  0.45313  0.00000  0.09374
      16     H     0.44301  0.44301  0.00000  0.11397
      17     H     0.45345  0.45345  0.00000  0.09311

   Total alpha = 28.00000, Total beta = 28.00000, Total charge = -0.00000

*** Psi4 exiting successfully. Buy a developer a beer!
