  ==> Input File <==

--------------------------------------------------------------------------
set {
	reference rhf
	basis 6-31G*
}

set_num_threads( 1 )
memory 2 gb

molecule MOL {
0 1

O	 -1.635736	 -2.520617	 0.196514
C	 -1.143642	 -1.963894	 -0.737476
C	 -0.889235	 -0.467034	 -0.705952
C	 -0.720925	 -2.717749	 -1.978600
C	 0.379448	 -0.143569	 0.099626
H	 -1.746220	 0.002354	 -0.235255
H	 -0.799256	 -0.073271	 -1.714356
C	 1.631333	 -0.777471	 -0.511575
H	 0.482768	 0.934507	 0.149241
H	 0.263088	 -0.495696	 1.123449
C	 2.915987	 -0.544314	 0.291766
H	 1.766672	 -0.399098	 -1.523130
H	 1.471257	 -1.849544	 -0.605828
C	 3.373361	 0.914346	 0.347591
H	 3.708709	 -1.142521	 -0.150311
H	 2.780642	 -0.921148	 1.303579
H	 3.506512	 1.320010	 -0.651625
H	 4.322697	 0.999599	 0.867103
H	 2.660624	 1.545032	 0.868198
H	 -1.336299	 -2.410288	 -2.820055
H	 -0.832911	 -3.781541	 -1.821788
H	 0.309426	 -2.488910	 -2.235141

	symmetry c1
}
set optking {
	frozen_dihedral = ("
		6 3 2 1,
		3 5 8 12,
		12 8 11 15
	")
}

ee = energy('scf')
oeprop('DIPOLE', 'QUADRUPOLE', 'MULLIKEN_CHARGES')
f=open( 'psi4out.xyz', 'w' )
f.write( "22  " )
f.write( str(ee) + "\n" )
f.write( MOL.save_string_xyz() )
f.close()
--------------------------------------------------------------------------

    Molecular point group: c1

    Geometry (in Angstrom), charge = 0, multiplicity = 1:

       Center              X                  Y                   Z               Mass
    ------------   -----------------  -----------------  -----------------  -----------------
           O         -2.135977072157    -1.490487811420     0.570700924918    15.994914619560
           C         -1.643883072157    -0.933764811420    -0.363289075082    12.000000000000
           C         -1.389476072157     0.563095188580    -0.331765075082    12.000000000000
           C         -1.221166072157    -1.687619811420    -1.604413075082    12.000000000000
           C         -0.120793072157     0.886560188580     0.473812924918    12.000000000000
           H         -2.246461072157     1.032483188580     0.138931924918     1.007825032070
           H         -1.299497072157     0.956858188580    -1.340169075082     1.007825032070
           C          1.131091927843     0.252658188580    -0.137388075082    12.000000000000
           H         -0.017473072157     1.964636188580     0.523427924918     1.007825032070
           H         -0.237153072157     0.534433188580     1.497635924918     1.007825032070
           C          2.415745927843     0.485815188580     0.665952924918    12.000000000000
           H          1.266430927843     0.631031188580    -1.148943075082     1.007825032070
           H          0.971015927843    -0.819414811420    -0.231641075082     1.007825032070
           C          2.873119927843     1.944475188580     0.721777924918    12.000000000000
           H          3.208467927843    -0.112391811420     0.223875924918     1.007825032070
           H          2.280400927843     0.108981188580     1.677765924918     1.007825032070
           H          3.006270927843     2.350139188580    -0.277438075082     1.007825032070
           H          3.822455927843     2.029728188580     1.241289924918     1.007825032070
           H          2.160382927843     2.575161188580     1.242384924918     1.007825032070
           H         -1.836540072157    -1.380158811420    -2.445868075082     1.007825032070
           H         -1.333152072157    -2.751411811420    -1.447601075082     1.007825032070
           H         -0.190815072157    -1.458780811420    -1.860954075082     1.007825032070

  Charge       = 0
  Multiplicity = 1
  Basis Set: 6-31G*
  Basis Set:

    Orbital Energies (a.u.)
    -----------------------

    Doubly Occupied:

       1A    -20.547505     2A    -11.323887     3A    -11.229434
       4A    -11.228857     5A    -11.226337     6A    -11.224193
       7A    -11.221744     8A    -11.213531     9A     -1.393137
      10A     -1.098691    11A     -1.043405    12A     -0.998249
      13A     -0.940858    14A     -0.859026    15A     -0.791037
      16A     -0.730536    17A     -0.664052    18A     -0.640295
      19A     -0.629782    20A     -0.616956    21A     -0.596231
      22A     -0.586715    23A     -0.563426    24A     -0.550325
      25A     -0.532163    26A     -0.523874    27A     -0.497371
      28A     -0.491830    29A     -0.471967    30A     -0.464724
      31A     -0.452706    32A     -0.397344

  @DF-RHF Final Energy:  -348.09443433444113

   => Energetics <=

    Nuclear Repulsion Energy =            382.4631470490261904
    One-Electron Energy =               -1229.6148962068109540
    Two-Electron Energy =                 499.0573148233432903
    DFT Exchange-Correlation Energy =       0.0000000000000000
    Empirical Dispersion Energy =           0.0000000000000000
    PCM Polarization Energy =               0.0000000000000000
    EFP Energy =                            0.0000000000000000
    Total Energy =                       -348.0944343344414165

  Mulliken Charges: (a.u.)
   Center  Symbol    Alpha    Beta     Spin     Total
       1     O     4.26265  4.26265  0.00000 -0.52530
       2     C     2.74077  2.74077  0.00000  0.51845
       3     C     3.19991  3.19991  0.00000 -0.39982
       4     C     3.29026  3.29026  0.00000 -0.58051
       5     C     3.16065  3.16065  0.00000 -0.32130
       6     H     0.39958  0.39958  0.00000  0.20085
       7     H     0.41675  0.41675  0.00000  0.16649
       8     C     3.16189  3.16189  0.00000 -0.32378
       9     H     0.41329  0.41329  0.00000  0.17342
      10     H     0.40766  0.40766  0.00000  0.18468
      11     C     3.15192  3.15192  0.00000 -0.30383
      12     H     0.42414  0.42414  0.00000  0.15172
      13     H     0.41808  0.41808  0.00000  0.16383
      14     C     3.24213  3.24213  0.00000 -0.48425
      15     H     0.41968  0.41968  0.00000  0.16063
      16     H     0.41955  0.41955  0.00000  0.16090
      17     H     0.42222  0.42222  0.00000  0.15556
      18     H     0.41727  0.41727  0.00000  0.16545
      19     H     0.41956  0.41956  0.00000  0.16088
      20     H     0.40755  0.40755  0.00000  0.18489
      21     H     0.39785  0.39785  0.00000  0.20430
      22     H     0.40662  0.40662  0.00000  0.18675

   Total alpha = 32.00000, Total beta = 32.00000, Total charge = -0.00000
