                              Psi4 1.0.54 Driver

  ==> Input File <==

--------------------------------------------------------------------------
set {
	reference rhf
	basis cc-pvtz
}

set_num_threads( 4 )
memory 2 gb

molecule MOL {
0 1

H	 -3.051377	 0.449212	 1.840180
O	 -2.261812	 -0.070213	 1.862588
C	 -1.391894	 0.448609	 1.000613
C	 -0.102596	 -0.326679	 0.974745
O	 -1.644041	 1.403288	 0.350244
C	 0.926581	 0.227233	 0.000178
H	 -0.353869	 -1.356151	 0.740703
H	 0.281913	 -0.340364	 1.989478
C	 2.220156	 -0.582071	 -0.000088
H	 0.502429	 0.242883	 -0.997462
H	 1.139000	 1.259929	 0.252840
C	 3.466689	 0.296012	 -0.000457
H	 2.239073	 -1.234095	 -0.869382
H	 2.239505	 -1.233985	 0.869270
H	 3.493549	 0.935857	 -0.875887
H	 4.368821	 -0.304526	 -0.001199
H	 3.494559	 0.935166	 0.875458

	symmetry c1
}
set optking {
	frozen_dihedral = ("
		10 6 9 13
	")
}

ee,wfn = optimize('scf', return_wfn=True)
oeprop( wfn, 'DIPOLE', 'QUADRUPOLE', 'MULLIKEN_CHARGES')
f=open( 'psi4out.xyz', 'w' )
f.write( "17  " )
f.write( str(ee) + "\n" )
f.write( MOL.save_string_xyz() )
f.close()
--------------------------------------------------------------------------

    Molecular point group: c1
  Charge       = 0
  Multiplicity = 1
  Basis Set: CC-PVTZ
  Basis Set:
  @DF-RHF Final Energy:  -345.04389289810752
    Total Energy =                       -345.0438928981071740
    Molecular point group: c1
  Basis Set: CC-PVTZ
  Basis Set:
  Basis Set: CC-PVTZ
  Basis Set:
  @DF-RHF Final Energy:  -345.04412557951969
    Total Energy =                       -345.0441255795201982
  Basis Set: CC-PVTZ
  Basis Set:
  Basis Set: CC-PVTZ
  Basis Set:
  @DF-RHF Final Energy:  -345.04405179523349
    Total Energy =                       -345.0440517952334289
  Basis Set: CC-PVTZ
  Basis Set:
  Basis Set: CC-PVTZ
  Basis Set:
  @DF-RHF Final Energy:  -345.04426599840087
    Total Energy =                       -345.0442659984007605
  Basis Set: CC-PVTZ
  Basis Set:
  Basis Set: CC-PVTZ
  Basis Set:
  @DF-RHF Final Energy:  -345.04426938054291
    Total Energy =                       -345.0442693805427439
  Basis Set: CC-PVTZ
  Basis Set:
  Charge       = 0
  Multiplicity = 1
  Basis Set: CC-PVTZ
  Basis Set:

    Orbital Energies (a.u.)
    -----------------------

    Doubly Occupied:

       1A    -20.604047     2A    -20.540726     3A    -11.373424
       4A    -11.239561     5A    -11.221255     6A    -11.220603
       7A    -11.211124     8A     -1.477608     9A     -1.369136
      10A     -1.090944    11A     -1.019178    12A     -0.914398
      13A     -0.825743    14A     -0.790487    15A     -0.703842
      16A     -0.690158    17A     -0.669038    18A     -0.627796
      19A     -0.597331    20A     -0.590313    21A     -0.570952
      22A     -0.533145    23A     -0.517164    24A     -0.484515
      25A     -0.480010    26A     -0.478256    27A     -0.468953
      28A     -0.445527

  @DF-RHF Final Energy:  -345.04426951569809

   => Energetics <=

    Nuclear Repulsion Energy =            304.8676263809626903
    One-Electron Energy =               -1074.3133279433568532
    Two-Electron Energy =                 424.4014320466962431
    DFT Exchange-Correlation Energy =       0.0000000000000000
    Empirical Dispersion Energy =           0.0000000000000000
    PCM Polarization Energy =               0.0000000000000000
    EFP Energy =                            0.0000000000000000
    Total Energy =                       -345.0442695156978630
    Molecular point group: c1
  Basis Set: CC-PVTZ
  Basis Set:

  -Total Gradient:
     Atom            X                  Y                   Z
    ------   -----------------  -----------------  -----------------
       1        0.000001120682     0.000004100066    -0.000000824579
       2       -0.000004082562    -0.000011192981    -0.000000537472
       3        0.000011087735     0.000004081548     0.000001521833
       4        0.000007749901    -0.000011195784    -0.000010707397
       5       -0.000006258431     0.000010078341    -0.000003493185
       6        0.002821676471     0.004499092925    -0.001428488230
       7        0.000003895419    -0.000001943826     0.000009000134
       8       -0.000002929590     0.000002312364     0.000008466479
       9       -0.002538441358    -0.004067689056     0.002626878478
      10       -0.001953176512    -0.003115081754     0.000780242084
      11        0.000003130517    -0.000009019228     0.000001073299
      12       -0.000016171858    -0.000001963290     0.000002217808
      13        0.001679141796     0.002682457117    -0.001984390931
      14       -0.000012558887     0.000012656034    -0.000000289965
      15        0.000000340835     0.000006687848     0.000000755117
      16        0.000001555606    -0.000005017947    -0.000002750231
      17        0.000003920237     0.000001637625     0.000001326762

  **** Optimization is complete! (in 6 steps) ****
    Final optimized geometry and variables:
    Molecular point group: c1

    Geometry (in Angstrom), charge = 0, multiplicity = 1:

    H           -3.209704351638     0.197941787882     1.188679321311
    O           -2.413069439827    -0.309969636170     1.222737237700
    C           -1.536860666273     0.224815409504     0.376912236789
    C           -0.234381303463    -0.528718776715     0.372089193628
    O           -1.792282750372     1.178806089347    -0.273382363868
    C            0.806468558981     0.048562653702    -0.579983120479
    H           -0.463261085995    -1.560781063958     0.126101109664
    H            0.130204693406    -0.543029072910     1.394043934610
    C            2.106349784919    -0.775824097038    -0.593459308673
    H            0.371345593494     0.072576760584    -1.570858656536
    H            1.008731470116     1.074761622012    -0.300945855751
    C            3.359689037248     0.094936227703    -0.645644630476
    H            2.113337319337    -1.423676775847    -1.463458111927
    H            2.157531905361    -1.417655586381     0.279854193101
    H            3.349017308474     0.740079652664    -1.517735750941
    H            4.257222370797    -0.511119191318    -0.692712225485
    H            3.431769670461     0.729350200953     0.231407528274

  Mulliken Charges: (a.u.)
   Center  Symbol    Alpha    Beta     Spin     Total
       1     H     0.38238  0.38238  0.00000  0.23524
       2     O     4.16003  4.16003  0.00000 -0.32006
       3     C     2.80621  2.80621  0.00000  0.38758
       4     C     3.11134  3.11134  0.00000 -0.22269
       5     O     4.19105  4.19105  0.00000 -0.38209
       6     C     3.08621  3.08621  0.00000 -0.17242
       7     H     0.43676  0.43676  0.00000  0.12649
       8     H     0.43805  0.43805  0.00000  0.12390
       9     C     3.08776  3.08776  0.00000 -0.17552
      10     H     0.44401  0.44401  0.00000  0.11197
      11     H     0.44582  0.44582  0.00000  0.10835
      12     C     3.14730  3.14730  0.00000 -0.29460
      13     H     0.45081  0.45081  0.00000  0.09839
      14     H     0.45525  0.45525  0.00000  0.08949
      15     H     0.45228  0.45228  0.00000  0.09544
      16     H     0.44924  0.44924  0.00000  0.10152
      17     H     0.45549  0.45549  0.00000  0.08901

   Total alpha = 28.00000, Total beta = 28.00000, Total charge = -0.00000

*** Psi4 exiting successfully. Buy a developer a beer!
