  ==> Input File <==

--------------------------------------------------------------------------
set {
	reference rhf
	basis 6-31G*
}

set_num_threads( 4 )
memory 2 gb

molecule MOL {
0 1

O	 -0.584884	 -1.147516	 -1.483191
C	 -0.488006	 -0.138326	 -0.837550
C	 -1.612827	 0.879924	 -0.843144
N	 0.623947	 0.147590	 -0.102813
H	 -1.275114	 1.843240	 -1.209279
H	 -2.385197	 0.503718	 -1.496565
H	 -2.026144	 1.023192	 0.149441
C	 1.665360	 -0.855771	 0.000151
C	 0.703962	 1.224194	 0.859874
H	 2.465253	 -0.618490	 -0.692587
H	 1.257730	 -1.821716	 -0.242189
H	 2.081488	 -0.891645	 1.004627
H	 1.721502	 1.595089	 0.892867
H	 0.064979	 2.048979	 0.587175
H	 0.434621	 0.894352	 1.861609

	symmetry c1
}
set optking {
	frozen_dihedral = ("
		2 4 8 10
	")
}

ee = optimize('scf')
oeprop('DIPOLE', 'QUADRUPOLE', 'MULLIKEN_CHARGES')
f=open( 'psi4out.xyz', 'w' )
f.write( "15  " )
f.write( str(ee) + "\n" )
f.write( MOL.save_string_xyz() )
f.close()
--------------------------------------------------------------------------

    Molecular point group: c1
  Charge       = 0
  Multiplicity = 1
  Basis Set: 6-31G*
  Basis Set:
  @DF-RHF Final Energy:  -286.02810707568801
    Total Energy =                       -286.0281070756881832
    Molecular point group: c1
  Basis Set: 6-31G*
  Basis Set:
  Basis Set: 6-31G*
  Basis Set:
  @DF-RHF Final Energy:  -286.02874683403877
    Total Energy =                       -286.0287468340386567
  Basis Set: 6-31G*
  Basis Set:
  Basis Set: 6-31G*
  Basis Set:
  @DF-RHF Final Energy:  -286.02888941693004
    Total Energy =                       -286.0288894169300420
  Basis Set: 6-31G*
  Basis Set:
  Basis Set: 6-31G*
  Basis Set:
  @DF-RHF Final Energy:  -286.02907590542509
    Total Energy =                       -286.0290759054250884
  Basis Set: 6-31G*
  Basis Set:
  @DF-RHF Final Energy:  -286.02918507796386
    Total Energy =                       -286.0291850779636889
  @DF-RHF Final Energy:  -286.02926864710975
    Total Energy =                       -286.0292686471098023
  @DF-RHF Final Energy:  -286.02933218827934
    Total Energy =                       -286.0293321882792270
  @DF-RHF Final Energy:  -286.02943283329148
    Total Energy =                       -286.0294328332915939
  @DF-RHF Final Energy:  -286.02950466163645
    Total Energy =                       -286.0295046616365084
  @DF-RHF Final Energy:  -286.02965427451147
    Total Energy =                       -286.0296542745116426
  @DF-RHF Final Energy:  -286.02976232350534
    Total Energy =                       -286.0297623235052242
  Basis Set: 6-31G*
  Basis Set:
  @DF-RHF Final Energy:  -286.02976140301627
    Total Energy =                       -286.0297614030159821
  Basis Set: 6-31G*
  Basis Set:
  Basis Set: 6-31G*
  Basis Set:
  @DF-RHF Final Energy:  -286.02980776442109
    Total Energy =                       -286.0298077644213208
  Basis Set: 6-31G*
  Basis Set:
  Basis Set: 6-31G*
  Basis Set:
  @DF-RHF Final Energy:  -286.02981457794812
    Total Energy =                       -286.0298145779479455
  Basis Set: 6-31G*
  Basis Set:
  Charge       = 0
  Multiplicity = 1
  Basis Set: 6-31G*
  Basis Set:

    Orbital Energies (a.u.)
    -----------------------

    Doubly Occupied:

       1A    -20.513928     2A    -15.584034     3A    -11.341670
       4A    -11.266446     5A    -11.247767     6A    -11.228306
       7A     -1.383995     8A     -1.243746     9A     -1.014197
      10A     -0.972710    11A     -0.919365    12A     -0.737961
      13A     -0.681097    14A     -0.659274    15A     -0.651303
      16A     -0.589360    17A     -0.576039    18A     -0.567409
      19A     -0.561514    20A     -0.546906    21A     -0.529622
      22A     -0.503695    23A     -0.409977    24A     -0.366355

  @DF-RHF Final Energy:  -286.02981511891255

   => Energetics <=

    Nuclear Repulsion Energy =            252.3664503464011659
    One-Electron Energy =                -888.5991772088680136
    Two-Electron Energy =                 350.2029117435545231
    DFT Exchange-Correlation Energy =       0.0000000000000000
    Empirical Dispersion Energy =           0.0000000000000000
    PCM Polarization Energy =               0.0000000000000000
    EFP Energy =                            0.0000000000000000
    Total Energy =                       -286.0298151189123246
    Molecular point group: c1
  Basis Set: 6-31G*
  Basis Set:

  -Total Gradient:
     Atom            X                  Y                   Z
    ------   -----------------  -----------------  -----------------
       1        0.000069248753    -0.000011234529     0.000051047181
       2       -0.000008434974     0.000037708072     0.000014369001
       3       -0.000035713361     0.000012237522     0.000025953583
       4       -0.000033046956    -0.000029012505    -0.000073945782
       5        0.000010994543    -0.000000904438     0.000001364289
       6        0.000009305391    -0.000006871122     0.000009437294
       7       -0.000028584576     0.000012066683    -0.000011722047
       8       -0.000023883597    -0.000000022998    -0.000020490505
       9       -0.000017835665     0.000025959110    -0.000040025177
      10        0.000003840183     0.000024647850     0.000037332884
      11        0.000004964660    -0.000024063139     0.000000935196
      12        0.000012965914    -0.000026520766     0.000000602622
      13        0.000012693857     0.000018267326     0.000005586435
      14        0.000026726261     0.000000940953     0.000008481554
      15       -0.000003240434    -0.000033198017    -0.000008926526

  **** Optimization is complete! (in 15 steps) ****
    Final optimized geometry and variables:
    Molecular point group: c1

    Geometry (in Angstrom), charge = 0, multiplicity = 1:

    O           -0.586192545552    -1.110270759852    -1.178584449180
    C           -0.540270140930    -0.152769476566    -0.453416416827
    C           -1.629118178260     0.902148442178    -0.515765007362
    N            0.458098556478     0.018080343377     0.458430052124
    H           -1.229102267541     1.873015548832    -0.787690660849
    H           -2.338441636458     0.589128081150    -1.266685478043
    H           -2.139917785996     1.003025500737     0.435599188063
    C            1.561858163350    -0.921747333682     0.467708588561
    C            0.680793245554     1.240347274902     1.198984535707
    H            2.430140137998    -0.514422078938    -0.045594756047
    H            1.262027656523    -1.831524218152    -0.022453995593
    H            1.842926538133    -1.140616600910     1.492158405014
    H            1.385259017118     1.898492656574     0.693638944666
    H           -0.238344504994     1.780798778960     1.359885640244
    H            1.091441073386     0.995448488924     2.171393163230

  Mulliken Charges: (a.u.)
   Center  Symbol    Alpha    Beta     Spin     Total
       1     O     4.30480  4.30480  0.00000 -0.60960
       2     C     2.62344  2.62344  0.00000  0.75311
       3     C     3.29875  3.29875  0.00000 -0.59750
       4     N     3.82377  3.82377  0.00000 -0.64754
       5     H     0.40784  0.40784  0.00000  0.18432
       6     H     0.39042  0.39042  0.00000  0.21916
       7     H     0.40655  0.40655  0.00000  0.18689
       8     C     3.14543  3.14543  0.00000 -0.29086
       9     C     3.14168  3.14168  0.00000 -0.28337
      10     H     0.41998  0.41998  0.00000  0.16005
      11     H     0.38416  0.38416  0.00000  0.23169
      12     H     0.41878  0.41878  0.00000  0.16244
      13     H     0.41657  0.41657  0.00000  0.16686
      14     H     0.40714  0.40714  0.00000  0.18572
      15     H     0.41068  0.41068  0.00000  0.17864

   Total alpha = 24.00000, Total beta = 24.00000, Total charge =  0.00000
