  ==> Input File <==

--------------------------------------------------------------------------
set {
	reference rhf
	basis 6-31G*
}

set_num_threads( 4 )
memory 2 gb

molecule MOL {
0 1

H	 -3.420663	 1.227371	 -1.044276
O	 -3.452007	 0.283848	 -0.965577
C	 -3.181085	 -0.079926	 0.364119
C	 -1.765924	 0.277073	 0.805136
H	 -3.327791	 -1.152017	 0.410903
H	 -3.905698	 0.375695	 1.036898
C	 -0.677594	 -0.417312	 -0.014550
H	 -1.637766	 1.358238	 0.744969
H	 -1.659588	 0.017670	 1.857098
C	 0.738335	 -0.034840	 0.421385
H	 -0.814977	 -0.178223	 -1.064632
H	 -0.802730	 -1.495410	 0.071702
C	 1.822265	 -0.738362	 -0.399735
H	 0.853533	 1.043532	 0.342250
H	 0.871597	 -0.279636	 1.474438
C	 1.301029	 -1.802724	 -1.372156
H	 2.546110	 -1.193001	 0.274837
H	 2.368538	 0.010839	 -0.969032
C	 0.665785	 -3.021464	 -0.700186
H	 2.129546	 -2.138902	 -1.990891
H	 0.581571	 -1.348504	 -2.050586
H	 1.358713	 -3.489322	 -0.005853
H	 0.385992	 -3.766648	 -1.438599
H	 -0.230404	 -2.759858	 -0.147402

	symmetry c1
}
set optking {
	frozen_dihedral = ("
		17 13 10 7
	")
}

ee = optimize('scf')
oeprop('DIPOLE', 'QUADRUPOLE', 'MULLIKEN_CHARGES')
f=open( 'psi4out.xyz', 'w' )
f.write( "24  " )
f.write( str(ee) + "\n" )
f.write( MOL.save_string_xyz() )
f.close()
--------------------------------------------------------------------------

    Molecular point group: c1
  Charge       = 0
  Multiplicity = 1
  Basis Set: 6-31G*
  Basis Set:
  @DF-RHF Final Energy:  -349.21801578891308
    Total Energy =                       -349.2180157889133625
    Molecular point group: c1
  Basis Set: 6-31G*
  Basis Set:
  Basis Set: 6-31G*
  Basis Set:
  @DF-RHF Final Energy:  -349.23208644610963
    Total Energy =                       -349.2320864461096335
  Basis Set: 6-31G*
  Basis Set:
  Basis Set: 6-31G*
  Basis Set:
  @DF-RHF Final Energy:  -349.23528764409616
    Total Energy =                       -349.2352876440965019
  Basis Set: 6-31G*
  Basis Set:
  Basis Set: 6-31G*
  Basis Set:
  @DF-RHF Final Energy:  -349.23599429579122
    Total Energy =                       -349.2359942957912722
  Basis Set: 6-31G*
  Basis Set:
  @DF-RHF Final Energy:  -349.23629665163185
    Total Energy =                       -349.2362966516320739
  Basis Set: 6-31G*
  Basis Set:
  @DF-RHF Final Energy:  -349.23640031471558
    Total Energy =                       -349.2364003147151266
  Basis Set: 6-31G*
  Basis Set:
  Basis Set: 6-31G*
  Basis Set:
  @DF-RHF Final Energy:  -349.23642029512865
    Total Energy =                       -349.2364202951285961
  Basis Set: 6-31G*
  Basis Set:
  Basis Set: 6-31G*
  Basis Set:
  @DF-RHF Final Energy:  -349.23642247581250
    Total Energy =                       -349.2364224758125602
  Basis Set: 6-31G*
  Basis Set:
  Charge       = 0
  Multiplicity = 1
  Basis Set: 6-31G*
  Basis Set:

    Orbital Energies (a.u.)
    -----------------------

    Doubly Occupied:

       1A    -20.553807     2A    -11.267890     3A    -11.217558
       4A    -11.213559     5A    -11.212486     6A    -11.211788
       7A    -11.210917     8A    -11.205777     9A     -1.360384
      10A     -1.085258    11A     -1.045059    12A     -0.982478
      13A     -0.917870    14A     -0.850527    15A     -0.810910
      16A     -0.761460    17A     -0.680206    18A     -0.652932
      19A     -0.618687    20A     -0.618290    21A     -0.608995
      22A     -0.578946    23A     -0.553032    24A     -0.542067
      25A     -0.516112    26A     -0.512034    27A     -0.494059
      28A     -0.481412    29A     -0.468391    30A     -0.458035
      31A     -0.444531    32A     -0.441742    33A     -0.420809

  @DF-RHF Final Energy:  -349.23642285018695

   => Energetics <=

    Nuclear Repulsion Energy =            393.0747222946371267
    One-Electron Energy =               -1252.6262739624635287
    Two-Electron Energy =                 510.3151288176395042
    DFT Exchange-Correlation Energy =       0.0000000000000000
    Empirical Dispersion Energy =           0.0000000000000000
    PCM Polarization Energy =               0.0000000000000000
    EFP Energy =                            0.0000000000000000
    Total Energy =                       -349.2364228501868979
    Molecular point group: c1
  Basis Set: 6-31G*
  Basis Set:

  -Total Gradient:
     Atom            X                  Y                   Z
    ------   -----------------  -----------------  -----------------
       1        0.000000844264    -0.000003024234     0.000002469760
       2        0.000011953292    -0.000013212002    -0.000000802873
       3       -0.000009310639     0.000028061159     0.000002814642
       4        0.000007958673    -0.000009608382     0.000002998934
       5        0.000002602482     0.000002130244    -0.000003535604
       6       -0.000003900891    -0.000001169826     0.000002883863
       7       -0.000114631989    -0.002885408834     0.002434610155
       8       -0.000010327679     0.000001339869     0.000001866074
       9        0.000001564986    -0.000000448267    -0.000001747191
      10       -0.000418222542     0.003280451266    -0.003566376701
      11        0.000007210878     0.000001888088    -0.000012557402
      12        0.000005056759     0.000014514026    -0.000001358700
      13        0.003196317590     0.003733837731     0.001308579246
      14       -0.000018955325     0.000002177995    -0.000000466718
      15       -0.000010275280    -0.000000164564     0.000002599133
      16        0.000016596314    -0.000001758515    -0.000020456412
      17       -0.002655871621    -0.004151677629    -0.000165281405
      18        0.000000760771     0.000011271622     0.000009909656
      19       -0.000003015622     0.000002687848    -0.000011377395
      20       -0.000009682412    -0.000013520221    -0.000006531834
      21        0.000007170942     0.000002865453     0.000011086131
      22       -0.000001339000     0.000008161309    -0.000000006738
      23       -0.000003980994    -0.000011707181     0.000011610650
      24        0.000001477053     0.000002313048    -0.000000929269

  **** Optimization is complete! (in 9 steps) ****
    Final optimized geometry and variables:
    Molecular point group: c1

    Geometry (in Angstrom), charge = 0, multiplicity = 1:

    H           -2.820127051975     2.144360480417    -0.720131327600
    O           -2.922846817240     1.204915348904    -0.654975585789
    C           -2.646879813214     0.798516229022     0.661337300159
    C           -1.197197728995     1.036709337772     1.069380918866
    H           -2.876164476064    -0.259398431722     0.695876230372
    H           -3.315930086378     1.297554510313     1.360289115105
    C           -0.188628459125     0.272868801581     0.208648415339
    H           -0.986965223391     2.105538982228     1.022436780920
    H           -1.084628762423     0.751794570747     2.114110371267
    C            1.255999156284     0.563911317290     0.630237615809
    H           -0.344151397128     0.542557585353    -0.830514450935
    H           -0.401071525040    -0.788495540632     0.285716215357
    C            2.402917981172    -0.140623170783    -0.151773275543
    H            1.414328350218     1.637937885708     0.577805132539
    H            1.347207897621     0.311668073831     1.684252443521
    C            2.025923389912    -1.246118492813    -1.155096183443
    H            3.078461262935    -0.599293038444     0.565324641305
    H            2.975602234930     0.614208134455    -0.680970955388
    C            1.736566409483    -2.603744004025    -0.509811320940
    H            2.861440926218    -1.372863998452    -1.839207138479
    H            1.184953507511    -0.940144542231    -1.768652355459
    H            2.612927091180    -2.971430258859     0.017132898121
    H            1.469719175330    -3.342350700682    -1.259767200491
    H            0.923416624269    -2.555609416616     0.206306678213

  Mulliken Charges: (a.u.)
   Center  Symbol    Alpha    Beta     Spin     Total
       1     H     0.28335  0.28335  0.00000  0.43330
       2     O     4.36831  4.36831  0.00000 -0.73662
       3     C     2.99610  2.99610  0.00000  0.00780
       4     C     3.16891  3.16891  0.00000 -0.33783
       5     H     0.41642  0.41642  0.00000  0.16717
       6     H     0.42805  0.42805  0.00000  0.14390
       7     C     3.15686  3.15686  0.00000 -0.31372
       8     H     0.42828  0.42828  0.00000  0.14343
       9     H     0.42244  0.42244  0.00000  0.15513
      10     C     3.15601  3.15601  0.00000 -0.31201
      11     H     0.41125  0.41125  0.00000  0.17750
      12     H     0.42030  0.42030  0.00000  0.15939
      13     C     3.15728  3.15728  0.00000 -0.31456
      14     H     0.42218  0.42218  0.00000  0.15563
      15     H     0.42329  0.42329  0.00000  0.15342
      16     C     3.15637  3.15637  0.00000 -0.31274
      17     H     0.42183  0.42183  0.00000  0.15634
      18     H     0.41992  0.41992  0.00000  0.16016
      19     C     3.24017  3.24017  0.00000 -0.48034
      20     H     0.42116  0.42116  0.00000  0.15769
      21     H     0.41807  0.41807  0.00000  0.16385
      22     H     0.42278  0.42278  0.00000  0.15444
      23     H     0.41950  0.41950  0.00000  0.16100
      24     H     0.42116  0.42116  0.00000  0.15768

   Total alpha = 33.00000, Total beta = 33.00000, Total charge = -0.00000
