  ==> Input File <==

--------------------------------------------------------------------------
set {
	reference rhf
	basis 6-31G*
}

set_num_threads( 4 )
memory 2 gb

molecule MOL {
0 1

O	 -2.821601	 1.309235	 -0.001213
C	 -2.668563	 0.129746	 -0.000350
C	 -3.801572	 -0.864014	 -0.000442
O	 -1.481751	 -0.454642	 0.000584
H	 -4.417280	 -0.689587	 -0.874708
H	 -3.443784	 -1.883046	 -0.000565
H	 -4.417179	 -0.689832	 0.873954
C	 -0.334255	 0.388708	 0.000906
C	 0.891947	 -0.504646	 0.000751
H	 -0.365390	 1.025305	 -0.873475
H	 -0.365484	 1.024911	 0.875569
C	 2.133726	 0.221715	 0.521189
H	 1.066076	 -0.861744	 -1.010486
H	 0.688984	 -1.379668	 0.611983
C	 3.382087	 -0.662519	 0.528411
H	 2.322775	 1.102582	 -0.089891
H	 1.946616	 0.584790	 1.530271
C	 4.622639	 0.063423	 1.046972
H	 3.570731	 -1.025919	 -0.479274
H	 3.195726	 -1.542123	 1.140486
H	 4.854861	 0.929874	 0.434313
H	 5.490437	 -0.588582	 1.039899
H	 4.477176	 0.409484	 2.066331

	symmetry c1
}
set optking {
	frozen_dihedral = ("
		13 9 8 10
	")
}

ee = optimize('scf')
oeprop('DIPOLE', 'QUADRUPOLE', 'MULLIKEN_CHARGES')
f=open( 'psi4out.xyz', 'w' )
f.write( "23  " )
f.write( str(ee) + "\n" )
f.write( MOL.save_string_xyz() )
f.close()
--------------------------------------------------------------------------

    Molecular point group: c1
  Charge       = 0
  Multiplicity = 1
  Basis Set: 6-31G*
  Basis Set:
  @DF-RHF Final Energy:  -422.97778171654073
    Total Energy =                       -422.9777817165411307
    Molecular point group: c1
  Basis Set: 6-31G*
  Basis Set:
  Basis Set: 6-31G*
  Basis Set:
  @DF-RHF Final Energy:  -422.97792916177377
    Total Energy =                       -422.9779291617736590
  Basis Set: 6-31G*
  Basis Set:
  Basis Set: 6-31G*
  Basis Set:
  @DF-RHF Final Energy:  -422.97793076034765
    Total Energy =                       -422.9779307603477037
  Basis Set: 6-31G*
  Basis Set:
  Basis Set: 6-31G*
  Basis Set:
  @DF-RHF Final Energy:  -422.97798334531853
    Total Energy =                       -422.9779833453186484
  Basis Set: 6-31G*
  Basis Set:
  Basis Set: 6-31G*
  Basis Set:
  @DF-RHF Final Energy:  -422.97801117480276
    Total Energy =                       -422.9780111748027593
  Basis Set: 6-31G*
  Basis Set:
  Basis Set: 6-31G*
  Basis Set:
  @DF-RHF Final Energy:  -422.97801456370604
    Total Energy =                       -422.9780145637062105
  Basis Set: 6-31G*
  Basis Set:
  Charge       = 0
  Multiplicity = 1
  Basis Set: 6-31G*
  Basis Set:

    Orbital Energies (a.u.)
    -----------------------

    Doubly Occupied:

       1A    -20.602272     2A    -20.540088     3A    -11.373588
       4A    -11.281876     5A    -11.232123     6A    -11.224474
       7A    -11.223664     8A    -11.221552     9A    -11.212942
      10A     -1.467192    11A     -1.359983    12A     -1.093861
      13A     -1.041801    14A     -1.003093    15A     -0.930676
      16A     -0.841773    17A     -0.802168    18A     -0.774349
      19A     -0.691743    20A     -0.684180    21A     -0.667147
      22A     -0.646749    23A     -0.606692    24A     -0.587356
      25A     -0.581891    26A     -0.567836    27A     -0.558389
      28A     -0.536104    29A     -0.523835    30A     -0.504291
      31A     -0.493251    32A     -0.476676    33A     -0.471444
      34A     -0.465184    35A     -0.450420    36A     -0.434804

  @DF-RHF Final Energy:  -422.97801472640725

   => Energetics <=

    Nuclear Repulsion Energy =            449.6650183691854750
    One-Electron Energy =               -1466.9351271335672209
    Two-Electron Energy =                 594.2920940379750618
    DFT Exchange-Correlation Energy =       0.0000000000000000
    Empirical Dispersion Energy =           0.0000000000000000
    PCM Polarization Energy =               0.0000000000000000
    EFP Energy =                            0.0000000000000000
    Total Energy =                       -422.9780147264067409
    Molecular point group: c1
  Basis Set: 6-31G*
  Basis Set:

  -Total Gradient:
     Atom            X                  Y                   Z
    ------   -----------------  -----------------  -----------------
       1        0.000008658524    -0.000010715809     0.000001925167
       2       -0.000015441567     0.000011390861    -0.000000647425
       3        0.000001624104    -0.000003730563     0.000005976822
       4        0.000014607257    -0.000038801003     0.000004618716
       5        0.000000662334    -0.000001550079    -0.000002126541
       6        0.000000387203     0.000001118784    -0.000000516895
       7       -0.000001497832     0.000001616867    -0.000002249426
       8        0.003072657145     0.004211926242     0.002204266526
       9       -0.003333120890    -0.004445805219     0.000391306086
      10       -0.001990679426    -0.002762216559    -0.001894325319
      11        0.000024827376     0.000001147213     0.000005868805
      12       -0.000007330126     0.000019094441     0.000010415058
      13        0.002247283427     0.003010228451    -0.000746242914
      14       -0.000014280565     0.000013458012     0.000011537644
      15       -0.000012468708    -0.000013120348     0.000012037681
      16       -0.000015135909    -0.000000466178     0.000001266086
      17        0.000025070470    -0.000000719078     0.000008223712
      18       -0.000003348894     0.000009867786    -0.000011918923
      19        0.000005911345     0.000006046469     0.000002918841
      20       -0.000005648539    -0.000006910998    -0.000001973148
      21        0.000002515555     0.000003812048     0.000003097931
      22       -0.000002689678    -0.000001332745    -0.000002485466
      23       -0.000002562601    -0.000004338600    -0.000000973016

  **** Optimization is complete! (in 7 steps) ****
    Final optimized geometry and variables:
    Molecular point group: c1

    Geometry (in Angstrom), charge = 0, multiplicity = 1:

    O           -2.790462296467     1.351712592851    -0.281134275235
    C           -2.647242563206     0.170989614004    -0.257454943079
    C           -3.788455338785    -0.813169589115    -0.282579860979
    O           -1.466743914729    -0.422676746932    -0.205208536376
    H           -4.372125150196    -0.646265949515    -1.179987424592
    H           -3.439956807906    -1.835079331140    -0.255888006902
    H           -4.432292710610    -0.621211340244     0.567435255813
    C           -0.310504741188     0.413747596910    -0.179339774231
    C            0.909568053560    -0.493729646563    -0.158268408227
    H           -0.331384212073     1.034686273631    -1.064152378909
    H           -0.360081688220     1.050560314592     0.693459862336
    C            2.162246564223     0.246949746003     0.319261916693
    H            1.089640307751    -0.873466779801    -1.160070498025
    H            0.709410099083    -1.342162100382     0.487683154285
    C            3.421223388740    -0.620565436699     0.276558506568
    H            2.318081097592     1.133301818590    -0.294105466935
    H            2.005984062236     0.603454670057     1.335637367023
    C            4.667947926728     0.114741656907     0.766441095197
    H            3.583865273335    -0.968879880530    -0.740969342797
    H            3.264608983359    -1.510378276268     0.882419028657
    H            4.869446094146     0.992711556204     0.159304374333
    H            5.543526741482    -0.525326142463     0.722892664505
    H            4.550161549628     0.444610389550     1.794684924966

  Mulliken Charges: (a.u.)
   Center  Symbol    Alpha    Beta     Spin     Total
       1     O     4.28439  4.28439  0.00000 -0.56878
       2     C     2.61547  2.61547  0.00000  0.76907
       3     C     3.28764  3.28764  0.00000 -0.57528
       4     O     4.31325  4.31325  0.00000 -0.62650
       5     H     0.39759  0.39759  0.00000  0.20482
       6     H     0.40000  0.40000  0.00000  0.20000
       7     H     0.39761  0.39761  0.00000  0.20479
       8     C     2.99662  2.99662  0.00000  0.00676
       9     C     3.16573  3.16573  0.00000 -0.33146
      10     H     0.40907  0.40907  0.00000  0.18187
      11     H     0.40996  0.40996  0.00000  0.18008
      12     C     3.16050  3.16050  0.00000 -0.32099
      13     H     0.41555  0.41555  0.00000  0.16890
      14     H     0.41062  0.41062  0.00000  0.17877
      15     C     3.15166  3.15166  0.00000 -0.30333
      16     H     0.42130  0.42130  0.00000  0.15740
      17     H     0.42044  0.42044  0.00000  0.15911
      18     C     3.23979  3.23979  0.00000 -0.47958
      19     H     0.42166  0.42166  0.00000  0.15668
      20     H     0.42142  0.42142  0.00000  0.15716
      21     H     0.42086  0.42086  0.00000  0.15828
      22     H     0.41804  0.41804  0.00000  0.16392
      23     H     0.42084  0.42084  0.00000  0.15833

   Total alpha = 36.00000, Total beta = 36.00000, Total charge =  0.00000
