  ==> Input File <==

--------------------------------------------------------------------------
set {
	reference rhf
	basis 6-31G*
}

set_num_threads( 1 )
memory 2 gb

molecule MOL {
0 1

H	 -1.836216	 1.387520	 -0.000064
C	 -1.301823	 0.443321	 -0.000031
O	 -0.003969	 0.658512	 0.000451
O	 -1.829879	 -0.616434	 -0.000857
C	 0.539806	 1.391798	 -1.096721
C	 2.031660	 1.507813	 -0.870377
H	 0.063102	 2.361509	 -1.138335
H	 0.312025	 0.867084	 -2.014373
H	 2.240852	 2.028813	 0.056894
H	 2.485608	 2.061495	 -1.685607
H	 2.491135	 0.527222	 -0.823358

	symmetry c1
}
set optking {
	frozen_dihedral = ("
		7 5 3 2
	")
}

ee = energy('scf')
oeprop('DIPOLE', 'QUADRUPOLE', 'MULLIKEN_CHARGES')
f=open( 'psi4out.xyz', 'w' )
f.write( "11  " )
f.write( str(ee) + "\n" )
f.write( MOL.save_string_xyz() )
f.close()
--------------------------------------------------------------------------

    Molecular point group: c1

    Geometry (in Angstrom), charge = 0, multiplicity = 1:

       Center              X                  Y                   Z               Mass
    ------------   -----------------  -----------------  -----------------  -----------------
           H         -1.724177423972     0.710908794670     0.395155014606     1.007825032070
           C         -1.189784423972    -0.233290205330     0.395188014606    12.000000000000
           O          0.108069576028    -0.018099205330     0.395670014606    15.994914619560
           O         -1.717840423972    -1.293045205330     0.394362014606    15.994914619560
           C          0.651844576028     0.715186794670    -0.701501985394    12.000000000000
           C          2.143698576028     0.831201794670    -0.475157985394    12.000000000000
           H          0.175140576028     1.684897794670    -0.743115985394     1.007825032070
           H          0.424063576028     0.190472794670    -1.619153985394     1.007825032070
           H          2.352890576028     1.352201794670     0.452113014606     1.007825032070
           H          2.597646576028     1.384883794670    -1.290387985394     1.007825032070
           H          2.603173576028    -0.149389205330    -0.428138985394     1.007825032070

  Charge       = 0
  Multiplicity = 1
  Basis Set: 6-31G*
  Basis Set:

    Orbital Energies (a.u.)
    -----------------------

    Doubly Occupied:

       1A    -20.599605     2A    -20.565171     3A    -11.379550
       4A    -11.308068     5A    -11.233583     6A     -1.470537
       7A     -1.379386     8A     -1.055836     9A     -0.890991
      10A     -0.840551    11A     -0.741387    12A     -0.690708
      13A     -0.659012    14A     -0.627219    15A     -0.566387
      16A     -0.550405    17A     -0.537091    18A     -0.505679
      19A     -0.465201    20A     -0.451876

  @DF-RHF Final Energy:  -266.81068640247724

   => Energetics <=

    Nuclear Repulsion Energy =            176.6422872910723925
    One-Electron Energy =                -713.8695039509891558
    Two-Electron Energy =                 270.4165302574397742
    DFT Exchange-Correlation Energy =       0.0000000000000000
    Empirical Dispersion Energy =           0.0000000000000000
    PCM Polarization Energy =               0.0000000000000000
    EFP Energy =                            0.0000000000000000
    Total Energy =                       -266.8106864024769607

  Mulliken Charges: (a.u.)
   Center  Symbol    Alpha    Beta     Spin     Total
       1     H     0.43308  0.43308  0.00000  0.13383
       2     C     2.72730  2.72730  0.00000  0.54540
       3     O     4.29264  4.29264  0.00000 -0.58528
       4     O     4.23651  4.23651  0.00000 -0.47301
       5     C     3.00714  3.00714  0.00000 -0.01429
       6     C     3.24726  3.24726  0.00000 -0.49453
       7     H     0.41881  0.41881  0.00000  0.16239
       8     H     0.41008  0.41008  0.00000  0.17985
       9     H     0.40773  0.40773  0.00000  0.18454
      10     H     0.41551  0.41551  0.00000  0.16898
      11     H     0.40394  0.40394  0.00000  0.19211

   Total alpha = 20.00000, Total beta = 20.00000, Total charge = -0.00000
