                              Psi4 1.0.54 Driver

  ==> Input File <==

--------------------------------------------------------------------------
set {
	reference rhf
	basis cc-pvtz
}

set_num_threads( 4 )
memory 2 gb

molecule MOL {
0 1

H	 -3.941973	 0.934228	 -0.390224
C	 -3.240162	 0.342701	 0.161016
C	 -2.105997	 -0.000418	 -0.398703
H	 -3.485368	 0.047206	 1.162193
O	 -1.189946	 -0.765863	 0.237511
H	 -1.846458	 0.297311	 -1.398265
C	 0.026572	 -0.995256	 -0.379403
C	 1.057223	 0.049888	 -0.004615
H	 -0.054361	 -1.010670	 -1.459674
H	 0.397526	 -1.952058	 -0.044198
F	 2.064726	 -0.003418	 -0.852658
F	 0.560734	 1.267639	 -0.050302
F	 1.535585	 -0.139759	 1.201064

	symmetry c1
}
set optking {
	frozen_dihedral = ("
		11 8 7 9
	")
}

ee,wfn = optimize('scf', return_wfn=True)
oeprop( wfn, 'DIPOLE', 'QUADRUPOLE', 'MULLIKEN_CHARGES')
f=open( 'psi4out.xyz', 'w' )
f.write( "13  " )
f.write( str(ee) + "\n" )
f.write( MOL.save_string_xyz() )
f.close()
--------------------------------------------------------------------------

    Molecular point group: c1
  Charge       = 0
  Multiplicity = 1
  Basis Set: CC-PVTZ
  Basis Set:
  @DF-RHF Final Energy:  -527.74068523787969
    Total Energy =                       -527.7406852378799158
    Molecular point group: c1
  Basis Set: CC-PVTZ
  Basis Set:
  Basis Set: CC-PVTZ
  Basis Set:
  @DF-RHF Final Energy:  -527.74080240268984
    Total Energy =                       -527.7408024026897237
  Basis Set: CC-PVTZ
  Basis Set:
  Basis Set: CC-PVTZ
  Basis Set:
  @DF-RHF Final Energy:  -527.74083056558084
    Total Energy =                       -527.7408305655806089
  Basis Set: CC-PVTZ
  Basis Set:
  Basis Set: CC-PVTZ
  Basis Set:
  @DF-RHF Final Energy:  -527.74083372782343
    Total Energy =                       -527.7408337278236559
  Basis Set: CC-PVTZ
  Basis Set:
  Basis Set: CC-PVTZ
  Basis Set:
  @DF-RHF Final Energy:  -527.74083558555333
    Total Energy =                       -527.7408355855534410
  Basis Set: CC-PVTZ
  Basis Set:
  Basis Set: CC-PVTZ
  Basis Set:
  @DF-RHF Final Energy:  -527.74083701041673
    Total Energy =                       -527.7408370104164987
  Basis Set: CC-PVTZ
  Basis Set:
  Charge       = 0
  Multiplicity = 1
  Basis Set: CC-PVTZ
  Basis Set:

    Orbital Energies (a.u.)
    -----------------------

    Doubly Occupied:

       1A    -26.341738     2A    -26.339525     3A    -26.339269
       4A    -20.604487     5A    -11.498325     6A    -11.319938
       7A    -11.298714     8A    -11.213827     9A     -1.750637
      10A     -1.646850    11A     -1.645538    12A     -1.445135
      13A     -1.087768    14A     -1.020415    15A     -0.932500
      16A     -0.844695    17A     -0.838916    18A     -0.827799
      19A     -0.796840    20A     -0.731059    21A     -0.720696
      22A     -0.703688    23A     -0.681278    24A     -0.668060
      25A     -0.661752    26A     -0.651038    27A     -0.638541
      28A     -0.587966    29A     -0.565764    30A     -0.530088
      31A     -0.517518    32A     -0.356700

  @DF-RHF Final Energy:  -527.74083737726937

   => Energetics <=

    Nuclear Repulsion Energy =            413.1075762888405052
    One-Electron Energy =               -1550.0826992480342597
    Two-Electron Energy =                 609.2342855819242686
    DFT Exchange-Correlation Energy =       0.0000000000000000
    Empirical Dispersion Energy =           0.0000000000000000
    PCM Polarization Energy =               0.0000000000000000
    EFP Energy =                            0.0000000000000000
    Total Energy =                       -527.7408373772695995
    Molecular point group: c1
  Basis Set: CC-PVTZ
  Basis Set:

  -Total Gradient:
     Atom            X                  Y                   Z
    ------   -----------------  -----------------  -----------------
       1        0.000002592601     0.000013314606     0.000007483922
       2        0.000009956955    -0.000002822607     0.000005628904
       3       -0.000084353473    -0.000012663478    -0.000049976694
       4        0.000000370558     0.000000502428     0.000002818830
       5        0.000065199774    -0.000030215902     0.000017095268
       6        0.000018754470     0.000007048191     0.000007283439
       7       -0.003828461119     0.004234631749    -0.000351405002
       8        0.002389707098    -0.003608747364     0.002468454307
       9        0.002753801021    -0.002935242591    -0.000153107100
      10        0.000005677322    -0.000010186922    -0.000030083321
      11       -0.001383406065     0.002269088125    -0.001927697773
      12        0.000021745403     0.000057168190     0.000008167645
      13        0.000028415444     0.000018125577    -0.000004662426

  **** Optimization is complete! (in 7 steps) ****
    Final optimized geometry and variables:
    Molecular point group: c1

    Geometry (in Angstrom), charge = 0, multiplicity = 1:

    H           -3.940916852997     1.035810119125    -0.348216356652
    C           -3.259513863534     0.401591411814     0.180713068190
    C           -2.112074002185     0.087619315896    -0.368871398691
    H           -3.534420086478     0.042655322361     1.153054165185
    O           -1.216402382826    -0.720363097233     0.243740778220
    H           -1.822710348396     0.448337175647    -1.338910057446
    C           -0.017197847573    -0.978738501794    -0.390547221439
    C            1.066278397436     0.016026460989    -0.011462627615
    H           -0.095532217459    -0.995629731179    -1.470677609076
    H            0.322828382727    -1.953519499927    -0.072314782722
    F            2.076504556708    -0.088415560370    -0.851957346517
    F            0.634192364385     1.256711460512    -0.070948865126
    F            1.524820618928    -0.187285112310     1.200651814452

  Mulliken Charges: (a.u.)
   Center  Symbol    Alpha    Beta     Spin     Total
       1     H     0.42523  0.42523  0.00000  0.14955
       2     C     3.19757  3.19757  0.00000 -0.39513
       3     C     2.95663  2.95663  0.00000  0.08674
       4     H     0.42499  0.42499  0.00000  0.15001
       5     O     4.14380  4.14380  0.00000 -0.28759
       6     H     0.43444  0.43444  0.00000  0.13113
       7     C     3.02377  3.02377  0.00000 -0.04755
       8     C     2.67343  2.67343  0.00000  0.65314
       9     H     0.45492  0.45492  0.00000  0.09015
      10     H     0.43657  0.43657  0.00000  0.12686
      11     F     4.61270  4.61270  0.00000 -0.22540
      12     F     4.60879  4.60879  0.00000 -0.21758
      13     F     4.60717  4.60717  0.00000 -0.21434

   Total alpha = 32.00000, Total beta = 32.00000, Total charge = -0.00000

*** Psi4 exiting successfully. Buy a developer a beer!
