                              Psi4 1.0.54 Driver

  ==> Input File <==

--------------------------------------------------------------------------
set {
	reference rhf
	basis cc-pvtz
}

set_num_threads( 4 )
memory 2 gb

molecule MOL {
0 1

H	 2.775482	 0.757337	 -0.327934
N	 2.326826	 -0.066186	 0.000000
C	 0.934676	 -0.005420	 0.000000
H	 2.704105	 -0.877899	 -0.431051
C	 0.226436	 -0.001077	 -1.195129
C	 0.226436	 -0.001077	 1.195129
H	 0.759091	 -0.011439	 -2.128123
C	 -1.153391	 0.009141	 -1.189028
H	 0.759091	 -0.011439	 2.128123
C	 -1.153391	 0.009141	 1.189028
H	 -1.680905	 0.012964	 -2.124348
C	 -1.857876	 0.014675	 0.000000
H	 -1.680905	 0.012964	 2.124348
H	 -2.930222	 0.022904	 0.000000

	symmetry c1
}
set optking {
	frozen_dihedral = ("
		1 2 3 5
	")
}

ee,wfn = optimize('scf', return_wfn=True)
oeprop( wfn, 'DIPOLE', 'QUADRUPOLE', 'MULLIKEN_CHARGES')
f=open( 'psi4out.xyz', 'w' )
f.write( "14  " )
f.write( str(ee) + "\n" )
f.write( MOL.save_string_xyz() )
f.close()
--------------------------------------------------------------------------

    Molecular point group: c1
  Charge       = 0
  Multiplicity = 1
  Basis Set: CC-PVTZ
  Basis Set:
  @DF-RHF Final Energy:  -285.82509903171757
    Total Energy =                       -285.8250990317172864
    Molecular point group: c1
  Basis Set: CC-PVTZ
  Basis Set:
  Basis Set: CC-PVTZ
  Basis Set:
  @DF-RHF Final Energy:  -285.82685795419889
    Total Energy =                       -285.8268579541989993
  Basis Set: CC-PVTZ
  Basis Set:
  Basis Set: CC-PVTZ
  Basis Set:
  @DF-RHF Final Energy:  -285.82725821780213
    Total Energy =                       -285.8272582178020684
  Basis Set: CC-PVTZ
  Basis Set:
  Basis Set: CC-PVTZ
  Basis Set:
  @DF-RHF Final Energy:  -285.82729442832260
    Total Energy =                       -285.8272944283223751
  Basis Set: CC-PVTZ
  Basis Set:
  Charge       = 0
  Multiplicity = 1
  Basis Set: CC-PVTZ
  Basis Set:

    Orbital Energies (a.u.)
    -----------------------

    Doubly Occupied:

       1A    -15.542779     2A    -11.259721     3A    -11.228697
       4A    -11.227056     5A    -11.224212     6A    -11.223940
       7A    -11.219632     8A     -1.210022     9A     -1.131965
      10A     -1.016097    11A     -0.990444    12A     -0.830870
      13A     -0.810884    14A     -0.705982    15A     -0.663653
      16A     -0.648813    17A     -0.630759    18A     -0.593973
      19A     -0.585927    20A     -0.509261    21A     -0.500272
      22A     -0.496572    23A     -0.413876    24A     -0.336501
      25A     -0.328524

  @DF-RHF Final Energy:  -285.82729521803088

   => Energetics <=

    Nuclear Repulsion Energy =            272.9489909497177109
    One-Electron Energy =                -926.8917063345037377
    Two-Electron Energy =                 368.1154201667553139
    DFT Exchange-Correlation Energy =       0.0000000000000000
    Empirical Dispersion Energy =           0.0000000000000000
    PCM Polarization Energy =               0.0000000000000000
    EFP Energy =                            0.0000000000000000
    Total Energy =                       -285.8272952180306561
    Molecular point group: c1
  Basis Set: CC-PVTZ
  Basis Set:

  -Total Gradient:
     Atom            X                  Y                   Z
    ------   -----------------  -----------------  -----------------
       1        0.000006222672    -0.000416231131    -0.001115270487
       2        0.000070176271     0.000856734467     0.001327146872
       3       -0.000074678176    -0.001433753926    -0.000166270489
       4       -0.000030897606     0.000102819724     0.000070170361
       5       -0.000035090718     0.000937181094    -0.000062628868
       6        0.000082495752    -0.000017080711    -0.000015335557
       7       -0.000005526632     0.000006384901     0.000019754950
       8        0.000035571975    -0.000083028231    -0.000021139323
       9        0.000007455453     0.000006648298    -0.000004638323
      10       -0.000035635526    -0.000068605718    -0.000047650783
      11       -0.000023875024     0.000007221149    -0.000001931675
      12       -0.000001706594     0.000103479090     0.000036992637
      13        0.000004550570     0.000006178197    -0.000002416111
      14        0.000000937580    -0.000007947203    -0.000016783203

  **** Optimization is complete! (in 5 steps) ****
    Final optimized geometry and variables:
    Molecular point group: c1

    Geometry (in Angstrom), charge = 0, multiplicity = 1:

    H            2.745186211690     0.802466959344    -0.255008691014
    N            2.354601476723    -0.063190447569     0.053809576568
    C            0.925145090645    -0.029827811815     0.003658584179
    H            2.717906919047    -0.778379829590    -0.539797193603
    C            0.221995291836    -0.017314611386    -1.191650110607
    C            0.222384063699    -0.000191986453     1.194414193723
    H            0.759775311871    -0.035769716423    -2.121635318075
    C           -1.158928500087     0.016896426882    -1.194168739074
    H            0.770578139527    -0.014500453616     2.115907250121
    C           -1.160083221404     0.042594553623     1.192881787598
    H           -1.689844335227     0.022571929149    -2.127210194582
    C           -1.855539979483     0.049723171620    -0.000367509471
    H           -1.692029888151     0.065870602405     2.124988310961
    H           -2.928251042765     0.078939228286    -0.001667484553

  Mulliken Charges: (a.u.)
   Center  Symbol    Alpha    Beta     Spin     Total
       1     H     0.42331  0.42331  0.00000  0.15338
       2     N     3.69929  3.69929  0.00000 -0.39858
       3     C     2.90751  2.90751  0.00000  0.18498
       4     H     0.42286  0.42286  0.00000  0.15429
       5     C     3.11432  3.11432  0.00000 -0.22864
       6     C     3.09573  3.09573  0.00000 -0.19146
       7     H     0.42616  0.42616  0.00000  0.14769
       8     C     3.07296  3.07296  0.00000 -0.14592
       9     H     0.41692  0.41692  0.00000  0.16616
      10     C     3.06594  3.06594  0.00000 -0.13188
      11     H     0.42357  0.42357  0.00000  0.15285
      12     C     3.08471  3.08471  0.00000 -0.16942
      13     H     0.42306  0.42306  0.00000  0.15388
      14     H     0.42366  0.42366  0.00000  0.15268

   Total alpha = 25.00000, Total beta = 25.00000, Total charge =  0.00000

*** Psi4 exiting successfully. Buy a developer a beer!
