  ==> Input File <==

--------------------------------------------------------------------------
set {
	reference rhf
	basis 6-31G*
}

set_num_threads( 1 )
memory 2 gb

molecule MOL {
0 1

O	 -0.604898	 -0.015649	 -0.433783
C	 0.486307	 0.169203	 0.000779
C	 1.608116	 -0.841643	 0.000302
O	 0.867389	 1.311124	 0.556118
C	 2.990107	 -0.200498	 -0.000684
H	 1.468623	 -1.481519	 -0.865924
H	 1.469683	 -1.481289	 0.866878
H	 3.129736	 0.423364	 -0.875135
H	 3.757882	 -0.966877	 -0.001197
H	 3.130964	 0.423383	 0.873533
C	 -0.092173	 2.360716	 0.626814
C	 0.576673	 3.542766	 1.295928
H	 -0.950267	 2.016640	 1.187947
H	 -0.424341	 2.602775	 -0.373517
H	 0.908401	 3.282535	 2.294625
H	 -0.122576	 4.369267	 1.370719
H	 1.437199	 3.872003	 0.724654

	symmetry c1
}
set optking {
	frozen_dihedral = ("
		2 4 11 13,
		11 4 2 3
	")
}

ee = energy('scf')
oeprop('DIPOLE', 'QUADRUPOLE', 'MULLIKEN_CHARGES')
f=open( 'psi4out.xyz', 'w' )
f.write( "17  " )
f.write( str(ee) + "\n" )
f.write( MOL.save_string_xyz() )
f.close()
--------------------------------------------------------------------------

    Molecular point group: c1

    Geometry (in Angstrom), charge = 0, multiplicity = 1:

       Center              X                  Y                   Z               Mass
    ------------   -----------------  -----------------  -----------------  -----------------
           O         -1.437089733657    -0.939052472944    -0.730425195967    15.994914619560
           C         -0.345884733657    -0.754200472944    -0.295863195967    12.000000000000
           C          0.775924266343    -1.765046472944    -0.296340195967    12.000000000000
           O          0.035197266343     0.387720527056     0.259475804033    15.994914619560
           C          2.157915266343    -1.123901472944    -0.297326195967    12.000000000000
           H          0.636431266343    -2.404922472944    -1.162566195967     1.007825032070
           H          0.637491266343    -2.404692472944     0.570235804033     1.007825032070
           H          2.297544266343    -0.500039472944    -1.171777195967     1.007825032070
           H          2.925690266343    -1.890280472944    -0.297839195967     1.007825032070
           H          2.298772266343    -0.500020472944     0.576890804033     1.007825032070
           C         -0.924364733657     1.437312527056     0.330171804033    12.000000000000
           C         -0.255518733657     2.619362527056     0.999285804033    12.000000000000
           H         -1.782458733657     1.093236527056     0.891304804033     1.007825032070
           H         -1.256532733657     1.679371527056    -0.670159195967     1.007825032070
           H          0.076209266343     2.359131527056     1.997982804033     1.007825032070
           H         -0.954767733657     3.445863527056     1.074076804033     1.007825032070
           H          0.605007266343     2.948599527056     0.428011804033     1.007825032070

  Charge       = 0
  Multiplicity = 1
  Basis Set: 6-31G*
  Basis Set:

    Orbital Energies (a.u.)
    -----------------------

    Doubly Occupied:

       1A    -20.602438     2A    -20.541977     3A    -11.371372
       4A    -11.285324     5A    -11.237198     6A    -11.223102
       7A    -11.219196     8A     -1.468154     9A     -1.361114
      10A     -1.074953    11A     -1.029371    12A     -0.903724
      13A     -0.860291    14A     -0.778144    15A     -0.691478
      16A     -0.679151    17A     -0.673126    18A     -0.627722
      19A     -0.577968    20A     -0.570627    21A     -0.551804
      22A     -0.547358    23A     -0.524198    24A     -0.515887
      25A     -0.505053    26A     -0.490708    27A     -0.451542
      28A     -0.430840

  @DF-RHF Final Energy:  -344.90886495815164

   => Energetics <=

    Nuclear Repulsion Energy =            318.9367304601352089
    One-Electron Energy =               -1102.1035755606405928
    Two-Electron Energy =                 438.2579801423536310
    DFT Exchange-Correlation Energy =       0.0000000000000000
    Empirical Dispersion Energy =           0.0000000000000000
    PCM Polarization Energy =               0.0000000000000000
    EFP Energy =                            0.0000000000000000
    Total Energy =                       -344.9088649581517529

  Mulliken Charges: (a.u.)
   Center  Symbol    Alpha    Beta     Spin     Total
       1     O     4.28833  4.28833  0.00000 -0.57666
       2     C     2.60438  2.60438  0.00000  0.79124
       3     C     3.20767  3.20767  0.00000 -0.41535
       4     O     4.31065  4.31065  0.00000 -0.62130
       5     C     3.24121  3.24121  0.00000 -0.48243
       6     H     0.39800  0.39800  0.00000  0.20400
       7     H     0.39962  0.39962  0.00000  0.20076
       8     H     0.41562  0.41562  0.00000  0.16876
       9     H     0.41695  0.41695  0.00000  0.16611
      10     H     0.40684  0.40684  0.00000  0.18633
      11     C     3.00209  3.00209  0.00000 -0.00418
      12     C     3.24889  3.24889  0.00000 -0.49779
      13     H     0.40997  0.40997  0.00000  0.18006
      14     H     0.40981  0.40981  0.00000  0.18038
      15     H     0.41209  0.41209  0.00000  0.17582
      16     H     0.41596  0.41596  0.00000  0.16808
      17     H     0.41192  0.41192  0.00000  0.17615

   Total alpha = 28.00000, Total beta = 28.00000, Total charge = -0.00000
