                              Psi4 1.0.54 Driver

  ==> Input File <==

--------------------------------------------------------------------------
set {
	reference rhf
	basis cc-pvtz
}

set_num_threads( 4 )
memory 2 gb

molecule MOL {
0 1

H	 2.381946	 -3.030703	 -3.790776
C	 2.095972	 -2.812673	 -2.768626
C	 0.866038	 -1.912758	 -2.723174
H	 1.908151	 -3.757889	 -2.270299
H	 2.945306	 -2.345909	 -2.280999
C	 0.429461	 -1.580159	 -1.304109
H	 0.038142	 -2.386441	 -3.238905
H	 1.075801	 -0.989452	 -3.258040
N	 -0.752290	 -0.745227	 -1.294653
H	 0.195783	 -2.499910	 -0.776262
H	 1.264116	 -1.120120	 -0.766710
C	 -1.215959	 -0.382435	 0.027143
H	 -0.586100	 0.080110	 -1.831791
C	 -2.451944	 0.502410	 -0.038737
H	 -1.457656	 -1.296355	 0.561475
H	 -0.440842	 0.120932	 0.612714
C	 -3.752217	 -0.292550	 0.005776
H	 -2.407325	 1.093801	 -0.946480
H	 -2.431979	 1.206234	 0.790023
H	 -3.817783	 -0.982946	 -0.828547
H	 -4.612613	 0.364348	 -0.042306
H	 -3.830160	 -0.871666	 0.919868

	symmetry c1
}
set optking {
	frozen_dihedral = ("
		15 12 14 18
	")
}

ee,wfn = optimize('scf', return_wfn=True)
oeprop( wfn, 'DIPOLE', 'QUADRUPOLE', 'MULLIKEN_CHARGES')
f=open( 'psi4out.xyz', 'w' )
f.write( "22  " )
f.write( str(ee) + "\n" )
f.write( MOL.save_string_xyz() )
f.close()
--------------------------------------------------------------------------

    Molecular point group: c1
  Charge       = 0
  Multiplicity = 1
  Basis Set: CC-PVTZ
  Basis Set:
  @DF-RHF Final Energy:  -290.48662612333123
    Total Energy =                       -290.4866261233311207
    Molecular point group: c1
  Basis Set: CC-PVTZ
  Basis Set:
  Basis Set: CC-PVTZ
  Basis Set:
  @DF-RHF Final Energy:  -290.48707878549305
    Total Energy =                       -290.4870787854927130
  Basis Set: CC-PVTZ
  Basis Set:
  Basis Set: CC-PVTZ
  Basis Set:
  @DF-RHF Final Energy:  -290.48721035944834
    Total Energy =                       -290.4872103594485111
  Basis Set: CC-PVTZ
  Basis Set:
  Basis Set: CC-PVTZ
  Basis Set:
  @DF-RHF Final Energy:  -290.48721396507887
    Total Energy =                       -290.4872139650788085
  Basis Set: CC-PVTZ
  Basis Set:
  Charge       = 0
  Multiplicity = 1
  Basis Set: CC-PVTZ
  Basis Set:

    Orbital Energies (a.u.)
    -----------------------

    Doubly Occupied:

       1A    -15.528786     2A    -11.236579     3A    -11.236329
       4A    -11.212197     5A    -11.211826     6A    -11.207809
       7A    -11.201374     8A     -1.207434     9A     -1.059044
      10A     -1.023980    11A     -0.926847    12A     -0.871586
      13A     -0.810260    14A     -0.793354    15A     -0.662952
      16A     -0.635232    17A     -0.614645    18A     -0.609072
      19A     -0.571728    20A     -0.563843    21A     -0.540816
      22A     -0.524469    23A     -0.504504    24A     -0.488481
      25A     -0.478561    26A     -0.474263    27A     -0.467419
      28A     -0.451520    29A     -0.361188

  @DF-RHF Final Energy:  -290.48721481700875

   => Energetics <=

    Nuclear Repulsion Energy =            316.7153435947648177
    One-Electron Energy =               -1019.4529286369104284
    Two-Electron Energy =                 412.2503702251370328
    DFT Exchange-Correlation Energy =       0.0000000000000000
    Empirical Dispersion Energy =           0.0000000000000000
    PCM Polarization Energy =               0.0000000000000000
    EFP Energy =                            0.0000000000000000
    Total Energy =                       -290.4872148170085779
    Molecular point group: c1
  Basis Set: CC-PVTZ
  Basis Set:

  -Total Gradient:
     Atom            X                  Y                   Z
    ------   -----------------  -----------------  -----------------
       1        0.000000418721    -0.000001319944     0.000002041940
       2        0.000000969474     0.000002179671    -0.000004833545
       3        0.000008915016    -0.000006846894     0.000009011805
       4        0.000000482484     0.000004593868    -0.000001094747
       5       -0.000006203343    -0.000002053933    -0.000001871953
       6       -0.000021332551     0.000019164634    -0.000031241182
       7        0.000004616600     0.000003022934     0.000000388971
       8       -0.000000733684    -0.000005308331     0.000000220801
       9        0.000040917042    -0.000006114980     0.000038242612
      10        0.000003835092     0.000003056718     0.000000688540
      11        0.000007816245    -0.000007559500    -0.000001058320
      12        0.000850420083     0.001622919709     0.004062992596
      13        0.000000457026    -0.000014611172     0.000014082436
      14        0.002171355428     0.003473193679     0.001751219646
      15       -0.001059090746    -0.001882512557    -0.003710851354
      16       -0.000017083677    -0.000004397805    -0.000014070352
      17       -0.000017547485    -0.000010149901    -0.000025307195
      18       -0.001959133162    -0.003170751937    -0.002110697450
      19        0.000009284933    -0.000006695378    -0.000004633401
      20        0.000006030007    -0.000002552921     0.000009927242
      21       -0.000010653412     0.000001840016     0.000007258925
      22       -0.000013740093    -0.000009095974     0.000009583987

  **** Optimization is complete! (in 5 steps) ****
    Final optimized geometry and variables:
    Molecular point group: c1

    Geometry (in Angstrom), charge = 0, multiplicity = 1:

    H            3.006112933981    -2.023943846369    -2.646646255527
    C            2.729120350823    -1.806570195641    -1.621877097395
    C            1.525388007336    -0.872569783873    -1.565361261098
    H            2.515823216212    -2.750209745870    -1.130909885060
    H            3.592533811695    -1.368075875413    -1.132778083241
    C            1.101529309227    -0.540760965075    -0.142162387345
    H            0.683383759673    -1.318092069426    -2.083388953682
    H            1.760282869738     0.049170754865    -2.092400408435
    N           -0.057635562876     0.324849709341    -0.121935464107
    H            0.846213226401    -1.458742425916     0.378632292242
    H            1.949791307399    -0.107061250528     0.396072972494
    C           -0.498936819504     0.702483926861     1.207775140505
    H            0.127753067309     1.146026673236    -0.658983910693
    C           -1.778353999058     1.539981256330     1.142818556799
    H           -0.700010484214    -0.221771896200     1.739424048455
    H            0.277714905326     1.234670163196     1.760139391962
    C           -3.044266596183     0.686630417357     1.115208198266
    H           -1.758370851554     2.135527668888     0.235063526851
    H           -1.816255257710     2.225999201577     1.981739146371
    H           -3.008253873873    -0.020388610110     0.295091302047
    H           -3.929591732091     1.300351420656     0.991975713077
    H           -3.156868660949     0.125533603066     2.037078029462

  Mulliken Charges: (a.u.)
   Center  Symbol    Alpha    Beta     Spin     Total
       1     H     0.44770  0.44770  0.00000  0.10460
       2     C     3.15354  3.15354  0.00000 -0.30708
       3     C     3.08086  3.08086  0.00000 -0.16173
       4     H     0.45471  0.45471  0.00000  0.09058
       5     H     0.45611  0.45611  0.00000  0.08778
       6     C     3.02191  3.02191  0.00000 -0.04382
       7     H     0.44922  0.44922  0.00000  0.10156
       8     H     0.45954  0.45954  0.00000  0.08092
       9     N     3.64255  3.64255  0.00000 -0.28510
      10     H     0.45935  0.45935  0.00000  0.08130
      11     H     0.47510  0.47510  0.00000  0.04980
      12     C     3.03406  3.03406  0.00000 -0.06812
      13     H     0.44457  0.44457  0.00000  0.11086
      14     C     3.07902  3.07902  0.00000 -0.15804
      15     H     0.45942  0.45942  0.00000  0.08116
      16     H     0.46341  0.46341  0.00000  0.07318
      17     C     3.15012  3.15012  0.00000 -0.30024
      18     H     0.46006  0.46006  0.00000  0.07988
      19     H     0.45134  0.45134  0.00000  0.09732
      20     H     0.44897  0.44897  0.00000  0.10206
      21     H     0.45130  0.45130  0.00000  0.09739
      22     H     0.45713  0.45713  0.00000  0.08574

   Total alpha = 29.00000, Total beta = 29.00000, Total charge = -0.00000

*** Psi4 exiting successfully. Buy a developer a beer!
