  ==> Input File <==

--------------------------------------------------------------------------
set {
	reference rhf
	basis cc-pvtz
}

set_num_threads( 4 )
memory 2 gb

molecule MOL {
0 1

H	 3.083659	 -1.378387	 0.000000
O	 2.179005	 -1.633391	 0.000000
C	 1.366950	 -0.558201	 0.000000
C	 1.841867	 0.728537	 0.203565
C	 0.020063	 -0.770221	 -0.212045
H	 2.891396	 0.891889	 0.368598
C	 0.970350	 1.798740	 0.194668
H	 -0.349821	 -1.762801	 -0.369571
C	 -0.846389	 0.308006	 -0.219376
H	 1.349175	 2.789778	 0.353288
C	 -0.378458	 1.595176	 -0.016749
C	 -2.299505	 0.093139	 -0.446671
H	 -1.058562	 2.425412	 -0.024214
O	 -2.804656	 -0.960771	 -0.629747
H	 -2.903952	 1.005335	 -0.434781

	symmetry c1
}
set optking {
	frozen_dihedral = ("
		4 3 2 1
	")
}

ee = optimize('scf')
oeprop('DIPOLE', 'QUADRUPOLE', 'MULLIKEN_CHARGES')
f=open( 'psi4out.xyz', 'w' )
f.write( "15  " )
f.write( str(ee) + "\n" )
f.write( MOL.save_string_xyz() )
f.close()
--------------------------------------------------------------------------

    Molecular point group: c1
  Charge       = 0
  Multiplicity = 1
  Basis Set: CC-PVTZ
  Basis Set:
  @DF-RHF Final Energy:  -418.43877032242960
    Total Energy =                       -418.4387703224298320
    Molecular point group: c1
  Basis Set: CC-PVTZ
  Basis Set:
  Basis Set: CC-PVTZ
  Basis Set:
  @DF-RHF Final Energy:  -418.43877525919538
    Total Energy =                       -418.4387752591953813
  Basis Set: CC-PVTZ
  Basis Set:
  Basis Set: CC-PVTZ
  Basis Set:
  @DF-RHF Final Energy:  -418.43878804183089
    Total Energy =                       -418.4387880418308896
  Basis Set: CC-PVTZ
  Basis Set:
  Basis Set: CC-PVTZ
  Basis Set:
  @DF-RHF Final Energy:  -418.43872514019461
    Total Energy =                       -418.4387251401946060
  Basis Set: CC-PVTZ
  Basis Set:
  Basis Set: CC-PVTZ
  Basis Set:
  @DF-RHF Final Energy:  -418.43878860563944
    Total Energy =                       -418.4387886056395018
  Basis Set: CC-PVTZ
  Basis Set:
  Charge       = 0
  Multiplicity = 1
  Basis Set: CC-PVTZ
  Basis Set:

    Orbital Energies (a.u.)
    -----------------------

    Doubly Occupied:

       1A    -20.595387     2A    -20.554378     3A    -11.327469
       4A    -11.311613     5A    -11.251051     6A    -11.250670
       7A    -11.247768     8A    -11.243378     9A    -11.237374
      10A     -1.427039    11A     -1.410143    12A     -1.174341
      13A     -1.052132    14A     -1.030974    15A     -0.902680
      16A     -0.850205    17A     -0.816734    18A     -0.740380
      19A     -0.706207    20A     -0.690016    21A     -0.644587
      22A     -0.640617    23A     -0.614976    24A     -0.609452
      25A     -0.577993    26A     -0.556858    27A     -0.545916
      28A     -0.516189    29A     -0.492712    30A     -0.426805
      31A     -0.358324    32A     -0.331266

  @DF-RHF Final Energy:  -418.43878883104378

   => Energetics <=

    Nuclear Repulsion Energy =            404.0888893814797029
    One-Electron Energy =               -1370.7840937616629162
    Two-Electron Energy =                 548.2564155491390920
    DFT Exchange-Correlation Energy =       0.0000000000000000
    Empirical Dispersion Energy =           0.0000000000000000
    PCM Polarization Energy =               0.0000000000000000
    EFP Energy =                            0.0000000000000000
    Total Energy =                       -418.4387888310441213
    Molecular point group: c1
  Basis Set: CC-PVTZ
  Basis Set:

  -Total Gradient:
     Atom            X                  Y                   Z
    ------   -----------------  -----------------  -----------------
       1        0.000013179966     0.000003323705    -0.000814716778
       2       -0.000086727246    -0.000041661782     0.001356289206
       3        0.000248575458     0.000170679350    -0.001133528660
       4       -0.000073223973    -0.000170487386     0.000576313092
       5       -0.000101993466     0.000043367961    -0.000000991333
       6       -0.000000611170     0.000007502960    -0.000003321785
       7       -0.000117494695     0.000031563814     0.000047610196
       8        0.000007340252    -0.000004448995    -0.000004401449
       9        0.000012186463    -0.000110765159     0.000015200649
      10        0.000008181546    -0.000001693980    -0.000005648072
      11        0.000098070264     0.000075259905    -0.000034160150
      12        0.000004778603     0.000006626085    -0.000000978472
      13       -0.000004391374    -0.000003516632     0.000000024763
      14       -0.000005777778    -0.000003459369    -0.000000327525
      15       -0.000002092858    -0.000002290476     0.000002636318

  **** Optimization is complete! (in 6 steps) ****
    Final optimized geometry and variables:
    Molecular point group: c1

    Geometry (in Angstrom), charge = 0, multiplicity = 1:

    H            3.074753669340    -1.385447219134     0.146570540625
    O            2.170048757268    -1.640625925753     0.135597771910
    C            1.358372725139    -0.564838796326     0.124898056597
    C            1.832779901388     0.721735953158     0.333671500331
    C            0.011476933518    -0.777028504955    -0.083858239363
    H            2.881776900858     0.883774370648     0.503424815501
    C            0.961584750056     1.791733908078     0.325521777906
    H           -0.358498759449    -1.769430125338    -0.242852528669
    C           -0.855852460777     0.301057767448    -0.086183097397
    H            1.340007398327     2.782646631558     0.485944206689
    C           -0.387954172511     1.587868760171     0.116057101803
    C           -2.309517771191     0.086030528796    -0.310633648627
    H           -1.068274421623     2.418011599369     0.110962504159
    O           -2.814612426353    -0.967546518090    -0.494972212092
    H           -2.913833061572     0.998487835655    -0.295114902375

  Mulliken Charges: (a.u.)
   Center  Symbol    Alpha    Beta     Spin     Total
       1     H     0.38713  0.38713  0.00000  0.22573
       2     O     4.17029  4.17029  0.00000 -0.34057
       3     C     2.84276  2.84276  0.00000  0.31447
       4     C     3.12573  3.12573  0.00000 -0.25146
       5     C     3.11866  3.11866  0.00000 -0.23733
       6     H     0.43066  0.43066  0.00000  0.13869
       7     C     3.06299  3.06299  0.00000 -0.12597
       8     H     0.40480  0.40480  0.00000  0.19039
       9     C     2.97077  2.97077  0.00000  0.05847
      10     H     0.41937  0.41937  0.00000  0.16126
      11     C     3.10927  3.10927  0.00000 -0.21855
      12     C     2.90900  2.90900  0.00000  0.18200
      13     H     0.42324  0.42324  0.00000  0.15351
      14     O     4.16884  4.16884  0.00000 -0.33769
      15     H     0.45648  0.45648  0.00000  0.08704

   Total alpha = 32.00000, Total beta = 32.00000, Total charge =  0.00000
