                              Psi4 1.0.54 Driver

  ==> Input File <==

--------------------------------------------------------------------------
set {
	reference rhf
	basis cc-pvtz
}

set_num_threads( 4 )
memory 2 gb

molecule MOL {
0 1

H	 -1.088256	 -1.364742	 0.152233
O	 -1.432053	 -0.565244	 -0.200812
C	 -0.727158	 0.534527	 0.310686
C	 0.680222	 0.664433	 -0.252229
H	 -1.306802	 1.408001	 0.044211
H	 -0.690821	 0.490158	 1.397609
C	 1.750756	 0.904354	 0.808168
H	 0.913754	 -0.235277	 -0.811887
H	 0.682841	 1.488113	 -0.960885
H	 1.818982	 0.072469	 1.500582
H	 2.727174	 1.022668	 0.354116
H	 1.542917	 1.803128	 1.380850

	symmetry c1
}
set optking {
	frozen_dihedral = ("
		8 4 3 2
	")
}

ee,wfn = optimize('scf', return_wfn=True)
oeprop( wfn, 'DIPOLE', 'QUADRUPOLE', 'MULLIKEN_CHARGES')
f=open( 'psi4out.xyz', 'w' )
f.write( "12  " )
f.write( str(ee) + "\n" )
f.write( MOL.save_string_xyz() )
f.close()
--------------------------------------------------------------------------

    Molecular point group: c1
  Charge       = 0
  Multiplicity = 1
  Basis Set: CC-PVTZ
  Basis Set:
  @DF-RHF Final Energy:  -193.18457848197312
    Total Energy =                       -193.1845784819732614
    Molecular point group: c1
  Basis Set: CC-PVTZ
  Basis Set:
  Basis Set: CC-PVTZ
  Basis Set:
  @DF-RHF Final Energy:  -193.18503116993500
    Total Energy =                       -193.1850311699351721
  Basis Set: CC-PVTZ
  Basis Set:
  Basis Set: CC-PVTZ
  Basis Set:
  @DF-RHF Final Energy:  -193.18510102210672
    Total Energy =                       -193.1851010221068918
  Basis Set: CC-PVTZ
  Basis Set:
  Basis Set: CC-PVTZ
  Basis Set:
  @DF-RHF Final Energy:  -193.18510741504781
    Total Energy =                       -193.1851074150477245
  Basis Set: CC-PVTZ
  Basis Set:
  Charge       = 0
  Multiplicity = 1
  Basis Set: CC-PVTZ
  Basis Set:

    Orbital Energies (a.u.)
    -----------------------

    Doubly Occupied:

       1A    -20.545434     2A    -11.266060     3A    -11.217417
       4A    -11.214766     5A     -1.363458     6A     -1.051355
       7A     -0.920446     8A     -0.819385     9A     -0.694070
      10A     -0.638298    11A     -0.597155    12A     -0.573440
      13A     -0.566185    14A     -0.509094    15A     -0.489771
      16A     -0.464499    17A     -0.431709

  @DF-RHF Final Energy:  -193.18510781017824

   => Energetics <=

    Nuclear Repulsion Energy =            131.0547678875545330
    One-Electron Energy =                -521.7546664212156884
    Two-Electron Energy =                 197.5147907234828040
    DFT Exchange-Correlation Energy =       0.0000000000000000
    Empirical Dispersion Energy =           0.0000000000000000
    PCM Polarization Energy =               0.0000000000000000
    EFP Energy =                            0.0000000000000000
    Total Energy =                       -193.1851078101783514
    Molecular point group: c1
  Basis Set: CC-PVTZ
  Basis Set:

  -Total Gradient:
     Atom            X                  Y                   Z
    ------   -----------------  -----------------  -----------------
       1       -0.000042404653     0.000019344078    -0.000028529100
       2        0.000799048823    -0.001374248265     0.001761749270
       3       -0.001275113699     0.002087471605    -0.002883094541
       4        0.001550222332    -0.001877323844     0.003565558536
       5        0.000022527956     0.000024115124     0.000006403719
       6       -0.000009344580    -0.000035278028    -0.000010191169
       7       -0.000004623578    -0.000039175462    -0.000039493729
       8       -0.001005175719     0.001164109668    -0.002368945239
       9       -0.000017276973     0.000016103602    -0.000003637245
      10        0.000001682970     0.000009495677    -0.000002381723
      11       -0.000003775670    -0.000007209513     0.000016828055
      12       -0.000015767213     0.000012595360    -0.000014266834

  **** Optimization is complete! (in 5 steps) ****
    Final optimized geometry and variables:
    Molecular point group: c1

    Geometry (in Angstrom), charge = 0, multiplicity = 1:

    H           -1.076959120428    -1.702710730311    -0.097195852729
    O           -1.486813660560    -0.901634831760    -0.367959961833
    C           -0.767785260754     0.193896719870     0.133123662107
    C            0.661983479435     0.296757141501    -0.423562348279
    H           -1.344545538063     1.069360311937    -0.128994157481
    H           -0.737325017990     0.146567960225     1.219269027716
    C            1.718354291568     0.555440488576     0.644785365777
    H            0.882979376629    -0.615578966394    -0.967207367789
    H            0.704857084901     1.086371724331    -1.166455026401
    H            1.744918735413    -0.247234738400     1.374611385608
    H            2.705950714934     0.639439846686     0.207022431086
    H            1.516549028787     1.477717460419     1.179595967548

  Mulliken Charges: (a.u.)
   Center  Symbol    Alpha    Beta     Spin     Total
       1     H     0.39478  0.39478  0.00000  0.21044
       2     O     4.20200  4.20200  0.00000 -0.40400
       3     C     2.96956  2.96956  0.00000  0.06089
       4     C     3.09423  3.09423  0.00000 -0.18846
       5     H     0.45421  0.45421  0.00000  0.09159
       6     H     0.47148  0.47148  0.00000  0.05703
       7     C     3.15054  3.15054  0.00000 -0.30107
       8     H     0.45207  0.45207  0.00000  0.09585
       9     H     0.45245  0.45245  0.00000  0.09510
      10     H     0.45682  0.45682  0.00000  0.08637
      11     H     0.44794  0.44794  0.00000  0.10411
      12     H     0.45392  0.45392  0.00000  0.09216

   Total alpha = 17.00000, Total beta = 17.00000, Total charge =  0.00000

*** Psi4 exiting successfully. Buy a developer a beer!
