  ==> Input File <==

--------------------------------------------------------------------------
set {
	reference rhf
	basis 6-31G*
}

set_num_threads( 4 )
memory 2 gb

molecule MOL {
0 1

O	 0.749854	 1.307668	 -0.000040
C	 0.576249	 0.131685	 -0.000108
C	 -0.766779	 -0.556801	 -0.000461
O	 1.568443	 -0.749345	 -0.000005
C	 -1.945214	 0.412366	 0.000161
H	 -0.796911	 -1.211249	 -0.867467
H	 -0.796854	 -1.212390	 0.865687
C	 -3.192068	 -0.200255	 -0.635935
H	 -1.665447	 1.316486	 -0.529839
H	 -2.160075	 0.713963	 1.019694
H	 -3.011217	 -0.482343	 -1.669459
H	 -4.017382	 0.504133	 -0.626135
H	 -3.511978	 -1.090852	 -0.102109
C	 2.886820	 -0.232538	 0.000322
H	 3.059106	 0.369571	 -0.880203
H	 3.540187	 -1.091012	 0.000050
H	 3.059019	 0.368956	 0.881266

	symmetry c1
}
set optking {
	frozen_dihedral = ("
		9 5 3 6
	")
}

ee = optimize('scf')
oeprop('DIPOLE', 'QUADRUPOLE', 'MULLIKEN_CHARGES')
f=open( 'psi4out.xyz', 'w' )
f.write( "17  " )
f.write( str(ee) + "\n" )
f.write( MOL.save_string_xyz() )
f.close()
--------------------------------------------------------------------------

    Molecular point group: c1
  Charge       = 0
  Multiplicity = 1
  Basis Set: 6-31G*
  Basis Set:
  @DF-RHF Final Energy:  -344.90468196098141
    Total Energy =                       -344.9046819609812928
    Molecular point group: c1
  Basis Set: 6-31G*
  Basis Set:
  Basis Set: 6-31G*
  Basis Set:
  @DF-RHF Final Energy:  -344.90489869454325
    Total Energy =                       -344.9048986945433057
  Basis Set: 6-31G*
  Basis Set:
  Basis Set: 6-31G*
  Basis Set:
  @DF-RHF Final Energy:  -344.90492104071751
    Total Energy =                       -344.9049210407176247
  Basis Set: 6-31G*
  Basis Set:
  Basis Set: 6-31G*
  Basis Set:
  @DF-RHF Final Energy:  -344.90483481914151
    Total Energy =                       -344.9048348191413425
  Basis Set: 6-31G*
  Basis Set:
  Basis Set: 6-31G*
  Basis Set:
  @DF-RHF Final Energy:  -344.90495070359776
    Total Energy =                       -344.9049507035981605
  Basis Set: 6-31G*
  Basis Set:
  Charge       = 0
  Multiplicity = 1
  Basis Set: 6-31G*
  Basis Set:

    Orbital Energies (a.u.)
    -----------------------

    Doubly Occupied:

       1A    -20.604249     2A    -20.546333     3A    -11.373386
       4A    -11.281269     5A    -11.235825     6A    -11.221148
       7A    -11.214674     8A     -1.470131     9A     -1.363572
      10A     -1.079360    11A     -1.001785    12A     -0.939767
      13A     -0.828011    14A     -0.767561    15A     -0.701907
      16A     -0.682756    17A     -0.672741    18A     -0.633453
      19A     -0.596973    20A     -0.574162    21A     -0.569074
      22A     -0.528661    23A     -0.522755    24A     -0.497298
      25A     -0.487128    26A     -0.474853    27A     -0.456918
      28A     -0.439487

  @DF-RHF Final Energy:  -344.90495086531035

   => Energetics <=

    Nuclear Repulsion Energy =            312.4016609329468679
    One-Electron Energy =               -1089.0827509222544904
    Two-Electron Energy =                 431.7761391239977797
    DFT Exchange-Correlation Energy =       0.0000000000000000
    Empirical Dispersion Energy =           0.0000000000000000
    PCM Polarization Energy =               0.0000000000000000
    EFP Energy =                            0.0000000000000000
    Total Energy =                       -344.9049508653097860
    Molecular point group: c1
  Basis Set: 6-31G*
  Basis Set:

  -Total Gradient:
     Atom            X                  Y                   Z
    ------   -----------------  -----------------  -----------------
       1       -0.000031629184    -0.000006804998     0.000000967140
       2       -0.000000299074     0.000038215568    -0.000023440563
       3        0.002756802771     0.003443635043    -0.001684623454
       4       -0.000005456714    -0.000032274472     0.000006762575
       5       -0.002005181864    -0.002483172919    -0.003342893648
       6       -0.001953855702    -0.002451383712     0.001934676012
       7       -0.000000675198    -0.000004592154     0.000005061482
       8        0.000007540982    -0.000009264491    -0.000009787726
       9        0.001230287954     0.001482154332     0.003101115761
      10       -0.000001761635     0.000005970395     0.000008116974
      11       -0.000009103967     0.000009139082    -0.000004426673
      12        0.000008448075     0.000003634503     0.000012962657
      13        0.000015491110     0.000000921090    -0.000004976403
      14       -0.000004323757     0.000007431080     0.000001211175
      15       -0.000000832162    -0.000000425075    -0.000000508063
      16       -0.000006438840    -0.000002940686    -0.000000261378
      17        0.000000987197    -0.000000242585     0.000000044132

  **** Optimization is complete! (in 6 steps) ****
    Final optimized geometry and variables:
    Molecular point group: c1

    Geometry (in Angstrom), charge = 0, multiplicity = 1:

    O            0.753178215077     1.295564026259     0.094643028597
    C            0.569851784655     0.121152626603     0.082706724852
    C           -0.775670389097    -0.560735765122     0.053233122445
    O            1.555061466575    -0.767441922492     0.097463139379
    C           -1.967067804678     0.399590930518     0.064153251361
    H           -0.803133763138    -1.220057153334    -0.810148083888
    H           -0.811204891267    -1.230429998987     0.908416988487
    C           -3.233403563700    -0.230835333831    -0.510464316829
    H           -1.706199034846     1.305635066023    -0.469093839334
    H           -2.152331656262     0.715426137295     1.086974934486
    H           -3.099752373497    -0.499747515070    -1.554470255101
    H           -4.070335324026     0.457103913249    -0.450424607899
    H           -3.508029848249    -1.132379530867     0.030344821882
    C            2.877144725998    -0.260928951535     0.126348369242
    H            3.071159293132     0.345018342835    -0.746951810753
    H            3.523688063576    -1.124552251409     0.133439699868
    H            3.036799908576     0.333835422668     1.014176394538

  Mulliken Charges: (a.u.)
   Center  Symbol    Alpha    Beta     Spin     Total
       1     O     4.28536  4.28536  0.00000 -0.57072
       2     C     2.60810  2.60810  0.00000  0.78380
       3     C     3.20824  3.20824  0.00000 -0.41648
       4     O     4.30609  4.30609  0.00000 -0.61217
       5     C     3.15539  3.15539  0.00000 -0.31077
       6     H     0.40015  0.40015  0.00000  0.19970
       7     H     0.39963  0.39963  0.00000  0.20074
       8     C     3.24303  3.24303  0.00000 -0.48606
       9     H     0.40169  0.40169  0.00000  0.19663
      10     H     0.41614  0.41614  0.00000  0.16773
      11     H     0.42039  0.42039  0.00000  0.15921
      12     H     0.41555  0.41555  0.00000  0.16890
      13     H     0.42162  0.42162  0.00000  0.15675
      14     C     3.09235  3.09235  0.00000 -0.18471
      15     H     0.40898  0.40898  0.00000  0.18203
      16     H     0.40835  0.40835  0.00000  0.18331
      17     H     0.40894  0.40894  0.00000  0.18211

   Total alpha = 28.00000, Total beta = 28.00000, Total charge =  0.00000
