  ==> Input File <==

--------------------------------------------------------------------------
set {
	reference rhf
	basis cc-pvtz
}

set_num_threads( 4 )
memory 2 gb

molecule MOL {
0 1

H	 1.376203	 -3.855816	 3.995905
C	 1.355360	 -3.417302	 3.005259
C	 0.137588	 -2.516871	 2.829453
H	 2.276729	 -2.860172	 2.872128
H	 1.353858	 -4.228923	 2.285339
C	 0.068228	 -1.879724	 1.449525
H	 0.145115	 -1.729686	 3.575139
H	 -0.766323	 -3.096585	 3.001077
N	 -1.084175	 -1.013971	 1.322345
H	 0.958919	 -1.280357	 1.286436
H	 0.081090	 -2.664372	 0.687130
C	 -1.215959	 -0.382435	 0.027143
H	 -1.915196	 -1.525842	 1.533795
C	 -2.451944	 0.502410	 -0.038737
H	 -0.331522	 0.224230	 -0.142874
H	 -1.249555	 -1.112901	 -0.786716
C	 -3.752217	 -0.292550	 0.005776
H	 -2.407325	 1.093801	 -0.946480
H	 -2.431979	 1.206234	 0.790023
H	 -3.817783	 -0.982946	 -0.828547
H	 -4.612613	 0.364348	 -0.042306
H	 -3.830160	 -0.871666	 0.919868

	symmetry c1
}
set optking {
	frozen_dihedral = ("
		15 12 14 18
	")
}

ee = optimize('scf')
oeprop('DIPOLE', 'QUADRUPOLE', 'MULLIKEN_CHARGES')
f=open( 'psi4out.xyz', 'w' )
f.write( "22  " )
f.write( str(ee) + "\n" )
f.write( MOL.save_string_xyz() )
f.close()
--------------------------------------------------------------------------

    Molecular point group: c1
  Charge       = 0
  Multiplicity = 1
  Basis Set: CC-PVTZ
  Basis Set:
  @DF-RHF Final Energy:  -290.48840252961571
    Total Energy =                       -290.4884025296159962
    Molecular point group: c1
  Basis Set: CC-PVTZ
  Basis Set:
  Basis Set: CC-PVTZ
  Basis Set:
  @DF-RHF Final Energy:  -290.48873035533899
    Total Energy =                       -290.4887303553388165
  Basis Set: CC-PVTZ
  Basis Set:
  Basis Set: CC-PVTZ
  Basis Set:
  @DF-RHF Final Energy:  -290.48882713325071
    Total Energy =                       -290.4888271332505383
  Basis Set: CC-PVTZ
  Basis Set:
  Basis Set: CC-PVTZ
  Basis Set:
  @DF-RHF Final Energy:  -290.48883089517045
    Total Energy =                       -290.4888308951703948
  Basis Set: CC-PVTZ
  Basis Set:
  Charge       = 0
  Multiplicity = 1
  Basis Set: CC-PVTZ
  Basis Set:

    Orbital Energies (a.u.)
    -----------------------

    Doubly Occupied:

       1A    -15.528011     2A    -11.236375     3A    -11.236247
       4A    -11.211893     5A    -11.211629     6A    -11.208527
       7A    -11.207602     8A     -1.207552     9A     -1.059924
      10A     -1.025001    11A     -0.929470    12A     -0.879586
      13A     -0.806122    14A     -0.789805    15A     -0.669104
      16A     -0.635944    17A     -0.623096    18A     -0.588280
      19A     -0.574994    20A     -0.572790    21A     -0.546848
      22A     -0.528906    23A     -0.506941    24A     -0.487106
      25A     -0.480146    26A     -0.472272    27A     -0.467402
      28A     -0.452297    29A     -0.361227

  @DF-RHF Final Energy:  -290.48883128629637

   => Energetics <=

    Nuclear Repulsion Energy =            317.4646722812832991
    One-Electron Energy =               -1020.8968143179621393
    Two-Electron Energy =                 412.9433107503828069
    DFT Exchange-Correlation Energy =       0.0000000000000000
    Empirical Dispersion Energy =           0.0000000000000000
    PCM Polarization Energy =               0.0000000000000000
    EFP Energy =                            0.0000000000000000
    Total Energy =                       -290.4888312862960902
    Molecular point group: c1
  Basis Set: CC-PVTZ
  Basis Set:

  -Total Gradient:
     Atom            X                  Y                   Z
    ------   -----------------  -----------------  -----------------
       1       -0.000002648217     0.000003069389    -0.000000756335
       2       -0.000001605386     0.000006787093    -0.000004910813
       3        0.000002893740    -0.000005385994     0.000004269761
       4        0.000003725158    -0.000000482158    -0.000000092387
       5       -0.000000704734    -0.000000052498    -0.000000213908
       6       -0.000019584097    -0.000004722958     0.000012872181
       7       -0.000000671612    -0.000000659616     0.000002325637
       8       -0.000002474083     0.000001693756    -0.000000520423
       9        0.000036007715    -0.000010653595    -0.000018538034
      10       -0.000004095126     0.000005088849    -0.000003565856
      11       -0.000001767484    -0.000001794679    -0.000004281038
      12        0.000186331485     0.000344856182     0.001211112931
      13       -0.000013233370     0.000004683887     0.000001740951
      14       -0.000571955973    -0.000838389951    -0.000734185196
      15       -0.000065945204    -0.000156721479    -0.000893063154
      16        0.000012474275    -0.000010159041    -0.000008584833
      17        0.000002546887     0.000009138317    -0.000021465772
      18        0.000440592004     0.000641410245     0.000442924215
      19       -0.000000800742     0.000014756619     0.000005756964
      20       -0.000005002703    -0.000003888749     0.000005016536
      21       -0.000001510708     0.000004073869     0.000003955982
      22        0.000007428176    -0.000002647490     0.000000202591

  **** Optimization is complete! (in 5 steps) ****
    Final optimized geometry and variables:
    Molecular point group: c1

    Geometry (in Angstrom), charge = 0, multiplicity = 1:

    H            2.417253960750    -2.547148838494     2.765933669417
    C            2.394401643915    -2.095587528024     1.781197378579
    C            1.148103410737    -1.236100591954     1.600756430039
    H            3.297211933272    -1.504575354950     1.668655719292
    H            2.431161229391    -2.896403491056     1.050202503453
    C            1.075850292298    -0.581211683010     0.229313935973
    H            1.117429801839    -0.460340877759     2.357740029353
    H            0.263033055758    -1.849915068529     1.750780030898
    N           -0.103402656241     0.247908969980     0.099176264941
    H            1.948358681061     0.049239949681     0.086872774888
    H            1.124261887705    -1.353893279198    -0.543779156779
    C           -0.236352872790     0.888202602985    -1.192478021149
    H           -0.914689896270    -0.298204650127     0.295700424553
    C           -1.453643403222     1.801927287816    -1.269739997597
    H            0.655687532983     1.481036006003    -1.364355114682
    H           -0.279962462205     0.160756339976    -2.009465023824
    C           -2.794435390836     1.072931768930    -1.241145519965
    H           -1.383061446505     2.381477210270    -2.185151259704
    H           -1.405650938890     2.509244418902    -0.448627168105
    H           -2.861737458827     0.343868513189    -2.042430430592
    H           -3.614694651255     1.771010432762    -1.360865600167
    H           -2.952494819980     0.553411727805    -0.302632318328

  Mulliken Charges: (a.u.)
   Center  Symbol    Alpha    Beta     Spin     Total
       1     H     0.44770  0.44770  0.00000  0.10459
       2     C     3.15334  3.15334  0.00000 -0.30668
       3     C     3.08080  3.08080  0.00000 -0.16160
       4     H     0.45464  0.45464  0.00000  0.09073
       5     H     0.45608  0.45608  0.00000  0.08783
       6     C     3.02196  3.02196  0.00000 -0.04393
       7     H     0.44916  0.44916  0.00000  0.10168
       8     H     0.45986  0.45986  0.00000  0.08028
       9     N     3.63878  3.63878  0.00000 -0.27757
      10     H     0.45924  0.45924  0.00000  0.08152
      11     H     0.47483  0.47483  0.00000  0.05035
      12     C     3.03521  3.03521  0.00000 -0.07043
      13     H     0.44308  0.44308  0.00000  0.11385
      14     C     3.08331  3.08331  0.00000 -0.16662
      15     H     0.45406  0.45406  0.00000  0.09187
      16     H     0.47123  0.47123  0.00000  0.05754
      17     C     3.15433  3.15433  0.00000 -0.30866
      18     H     0.45397  0.45397  0.00000  0.09206
      19     H     0.45141  0.45141  0.00000  0.09717
      20     H     0.45442  0.45442  0.00000  0.09117
      21     H     0.44584  0.44584  0.00000  0.10832
      22     H     0.45673  0.45673  0.00000  0.08654

   Total alpha = 29.00000, Total beta = 29.00000, Total charge = -0.00000
