                              Psi4 1.0.54 Driver

  ==> Input File <==

--------------------------------------------------------------------------
set {
	reference rhf
	basis cc-pvtz
}

set_num_threads( 4 )
memory 2 gb

molecule MOL {
0 1

O	 1.216069	 1.304886	 0.000821
C	 1.121787	 0.124983	 0.000110
C	 -0.170912	 -0.649867	 -0.000147
O	 2.167739	 -0.685178	 -0.000678
C	 -1.413045	 0.229353	 0.001137
H	 -0.152877	 -1.303435	 -0.866175
H	 -0.152278	 -1.305116	 0.864586
C	 -2.568196	 -0.397706	 0.776207
H	 -1.717819	 0.420149	 -1.021727
H	 -1.167256	 1.195942	 0.426388
C	 -3.819057	 0.474190	 0.781998
H	 -2.807678	 -1.367331	 0.347585
H	 -2.256806	 -0.586707	 1.800195
H	 -4.175375	 0.652699	 -0.226841
H	 -4.621738	 0.004598	 1.338651
H	 -3.620574	 1.438918	 1.236406
C	 3.449556	 -0.089977	 -0.000570
H	 3.585694	 0.522473	 -0.879546
H	 4.155805	 -0.904274	 -0.001389
H	 3.586173	 0.521118	 0.879272

	symmetry c1
}
set optking {
	frozen_dihedral = ("
		9 5 3 6
	")
}

ee,wfn = optimize('scf', return_wfn=True)
oeprop( wfn, 'DIPOLE', 'QUADRUPOLE', 'MULLIKEN_CHARGES')
f=open( 'psi4out.xyz', 'w' )
f.write( "20  " )
f.write( str(ee) + "\n" )
f.write( MOL.save_string_xyz() )
f.close()
--------------------------------------------------------------------------

    Molecular point group: c1
  Charge       = 0
  Multiplicity = 1
  Basis Set: CC-PVTZ
  Basis Set:
  @DF-RHF Final Energy:  -384.08034476680291
    Total Energy =                       -384.0803447668030230
    Molecular point group: c1
  Basis Set: CC-PVTZ
  Basis Set:
  Basis Set: CC-PVTZ
  Basis Set:
  @DF-RHF Final Energy:  -384.08060024479886
    Total Energy =                       -384.0806002447985747
  Basis Set: CC-PVTZ
  Basis Set:
  Basis Set: CC-PVTZ
  Basis Set:
  @DF-RHF Final Energy:  -384.08057962160149
    Total Energy =                       -384.0805796216016006
  Basis Set: CC-PVTZ
  Basis Set:
  Basis Set: CC-PVTZ
  Basis Set:
  @DF-RHF Final Energy:  -384.08063085608984
    Total Energy =                       -384.0806308560896696
  Basis Set: CC-PVTZ
  Basis Set:
  Basis Set: CC-PVTZ
  Basis Set:
  @DF-RHF Final Energy:  -384.08066615367136
    Total Energy =                       -384.0806661536715865
  Basis Set: CC-PVTZ
  Basis Set:
  Charge       = 0
  Multiplicity = 1
  Basis Set: CC-PVTZ
  Basis Set:

    Orbital Energies (a.u.)
    -----------------------

    Doubly Occupied:

       1A    -20.596399     2A    -20.534579     3A    -11.364963
       4A    -11.278605     5A    -11.234182     6A    -11.217986
       7A    -11.216503     8A    -11.208306     9A     -1.472502
      10A     -1.366037    11A     -1.088558    12A     -1.025356
      13A     -0.969315    14A     -0.886634    15A     -0.804477
      16A     -0.769183    17A     -0.700214    18A     -0.685730
      19A     -0.676169    20A     -0.643860    21A     -0.600320
      22A     -0.593321    23A     -0.580016    24A     -0.544907
      25A     -0.533274    26A     -0.523232    27A     -0.504435
      28A     -0.478909    29A     -0.471655    30A     -0.468999
      31A     -0.460213    32A     -0.440621

  @DF-RHF Final Energy:  -384.08066637005840

   => Energetics <=

    Nuclear Repulsion Energy =            381.8763223720708879
    One-Electron Energy =               -1280.0350587655348136
    Two-Electron Energy =                 514.0780700234053029
    DFT Exchange-Correlation Energy =       0.0000000000000000
    Empirical Dispersion Energy =           0.0000000000000000
    PCM Polarization Energy =               0.0000000000000000
    EFP Energy =                            0.0000000000000000
    Total Energy =                       -384.0806663700585659
    Molecular point group: c1
  Basis Set: CC-PVTZ
  Basis Set:

  -Total Gradient:
     Atom            X                  Y                   Z
    ------   -----------------  -----------------  -----------------
       1       -0.000012177133     0.000018031448     0.000007332634
       2        0.000024003831    -0.000053468368    -0.000046204665
       3       -0.002692737802    -0.003825693463     0.002381830626
       4        0.000009020671    -0.000005424338     0.000023875521
       5        0.002978916784     0.004200638242    -0.000508408126
       6        0.001792509562     0.002521454493    -0.001841797177
       7        0.000006058302    -0.000014417651    -0.000014571475
       8       -0.000007328861    -0.000000841036    -0.000086470189
       9       -0.002070222964    -0.002888223667     0.000081710928
      10       -0.000010184375     0.000037251413    -0.000017506399
      11       -0.000027437319     0.000007011815     0.000037124415
      12       -0.000014219216    -0.000030875559    -0.000012016571
      13        0.000025941193     0.000005153784    -0.000007604144
      14        0.000000096794    -0.000008918787    -0.000011501847
      15       -0.000016059881     0.000007875925     0.000012630152
      16       -0.000001739685     0.000023529601     0.000006661050
      17        0.000016493643     0.000010610985    -0.000014304611
      18        0.000000794618    -0.000003626272     0.000004320322
      19       -0.000002121046    -0.000003835534    -0.000000364397
      20        0.000000392895     0.000003766973     0.000005263952

  **** Optimization is complete! (in 6 steps) ****
    Final optimized geometry and variables:
    Molecular point group: c1

    Geometry (in Angstrom), charge = 0, multiplicity = 1:

    O            1.213606257990     1.265124195637    -0.180675453589
    C            1.100209100046     0.086988481589    -0.181246298978
    C           -0.201312536769    -0.678205029492    -0.149873091408
    O            2.134310058635    -0.738106844537    -0.211462289878
    C           -1.447325739604     0.207414211288    -0.146125880137
    H           -0.179766736906    -1.327677633064    -1.017704014089
    H           -0.164291496384    -1.324052008784     0.720185354780
    C           -2.622306195747    -0.445873226112     0.580287741637
    H           -1.749235537578     0.404302508565    -1.169423280077
    H           -1.216882211711     1.161058300230     0.308314624837
    C           -3.887865539145     0.403291606441     0.541736403608
    H           -2.827666405458    -1.418610981229     0.140435271972
    H           -2.344754852920    -0.631966122785     1.614349208431
    H           -4.214398900193     0.572845863618    -0.478836269161
    H           -4.700308442801    -0.078774559547     1.073062387216
    H           -3.721078034088     1.372637362621     0.999144892698
    C            3.424288236723    -0.161787427070    -0.242788474174
    H            3.546780445725     0.451292376955    -1.123310273234
    H            4.118159930526    -0.986406069429    -0.264046482814
    H            3.592719172163     0.444459052107     0.634908303796

  Mulliken Charges: (a.u.)
   Center  Symbol    Alpha    Beta     Spin     Total
       1     O     4.19597  4.19597  0.00000 -0.39193
       2     C     2.80303  2.80303  0.00000  0.39394
       3     C     3.10465  3.10465  0.00000 -0.20930
       4     O     4.14742  4.14742  0.00000 -0.29484
       5     C     3.08738  3.08738  0.00000 -0.17475
       6     H     0.43747  0.43747  0.00000  0.12506
       7     H     0.43959  0.43959  0.00000  0.12082
       8     C     3.08688  3.08688  0.00000 -0.17377
       9     H     0.45321  0.45321  0.00000  0.09358
      10     H     0.43748  0.43748  0.00000  0.12504
      11     C     3.14946  3.14946  0.00000 -0.29892
      12     H     0.45486  0.45486  0.00000  0.09028
      13     H     0.45497  0.45497  0.00000  0.09006
      14     H     0.45474  0.45474  0.00000  0.09053
      15     H     0.44843  0.44843  0.00000  0.10315
      16     H     0.45314  0.45314  0.00000  0.09372
      17     C     3.03703  3.03703  0.00000 -0.07406
      18     H     0.45439  0.45439  0.00000  0.09121
      19     H     0.44549  0.44549  0.00000  0.10902
      20     H     0.45442  0.45442  0.00000  0.09116

   Total alpha = 32.00000, Total beta = 32.00000, Total charge = -0.00000

*** Psi4 exiting successfully. Buy a developer a beer!
