                              Psi4 1.0.54 Driver

  ==> Input File <==

--------------------------------------------------------------------------
set {
	reference rhf
	basis cc-pvtz
}

set_num_threads( 4 )
memory 2 gb

molecule MOL {
0 1

H	 -4.170697	 -2.168544	 0.312478
C	 -3.408183	 -1.438737	 0.492096
C	 -2.200772	 -1.638981	 0.023689
H	 -3.655436	 -0.558280	 1.051972
O	 -1.189946	 -0.765863	 0.237511
H	 -1.944201	 -2.513616	 -0.545795
C	 0.026572	 -0.995256	 -0.379403
C	 1.057223	 0.049888	 -0.004615
H	 -0.054361	 -1.010670	 -1.459674
H	 0.397526	 -1.952058	 -0.044198
F	 2.203233	 -0.234060	 -0.590375
F	 0.698147	 1.254887	 -0.392621
F	 1.266440	 0.094219	 1.288722

	symmetry c1
}
set optking {
	frozen_dihedral = ("
		3 5 7 9
	")
}

ee,wfn = optimize('scf', return_wfn=True)
oeprop( wfn, 'DIPOLE', 'QUADRUPOLE', 'MULLIKEN_CHARGES')
f=open( 'psi4out.xyz', 'w' )
f.write( "13  " )
f.write( str(ee) + "\n" )
f.write( MOL.save_string_xyz() )
f.close()
--------------------------------------------------------------------------

    Molecular point group: c1
  Charge       = 0
  Multiplicity = 1
  Basis Set: CC-PVTZ
  Basis Set:
  @DF-RHF Final Energy:  -527.74025403789233
    Total Energy =                       -527.7402540378923277
    Molecular point group: c1
  Basis Set: CC-PVTZ
  Basis Set:
  Basis Set: CC-PVTZ
  Basis Set:
  @DF-RHF Final Energy:  -527.74151668868103
    Total Energy =                       -527.7415166886809175
  Basis Set: CC-PVTZ
  Basis Set:
  Basis Set: CC-PVTZ
  Basis Set:
  @DF-RHF Final Energy:  -527.74174560252072
    Total Energy =                       -527.7417456025207230
  Basis Set: CC-PVTZ
  Basis Set:
  Basis Set: CC-PVTZ
  Basis Set:
  @DF-RHF Final Energy:  -527.74175418783057
    Total Energy =                       -527.7417541878305656
  Basis Set: CC-PVTZ
  Basis Set:
  Basis Set: CC-PVTZ
  Basis Set:
  @DF-RHF Final Energy:  -527.74175636012956
    Total Energy =                       -527.7417563601295569
  Basis Set: CC-PVTZ
  Basis Set:
  Charge       = 0
  Multiplicity = 1
  Basis Set: CC-PVTZ
  Basis Set:

    Orbital Energies (a.u.)
    -----------------------

    Doubly Occupied:

       1A    -26.340001     2A    -26.336531     3A    -26.336500
       4A    -20.603406     5A    -11.498919     6A    -11.319878
       7A    -11.301286     8A    -11.217947     9A     -1.748852
      10A     -1.644819    11A     -1.643354    12A     -1.446333
      13A     -1.091586    14A     -1.019881    15A     -0.929791
      16A     -0.845193    17A     -0.838535    18A     -0.813499
      19A     -0.801893    20A     -0.726310    21A     -0.723120
      22A     -0.704610    23A     -0.688152    24A     -0.665212
      25A     -0.658115    26A     -0.651538    27A     -0.648337
      28A     -0.578436    29A     -0.560780    30A     -0.534261
      31A     -0.520232    32A     -0.359367

  @DF-RHF Final Energy:  -527.74175689167805

   => Energetics <=

    Nuclear Repulsion Energy =            407.7416551146056918
    One-Electron Energy =               -1539.3734779151955081
    Two-Electron Energy =                 603.8900659089122200
    DFT Exchange-Correlation Energy =       0.0000000000000000
    Empirical Dispersion Energy =           0.0000000000000000
    PCM Polarization Energy =               0.0000000000000000
    EFP Energy =                            0.0000000000000000
    Total Energy =                       -527.7417568916775963
    Molecular point group: c1
  Basis Set: CC-PVTZ
  Basis Set:

  -Total Gradient:
     Atom            X                  Y                   Z
    ------   -----------------  -----------------  -----------------
       1        0.000004185312    -0.000006316680     0.000005769217
       2        0.000021219084    -0.000004238793     0.000019240442
       3       -0.000067852135     0.000131657423    -0.000180726843
       4       -0.000006281189     0.000001344335     0.000008220144
       5        0.000006847993    -0.000231066998     0.000217704264
       6       -0.000000611677     0.000004362564    -0.000006171745
       7        0.000143748573     0.000308243748    -0.000063048718
       8       -0.000012651679     0.000104005921    -0.000023032752
       9       -0.000053818873    -0.000232508461     0.000000395932
      10       -0.000039059476     0.000025695988     0.000003393891
      11        0.000004000841    -0.000015169579     0.000004282827
      12        0.000003627314    -0.000071431017     0.000019633979
      13       -0.000003354083    -0.000014578455    -0.000005660641

  **** Optimization is complete! (in 6 steps) ****
    Final optimized geometry and variables:
    Molecular point group: c1

    Geometry (in Angstrom), charge = 0, multiplicity = 1:

    H           -4.126879327614    -1.735640999496     0.174665496285
    C           -3.356262485329    -1.020858775326     0.378664961705
    C           -2.140050181223    -1.239068988721    -0.059421599170
    H           -3.600477102691    -0.142383659045     0.943071075480
    O           -1.120637984005    -0.386832025267     0.177909417071
    H           -1.887303666708    -2.118240485322    -0.625637739829
    C            0.080020987842    -0.663400897266    -0.453545946155
    C            1.068530732691     0.417737908440    -0.086569662020
    H           -0.020563724729    -0.665827635111    -1.532984751543
    H            0.495944754711    -1.612029663169    -0.132823138790
    F            2.220394569633     0.167400247034    -0.677739605173
    F            0.668706980339     1.604359780745    -0.476106048207
    F            1.285377405420     0.469357365099     1.205834990030

  Mulliken Charges: (a.u.)
   Center  Symbol    Alpha    Beta     Spin     Total
       1     H     0.42515  0.42515  0.00000  0.14970
       2     C     3.19104  3.19104  0.00000 -0.38208
       3     C     2.96795  2.96795  0.00000  0.06411
       4     H     0.42381  0.42381  0.00000  0.15238
       5     O     4.13719  4.13719  0.00000 -0.27438
       6     H     0.43573  0.43573  0.00000  0.12854
       7     C     3.00303  3.00303  0.00000 -0.00606
       8     C     2.67221  2.67221  0.00000  0.65558
       9     H     0.45880  0.45880  0.00000  0.08240
      10     H     0.45852  0.45852  0.00000  0.08296
      11     F     4.61259  4.61259  0.00000 -0.22519
      12     F     4.60699  4.60699  0.00000 -0.21398
      13     F     4.60699  4.60699  0.00000 -0.21399

   Total alpha = 32.00000, Total beta = 32.00000, Total charge = -0.00000

*** Psi4 exiting successfully. Buy a developer a beer!
