  ==> Input File <==

--------------------------------------------------------------------------
set {
	reference rhf
	basis 6-31G*
}

set_num_threads( 4 )
memory 2 gb

molecule MOL {
0 1

H	 -2.801791	 1.466111	 -1.819733
C	 -2.046966	 1.986808	 -2.422009
C	 -1.100694	 2.862025	 -1.640231
O	 -2.018359	 1.840241	 -3.600758
C	 -0.437599	 2.116788	 -0.473534
H	 -0.364218	 3.266521	 -2.324844
H	 -1.684521	 3.693940	 -1.248162
C	 0.518691	 1.008695	 -0.921799
H	 0.103997	 2.837734	 0.131607
H	 -1.207991	 1.697941	 0.172082
C	 1.180775	 0.282413	 0.250794
H	 1.285794	 1.438349	 -1.562733
H	 -0.015687	 0.285918	 -1.535454
C	 2.148627	 -0.814315	 -0.201312
H	 1.704046	 1.010383	 0.865594
H	 0.410886	 -0.156681	 0.883923
C	 3.580890	 -0.659131	 0.322722
H	 2.166869	 -0.852443	 -1.289387
H	 1.762857	 -1.776509	 0.128956
C	 4.324889	 0.564933	 -0.213704
H	 4.142010	 -1.551473	 0.056605
H	 3.564836	 -0.624694	 1.410140
H	 4.342616	 0.565491	 -1.300421
H	 3.866655	 1.493402	 0.110242
H	 5.353900	 0.572371	 0.132816

	symmetry c1
}
set optking {
	frozen_dihedral = ("
		8 11 14 18
	")
}

ee = optimize('scf')
oeprop('DIPOLE', 'QUADRUPOLE', 'MULLIKEN_CHARGES')
f=open( 'psi4out.xyz', 'w' )
f.write( "25  " )
f.write( str(ee) + "\n" )
f.write( MOL.save_string_xyz() )
f.close()
--------------------------------------------------------------------------

    Molecular point group: c1
  Charge       = 0
  Multiplicity = 1
  Basis Set: 6-31G*
  Basis Set:
  @DF-RHF Final Energy:  -387.11663294207273
    Total Energy =                       -387.1166329420732382
    Molecular point group: c1
  Basis Set: 6-31G*
  Basis Set:
  Basis Set: 6-31G*
  Basis Set:
  @DF-RHF Final Energy:  -387.11668271194401
    Total Energy =                       -387.1166827119440086
  Basis Set: 6-31G*
  Basis Set:
  Basis Set: 6-31G*
  Basis Set:
  @DF-RHF Final Energy:  -387.11688225747088
    Total Energy =                       -387.1168822574702517
  Basis Set: 6-31G*
  Basis Set:
  Basis Set: 6-31G*
  Basis Set:
  @DF-RHF Final Energy:  -387.11698079366539
    Total Energy =                       -387.1169807936653342
  Basis Set: 6-31G*
  Basis Set:
  @DF-RHF Final Energy:  -387.11700732222181
    Total Energy =                       -387.1170073222222072
  @DF-RHF Final Energy:  -387.11702138673894
    Total Energy =                       -387.1170213867389975
  @DF-RHF Final Energy:  -387.11702722108913
    Total Energy =                       -387.1170272210888470
  @DF-RHF Final Energy:  -387.11702478748350
    Total Energy =                       -387.1170247874839561
  Basis Set: 6-31G*
  Basis Set:
  @DF-RHF Final Energy:  -387.11703459214169
    Total Energy =                       -387.1170345921412945
  Basis Set: 6-31G*
  Basis Set:
  Basis Set: 6-31G*
  Basis Set:
  @DF-RHF Final Energy:  -387.11702535460574
    Total Energy =                       -387.1170253546050617
  Basis Set: 6-31G*
  Basis Set:
  Basis Set: 6-31G*
  Basis Set:
  @DF-RHF Final Energy:  -387.11703513206243
    Total Energy =                       -387.1170351320624832
  Basis Set: 6-31G*
  Basis Set:
  Charge       = 0
  Multiplicity = 1
  Basis Set: 6-31G*
  Basis Set:

    Orbital Energies (a.u.)
    -----------------------

    Doubly Occupied:

       1A    -20.561962     2A    -11.326130     3A    -11.235173
       4A    -11.234581     5A    -11.224069     6A    -11.219855
       7A    -11.218161     8A    -11.216623     9A    -11.210954
      10A     -1.401905    11A     -1.103063    12A     -1.068783
      13A     -1.012116    14A     -0.942532    15A     -0.875424
      16A     -0.820088    17A     -0.788128    18A     -0.782733
      19A     -0.664394    20A     -0.660570    21A     -0.630841
      22A     -0.624671    23A     -0.606987    24A     -0.592293
      25A     -0.570454    26A     -0.554432    27A     -0.533390
      28A     -0.521979    29A     -0.513258    30A     -0.495482
      31A     -0.487818    32A     -0.483937    33A     -0.463332
      34A     -0.454090    35A     -0.441020    36A     -0.409516

  @DF-RHF Final Energy:  -387.11703512474310

   => Energetics <=

    Nuclear Repulsion Energy =            443.5225717349840124
    One-Electron Energy =               -1403.3777221952691434
    Two-Electron Energy =                 572.7381153355421475
    DFT Exchange-Correlation Energy =       0.0000000000000000
    Empirical Dispersion Energy =           0.0000000000000000
    PCM Polarization Energy =               0.0000000000000000
    EFP Energy =                            0.0000000000000000
    Total Energy =                       -387.1170351247429835
    Molecular point group: c1
  Basis Set: 6-31G*
  Basis Set:

  -Total Gradient:
     Atom            X                  Y                   Z
    ------   -----------------  -----------------  -----------------
       1        0.000003650027    -0.000007065669     0.000000360674
       2       -0.000018640629     0.000020710736     0.000004137786
       3        0.000011513891    -0.000008521366    -0.000003478094
       4        0.000005966757    -0.000006930924     0.000000754487
       5       -0.000007005513    -0.000010179347     0.000002622680
       6        0.000001260227    -0.000003653267    -0.000000736113
       7        0.000002916347     0.000000509099     0.000004725120
       8        0.000226291169     0.000218388087    -0.000007489643
       9       -0.000004665220     0.000006869626    -0.000002703272
      10        0.000001032324    -0.000002482398    -0.000000595675
      11       -0.000400528253    -0.000347471833    -0.000009072400
      12        0.000001989369     0.000000673805    -0.000000603502
      13        0.000004068366    -0.000000066773    -0.000003071537
      14        0.000471061804     0.000407353463     0.000001627670
      15        0.000005750448     0.000000100030     0.000006795589
      16        0.000005455591     0.000010905783     0.000005236185
      17        0.000006281421    -0.000000561330     0.000000751225
      18       -0.000315047065    -0.000279761992     0.000002955543
      19        0.000008495979    -0.000000962282    -0.000014029895
      20       -0.000000351938    -0.000010038341     0.000001419309
      21        0.000003691743     0.000000309717     0.000007198740
      22       -0.000001960717     0.000007370592    -0.000001939932
      23       -0.000010328168     0.000001913398     0.000003151888
      24       -0.000006162641     0.000005140278     0.000005765786
      25        0.000005264680    -0.000002549095    -0.000003782607

  **** Optimization is complete! (in 12 steps) ****
    Final optimized geometry and variables:
    Molecular point group: c1

    Geometry (in Angstrom), charge = 0, multiplicity = 1:

    H           -3.496705382591     0.440052859660    -0.844468901883
    C           -2.737097291545     0.974660586844    -1.428413193462
    C           -1.806634102447     1.843093074803    -0.620404970833
    O           -2.696067365037     0.851303560913    -2.609498746470
    C           -1.150414399780     1.082158047080     0.540217955542
    H           -1.065764898552     2.265270028471    -1.289500614953
    H           -2.401236403440     2.663405454766    -0.220384646729
    C           -0.176552630064    -0.006441850441     0.083700699134
    H           -0.625048985159     1.796931849896     1.167145735047
    H           -1.924408198551     0.642251152470     1.167065817552
    C            0.484653604222    -0.743766359266     1.250686858881
    H            0.591711319576     0.441326598232    -0.543291099946
    H           -0.695470806300    -0.726948027210    -0.546074994152
    C            1.469757463840    -1.850857711262     0.808625487642
    H            0.998312317458    -0.017838148095     1.876335960155
    H           -0.290754404350    -1.174967771307     1.878730664217
    C            2.896840007459    -1.684709405125     1.344072448098
    H            1.507135579640    -1.897089762766    -0.277674029653
    H            1.091801409217    -2.817127860775     1.129888244450
    C            3.644266078246    -0.487194979525     0.755560294258
    H            3.459634215202    -2.589083604001     1.126585744261
    H            2.866614529514    -1.598764998078     2.428343429719
    H            3.728886079538    -0.575369057831    -0.324012371397
    H            3.141584408649     0.450795809575     0.971103422789
    H            4.648987848128    -0.418290666424     1.161034087918

  Mulliken Charges: (a.u.)
   Center  Symbol    Alpha    Beta     Spin     Total
       1     H     0.43260  0.43260  0.00000  0.13480
       2     C     2.83080  2.83080  0.00000  0.33841
       3     C     3.20807  3.20807  0.00000 -0.41614
       4     O     4.23779  4.23779  0.00000 -0.47558
       5     C     3.16729  3.16729  0.00000 -0.33459
       6     H     0.39971  0.39971  0.00000  0.20058
       7     H     0.40664  0.40664  0.00000  0.18672
       8     C     3.15724  3.15724  0.00000 -0.31448
       9     H     0.41299  0.41299  0.00000  0.17401
      10     H     0.41961  0.41961  0.00000  0.16077
      11     C     3.15665  3.15665  0.00000 -0.31330
      12     H     0.41715  0.41715  0.00000  0.16570
      13     H     0.41785  0.41785  0.00000  0.16430
      14     C     3.15728  3.15728  0.00000 -0.31455
      15     H     0.42039  0.42039  0.00000  0.15922
      16     H     0.42034  0.42034  0.00000  0.15932
      17     C     3.15384  3.15384  0.00000 -0.30768
      18     H     0.41927  0.41927  0.00000  0.16147
      19     H     0.41844  0.41844  0.00000  0.16313
      20     C     3.24077  3.24077  0.00000 -0.48154
      21     H     0.42074  0.42074  0.00000  0.15852
      22     H     0.42306  0.42306  0.00000  0.15388
      23     H     0.42099  0.42099  0.00000  0.15803
      24     H     0.42194  0.42194  0.00000  0.15613
      25     H     0.41855  0.41855  0.00000  0.16290

   Total alpha = 36.00000, Total beta = 36.00000, Total charge =  0.00000
