                              Psi4 1.0.54 Driver

  ==> Input File <==

--------------------------------------------------------------------------
set {
	reference rhf
	basis cc-pvtz
}

set_num_threads( 4 )
memory 2 gb

molecule MOL {
0 1

H	 0.559871	 -3.346639	 -0.734483
O	 0.921754	 -2.606501	 -0.270875
C	 0.116995	 -1.562917	 -0.451782
C	 0.626018	 -0.337582	 0.258241
O	 -0.869001	 -1.635093	 -1.100198
C	 -0.267326	 0.883135	 0.076490
H	 0.741926	 -0.606795	 1.301289
H	 1.628560	 -0.149021	 -0.112955
C	 -1.726822	 0.642622	 0.463839
H	 -0.210803	 1.217591	 -0.953497
H	 0.129920	 1.693110	 0.675679
C	 -2.480891	 -0.340606	 -0.429852
H	 -2.243098	 1.597649	 0.438609
H	 -1.776542	 0.301208	 1.495542
C	 -3.955933	 -0.460128	 -0.060472
H	 -2.393755	 -0.020485	 -1.464726
H	 -2.024244	 -1.323637	 -0.374360
H	 -4.467673	 -1.160944	 -0.709827
H	 -4.458917	 0.497287	 -0.144505
H	 -4.076458	 -0.806900	 0.960497

	symmetry c1
}
set optking {
	frozen_dihedral = ("
		7 4 6 10
	")
}

ee,wfn = optimize('scf', return_wfn=True)
oeprop( wfn, 'DIPOLE', 'QUADRUPOLE', 'MULLIKEN_CHARGES')
f=open( 'psi4out.xyz', 'w' )
f.write( "20  " )
f.write( str(ee) + "\n" )
f.write( MOL.save_string_xyz() )
f.close()
--------------------------------------------------------------------------

    Molecular point group: c1
  Charge       = 0
  Multiplicity = 1
  Basis Set: CC-PVTZ
  Basis Set:
  @DF-RHF Final Energy:  -384.00877777615563
    Total Energy =                       -384.0087777761552843
    Molecular point group: c1
  Basis Set: CC-PVTZ
  Basis Set:
  Basis Set: CC-PVTZ
  Basis Set:
  @DF-RHF Final Energy:  -384.04940631613158
    Total Energy =                       -384.0494063161316944
  Basis Set: CC-PVTZ
  Basis Set:
  Basis Set: CC-PVTZ
  Basis Set:
  @DF-RHF Final Energy:  -384.06625874901238
    Total Energy =                       -384.0662587490119222
  Basis Set: CC-PVTZ
  Basis Set:
  Basis Set: CC-PVTZ
  Basis Set:
  @DF-RHF Final Energy:  -384.07670489946975
    Total Energy =                       -384.0767048994695188
  Basis Set: CC-PVTZ
  Basis Set:
  @DF-RHF Final Energy:  -384.08316857377866
    Total Energy =                       -384.0831685737787211
  @DF-RHF Final Energy:  -384.08507995267865
    Total Energy =                       -384.0850799526788251
  @DF-RHF Final Energy:  -384.08728863976836
    Total Energy =                       -384.0872886397678485
  @DF-RHF Final Energy:  -384.08874191803096
    Total Energy =                       -384.0887419180317011
  @DF-RHF Final Energy:  -384.08917814955242
    Total Energy =                       -384.0891781495527084
  @DF-RHF Final Energy:  -384.08945126148558
    Total Energy =                       -384.0894512614858058
  @DF-RHF Final Energy:  -384.08964139817454
    Total Energy =                       -384.0896413981743081
  @DF-RHF Final Energy:  -384.08978398942020
    Total Energy =                       -384.0897839894204253
  @DF-RHF Final Energy:  -384.08988235034025
    Total Energy =                       -384.0898823503403037
  @DF-RHF Final Energy:  -384.08997049603329
    Total Energy =                       -384.0899704960331746
  @DF-RHF Final Energy:  -384.09008066091900
    Total Energy =                       -384.0900806609188294
  @DF-RHF Final Energy:  -384.09021464327395
    Total Energy =                       -384.0902146432746349
  Basis Set: CC-PVTZ
  Basis Set:
  @DF-RHF Final Energy:  -384.09019084275792
    Total Energy =                       -384.0901908427581475
  Basis Set: CC-PVTZ
  Basis Set:
  Basis Set: CC-PVTZ
  Basis Set:
  @DF-RHF Final Energy:  -384.09022569517492
    Total Energy =                       -384.0902256951744675
  Basis Set: CC-PVTZ
  Basis Set:
  Basis Set: CC-PVTZ
  Basis Set:
  @DF-RHF Final Energy:  -384.09023019014245
    Total Energy =                       -384.0902301901428473
  Basis Set: CC-PVTZ
  Basis Set:
  Charge       = 0
  Multiplicity = 1
  Basis Set: CC-PVTZ
  Basis Set:

    Orbital Energies (a.u.)
    -----------------------

    Doubly Occupied:

       1A    -20.606861     2A    -20.536940     3A    -11.373646
       4A    -11.238285     5A    -11.227786     6A    -11.218276
       7A    -11.212752     8A    -11.206806     9A     -1.478402
      10A     -1.368229    11A     -1.094950    12A     -1.040025
      13A     -0.959986    14A     -0.874935    15A     -0.816774
      16A     -0.778731    17A     -0.705652    18A     -0.691513
      19A     -0.662903    20A     -0.626168    21A     -0.605876
      22A     -0.597795    23A     -0.575369    24A     -0.553179
      25A     -0.546327    26A     -0.514988    27A     -0.496386
      28A     -0.487780    29A     -0.466900    30A     -0.462616
      31A     -0.457083    32A     -0.440457

  @DF-RHF Final Energy:  -384.09023077398109

   => Energetics <=

    Nuclear Repulsion Energy =            392.2055272366863505
    One-Electron Energy =               -1300.7427689494479637
    Two-Electron Energy =                 524.4470109387807497
    DFT Exchange-Correlation Energy =       0.0000000000000000
    Empirical Dispersion Energy =           0.0000000000000000
    PCM Polarization Energy =               0.0000000000000000
    EFP Energy =                            0.0000000000000000
    Total Energy =                       -384.0902307739809203
    Molecular point group: c1
  Basis Set: CC-PVTZ
  Basis Set:

  -Total Gradient:
     Atom            X                  Y                   Z
    ------   -----------------  -----------------  -----------------
       1        0.000001789344     0.000014941643     0.000016046288
       2        0.000014903315     0.000127044501    -0.000084603399
       3       -0.000061773467    -0.000180046995     0.000090078398
       4       -0.004007538945    -0.003375125371    -0.000135375498
       5        0.000010091787     0.000036207137     0.000025059856
       6       -0.003480637091    -0.003290100609    -0.001329567357
       7        0.003911677376     0.003303895395     0.000286167029
       8       -0.000006234005    -0.000003363222    -0.000005499829
       9       -0.000054323698     0.000051773090     0.000048830853
      10        0.003616896604     0.003343193943     0.001130502151
      11        0.000011684256    -0.000012153894    -0.000001852742
      12        0.000016839182    -0.000040057937    -0.000023383605
      13        0.000005681324     0.000002561503     0.000005970288
      14       -0.000005907950     0.000004164441    -0.000000692188
      15        0.000023605650    -0.000010360018    -0.000023968820
      16       -0.000002795551     0.000012989421     0.000001678102
      17        0.000011641602     0.000013433913    -0.000009366518
      18        0.000002601223     0.000002804262     0.000005560641
      19       -0.000002143676    -0.000001483723     0.000003491719
      20       -0.000006057277    -0.000000317481     0.000000924628

  **** Optimization is complete! (in 20 steps) ****
    Final optimized geometry and variables:
    Molecular point group: c1

    Geometry (in Angstrom), charge = 0, multiplicity = 1:

    H            1.106170344554    -2.709969482714     0.020384978667
    O            1.226978621372    -1.939099882439     0.555065573899
    C            1.275809153278    -0.879892728007    -0.244736528000
    C            1.528342034792     0.408774314713     0.490519051287
    O            1.166496004628    -0.972614205418    -1.419229239792
    C            0.573453155207     1.560133441073     0.156079468886
    H            1.586892152627     0.246362836845     1.557667735467
    H            2.524641286962     0.707635142206     0.178200824026
    C           -0.892872446017     1.396383949121     0.561647254072
    H            0.671844900383     1.811287772837    -0.893644952826
    H            0.959792927164     2.422748886653     0.690523145225
    C           -1.713478438702     0.366152235911    -0.213036592414
    H           -1.367545895692     2.366426494359     0.443679507489
    H           -0.942747762633     1.167611478925     1.624061511572
    C           -3.195171488810     0.423008502938     0.145883688963
    H           -1.589438345922     0.530324816748    -1.278254337315
    H           -1.347728840976    -0.634723068411    -0.015636470945
    H           -3.759030051446    -0.322187013379    -0.403056142595
    H           -3.617758431513     1.394906723640    -0.086250903071
    H           -3.350094770350     0.240969415485     1.204468176964

  Mulliken Charges: (a.u.)
   Center  Symbol    Alpha    Beta     Spin     Total
       1     H     0.38002  0.38002  0.00000  0.23995
       2     O     4.16396  4.16396  0.00000 -0.32791
       3     C     2.79564  2.79564  0.00000  0.40872
       4     C     3.10420  3.10420  0.00000 -0.20841
       5     O     4.20230  4.20230  0.00000 -0.40461
       6     C     3.10164  3.10164  0.00000 -0.20328
       7     H     0.43552  0.43552  0.00000  0.12896
       8     H     0.43638  0.43638  0.00000  0.12723
       9     C     3.09707  3.09707  0.00000 -0.19415
      10     H     0.44209  0.44209  0.00000  0.11582
      11     H     0.44382  0.44382  0.00000  0.11237
      12     C     3.08880  3.08880  0.00000 -0.17761
      13     H     0.44862  0.44862  0.00000  0.10276
      14     H     0.45326  0.45326  0.00000  0.09347
      15     C     3.15126  3.15126  0.00000 -0.30252
      16     H     0.44411  0.44411  0.00000  0.11179
      17     H     0.45334  0.45334  0.00000  0.09332
      18     H     0.44732  0.44732  0.00000  0.10536
      19     H     0.45464  0.45464  0.00000  0.09072
      20     H     0.45599  0.45599  0.00000  0.08802

   Total alpha = 32.00000, Total beta = 32.00000, Total charge =  0.00000

*** Psi4 exiting successfully. Buy a developer a beer!
