  ==> Input File <==

--------------------------------------------------------------------------
set {
	reference rhf
	basis cc-pvtz
}

set_num_threads( 4 )
memory 2 gb

molecule MOL {
0 1

H	 1.651322	 -0.822465	 0.000000
O	 0.729993	 -1.034364	 0.000000
C	 0.037305	 0.100061	 0.000000
C	 -1.018193	 0.114195	 1.064801
O	 0.255038	 0.974579	 -0.764596
H	 -1.697888	 -0.713906	 0.910750
H	 -1.554005	 1.048218	 1.029700
H	 -0.555055	 -0.016084	 2.034336

	symmetry c1
}
set optking {
	frozen_dihedral = ("
		4 3 2 1
	")
}

ee = optimize('scf')
oeprop('DIPOLE', 'QUADRUPOLE', 'MULLIKEN_CHARGES')
f=open( 'psi4out.xyz', 'w' )
f.write( "8  " )
f.write( str(ee) + "\n" )
f.write( MOL.save_string_xyz() )
f.close()
--------------------------------------------------------------------------

    Molecular point group: c1
  Charge       = 0
  Multiplicity = 1
  Basis Set: CC-PVTZ
  Basis Set:
  @DF-RHF Final Energy:  -227.89265610282015
    Total Energy =                       -227.8926561028201263
    Molecular point group: c1
  Basis Set: CC-PVTZ
  Basis Set:
  Basis Set: CC-PVTZ
  Basis Set:
  @DF-RHF Final Energy:  -227.89070596873745
    Total Energy =                       -227.8907059687373931
  Basis Set: CC-PVTZ
  Basis Set:
  Basis Set: CC-PVTZ
  Basis Set:
  @DF-RHF Final Energy:  -227.89340536659304
    Total Energy =                       -227.8934053665927593
  Basis Set: CC-PVTZ
  Basis Set:
  Basis Set: CC-PVTZ
  Basis Set:
  @DF-RHF Final Energy:  -227.89355796530651
    Total Energy =                       -227.8935579653065133
  Basis Set: CC-PVTZ
  Basis Set:
  @DF-RHF Final Energy:  -227.89361138759057
    Total Energy =                       -227.8936113875905107
  @DF-RHF Final Energy:  -227.89363569662399
    Total Energy =                       -227.8936356966240737
  @DF-RHF Final Energy:  -227.89363700048514
    Total Energy =                       -227.8936370004850573
  @DF-RHF Final Energy:  -227.89363881381462
    Total Energy =                       -227.8936388138146185
  @DF-RHF Final Energy:  -227.89363488856236
    Total Energy =                       -227.8936348885624170
  @DF-RHF Final Energy:  -227.89363797061526
    Total Energy =                       -227.8936379706151740
  @DF-RHF Final Energy:  -227.89363669952911
    Total Energy =                       -227.8936366995291678
  @DF-RHF Final Energy:  -227.89358851733815
    Total Energy =                       -227.8935885173382587
  @DF-RHF Final Energy:  -227.89363808737016
    Total Energy =                       -227.8936380873700500
  @DF-RHF Final Energy:  -227.89363815695410
    Total Energy =                       -227.8936381569541254
  @DF-RHF Final Energy:  -227.89363820964297
    Total Energy =                       -227.8936382096429725
  @DF-RHF Final Energy:  -227.89363825152557
    Total Energy =                       -227.8936382515254877
  @DF-RHF Final Energy:  -227.89363828731808
    Total Energy =                       -227.8936382873180833
  @DF-RHF Final Energy:  -227.89363831913644
    Total Energy =                       -227.8936383191364996
  @DF-RHF Final Energy:  -227.89363834837252
    Total Energy =                       -227.8936383483725479
  @DF-RHF Final Energy:  -227.89363837564787
    Total Energy =                       -227.8936383756477824
  @DF-RHF Final Energy:  -227.89363854782727
    Total Energy =                       -227.8936385478272939
  @DF-RHF Final Energy:  -227.89363865184762
    Total Energy =                       -227.8936386518476240
  @DF-RHF Final Energy:  -227.89363868610678
    Total Energy =                       -227.8936386861067263
  @DF-RHF Final Energy:  -227.89363872053136
    Total Energy =                       -227.8936387205313281
  @DF-RHF Final Energy:  -227.89363873768053
    Total Energy =                       -227.8936387376804191
  @DF-RHF Final Energy:  -227.89363875526044
    Total Energy =                       -227.8936387552604401
  @DF-RHF Final Energy:  -227.89363867251862
    Total Energy =                       -227.8936386725186480
  @DF-RHF Final Energy:  -227.89363858414316
    Total Energy =                       -227.8936385841431900
  @DF-RHF Final Energy:  -227.89363850273048
    Total Energy =                       -227.8936385027302833
  @DF-RHF Final Energy:  -227.89363836341477
    Total Energy =                       -227.8936383634146239
  @DF-RHF Final Energy:  -227.89363808397911
    Total Energy =                       -227.8936380839790559
  @DF-RHF Final Energy:  -227.89363766678440
    Total Energy =                       -227.8936376667844570
  @DF-RHF Final Energy:  -227.89363692474456
    Total Energy =                       -227.8936369247444986
  @DF-RHF Final Energy:  -227.89363598412223
    Total Energy =                       -227.8936359841221702
  @DF-RHF Final Energy:  -227.89363808465041
    Total Energy =                       -227.8936380846502061
  @DF-RHF Final Energy:  -227.89363558422843
    Total Energy =                       -227.8936355842284343
  Basis Set: CC-PVTZ
  Basis Set:
  @DF-RHF Final Energy:  -227.89363839578618
    Total Energy =                       -227.8936383957862120
  Basis Set: CC-PVTZ
  Basis Set:
  Basis Set: CC-PVTZ
  Basis Set:
  @DF-RHF Final Energy:  -227.89363854639717
    Total Energy =                       -227.8936385463970851
  Basis Set: CC-PVTZ
  Basis Set:
  Basis Set: CC-PVTZ
  Basis Set:
  @DF-RHF Final Energy:  -227.89363866028231
    Total Energy =                       -227.8936386602823916
  Basis Set: CC-PVTZ
  Basis Set:
  Charge       = 0
  Multiplicity = 1
  Basis Set: CC-PVTZ
  Basis Set:

    Orbital Energies (a.u.)
    -----------------------

    Doubly Occupied:

       1A    -20.596586     2A    -20.547632     3A    -11.379178
       4A    -11.239976     5A     -1.471985     6A     -1.372601
       7A     -1.026240     8A     -0.831519     9A     -0.708225
      10A     -0.681368    11A     -0.660880    12A     -0.584431
      13A     -0.581626    14A     -0.538894    15A     -0.492051
      16A     -0.452948

  @DF-RHF Final Energy:  -227.89363876392335

   => Energetics <=

    Nuclear Repulsion Energy =            122.4154554720983867
    One-Electron Energy =                -554.2859066597634410
    Two-Electron Energy =                 203.9768124237417055
    DFT Exchange-Correlation Energy =       0.0000000000000000
    Empirical Dispersion Energy =           0.0000000000000000
    PCM Polarization Energy =               0.0000000000000000
    EFP Energy =                            0.0000000000000000
    Total Energy =                       -227.8936387639233203
    Molecular point group: c1
  Basis Set: CC-PVTZ
  Basis Set:

  -Total Gradient:
     Atom            X                  Y                   Z
    ------   -----------------  -----------------  -----------------
       1       -0.000138758250    -0.000705832174     0.011704370580
       2        0.002037594872     0.001781099393    -0.012716574760
       3       -0.006182273470    -0.003315945570    -0.003333781988
       4        0.004729693614     0.002474025974     0.004670580027
       5       -0.000444385253    -0.000229636387    -0.000323062318
       6       -0.000005404858    -0.000000106053    -0.000001375123
       7        0.000004291962    -0.000002297230    -0.000000220993
       8       -0.000000758614    -0.000001307954     0.000000064574

    Molecular point group: c1

    Geometry (in Angstrom), charge = 0, multiplicity = 1:

    H            1.588017450029    -0.936650556880    -0.127181908506
    O            0.656908348275    -1.088880208979    -0.147307173980
    C           -0.003349240079     0.081931429901    -0.084641108933
    C           -1.073278495162     0.080126058569     0.966893157288
    O            0.299430777451     1.012518365930    -0.740170516760
    H           -1.678115610132    -0.813996355573     0.898296426637
    H           -1.685537219723     0.962503083834     0.875795434284
    H           -0.582938544012     0.070470940109     1.933181030723

  Mulliken Charges: (a.u.)
   Center  Symbol    Alpha    Beta     Spin     Total
       1     H     0.37888  0.37888  0.00000  0.24223
       2     O     4.17381  4.17381  0.00000 -0.34763
       3     C     2.80440  2.80440  0.00000  0.39120
       4     C     3.13581  3.13581  0.00000 -0.27162
       5     O     4.17615  4.17615  0.00000 -0.35231
       6     H     0.44381  0.44381  0.00000  0.11237
       7     H     0.43876  0.43876  0.00000  0.12248
       8     H     0.44837  0.44837  0.00000  0.10326

   Total alpha = 16.00000, Total beta = 16.00000, Total charge = -0.00000
