  ==> Input File <==

--------------------------------------------------------------------------
set {
	reference rhf
	basis cc-pvtz
}

set_num_threads( 4 )
memory 2 gb

molecule MOL {
0 1

H	 2.624792	 -5.676781	 0.845692
C	 2.467069	 -4.630097	 0.673383
C	 1.191763	 -4.140610	 0.428781
C	 3.524635	 -3.750827	 0.691087
H	 0.354092	 -4.811824	 0.411124
C	 0.985169	 -2.800319	 0.207506
H	 4.518583	 -4.110808	 0.878625
C	 3.333712	 -2.394033	 0.469573
H	 0.003948	 -2.411965	 0.017619
C	 2.058951	 -1.916429	 0.226758
H	 4.177427	 -1.735861	 0.489935
O	 1.760432	 -0.625184	 0.000000
C	 2.773565	 0.334879	 0.000000
H	 2.728295	 0.960928	 -0.884150
H	 3.706387	 -0.206610	 0.000000
H	 2.728295	 0.960928	 0.884150

	symmetry c1
}
set optking {
	frozen_dihedral = ("
		10 12 13 14
	")
}

ee = optimize('scf')
oeprop('DIPOLE', 'QUADRUPOLE', 'MULLIKEN_CHARGES')
f=open( 'psi4out.xyz', 'w' )
f.write( "16  " )
f.write( str(ee) + "\n" )
f.write( MOL.save_string_xyz() )
f.close()
--------------------------------------------------------------------------

    Molecular point group: c1
  Charge       = 0
  Multiplicity = 1
  Basis Set: CC-PVTZ
  Basis Set:
  @DF-RHF Final Energy:  -344.69371231137598
    Total Energy =                       -344.6937123113759753
    Molecular point group: c1
  Basis Set: CC-PVTZ
  Basis Set:
  Basis Set: CC-PVTZ
  Basis Set:
  @DF-RHF Final Energy:  -344.69329430203777
    Total Energy =                       -344.6932943020375433
  Basis Set: CC-PVTZ
  Basis Set:
  Basis Set: CC-PVTZ
  Basis Set:
  @DF-RHF Final Energy:  -344.69818099501373
    Total Energy =                       -344.6981809950140132
  Basis Set: CC-PVTZ
  Basis Set:
  Basis Set: CC-PVTZ
  Basis Set:
  @DF-RHF Final Energy:  -344.69886494995444
    Total Energy =                       -344.6988649499546113
  Basis Set: CC-PVTZ
  Basis Set:
  @DF-RHF Final Energy:  -344.69963315009676
    Total Energy =                       -344.6996331500970996
  Basis Set: CC-PVTZ
  Basis Set:
  @DF-RHF Final Energy:  -344.69979588359496
    Total Energy =                       -344.6997958835951295
  Basis Set: CC-PVTZ
  Basis Set:
  Basis Set: CC-PVTZ
  Basis Set:
  @DF-RHF Final Energy:  -344.69986255686592
    Total Energy =                       -344.6998625568657530
  Basis Set: CC-PVTZ
  Basis Set:
  Basis Set: CC-PVTZ
  Basis Set:
  @DF-RHF Final Energy:  -344.69987735596692
    Total Energy =                       -344.6998773559669189
  Basis Set: CC-PVTZ
  Basis Set:
  Charge       = 0
  Multiplicity = 1
  Basis Set: CC-PVTZ
  Basis Set:

    Orbital Energies (a.u.)
    -----------------------

    Doubly Occupied:

       1A    -20.573627     2A    -11.291882     3A    -11.277048
       4A    -11.231501     5A    -11.230098     6A    -11.222608
       7A    -11.218619     8A    -11.218509     9A     -1.412288
      10A     -1.151238    11A     -1.024021    12A     -1.017189
      13A     -0.941721    14A     -0.835821    15A     -0.808744
      16A     -0.723031    17A     -0.667276    18A     -0.666830
      19A     -0.653418    20A     -0.617395    21A     -0.592961
      22A     -0.583775    23A     -0.528352    24A     -0.518411
      25A     -0.511104    26A     -0.483865    27A     -0.456232
      28A     -0.339511    29A     -0.313046

  @DF-RHF Final Energy:  -344.69987937587592

   => Energetics <=

    Nuclear Repulsion Energy =            348.3973547881184345
    One-Electron Energy =               -1157.9742310993590308
    Two-Electron Energy =                 464.8769969353650140
    DFT Exchange-Correlation Energy =       0.0000000000000000
    Empirical Dispersion Energy =           0.0000000000000000
    PCM Polarization Energy =               0.0000000000000000
    EFP Energy =                            0.0000000000000000
    Total Energy =                       -344.6998793758755255
    Molecular point group: c1
  Basis Set: CC-PVTZ
  Basis Set:

  -Total Gradient:
     Atom            X                  Y                   Z
    ------   -----------------  -----------------  -----------------
       1       -0.000006591133    -0.000009419582     0.000008143938
       2        0.000209544554     0.000062509775     0.000070061273
       3       -0.000117719019     0.000158692932    -0.000064842367
       4       -0.000025938476    -0.000209152451    -0.000055523760
       5        0.000021555005     0.000010612185     0.000001825669
       6       -0.000022265988    -0.000054615879    -0.000040799911
       7       -0.000001119252     0.000007969725     0.000015465415
       8       -0.000130415583     0.000134401916    -0.000084921118
       9       -0.000017328746     0.000023352394    -0.000004699780
      10       -0.000700088850    -0.000409920854    -0.001738101107
      11        0.000010818226    -0.000000826748    -0.000000353431
      12        0.001303494126     0.000001762729     0.002453766052
      13       -0.001062556849     0.001839878443     0.001078864048
      14        0.000557352660    -0.001561024319    -0.001711605181
      15       -0.000028872623    -0.000021888667     0.000060436100
      16        0.000010131946     0.000027668397     0.000012284163

  **** Optimization is complete! (in 9 steps) ****
    Final optimized geometry and variables:
    Molecular point group: c1

    Geometry (in Angstrom), charge = 0, multiplicity = 1:

    H            0.335024835628    -3.318239251292     0.235431655152
    C            0.185818084418    -2.257558818955     0.179889355531
    C           -1.067334586287    -1.738567509924    -0.099193206504
    C            1.237667182822    -1.391471437906     0.390486024190
    H           -1.897063858839    -2.399591598721    -0.263598317402
    C           -1.262676685719    -0.376837671175    -0.175848794755
    H            2.213249451024    -1.777281509711     0.618488435676
    C            1.053637711933    -0.020795891727     0.324538537001
    H           -2.228204368422     0.035525607232    -0.393579467751
    C           -0.199464064604     0.488736742561     0.032235329305
    H            1.878349847264     0.636927814958     0.514734863561
    O           -0.470163230345     1.808650249171    -0.016205783199
    C            0.474262555970     2.713492269698    -0.522795346358
    H           -0.023180402003     3.338758538707    -1.251307422562
    H            1.290364958357     2.205573204764    -1.017736624119
    H            0.869678737788     3.329101317783     0.275069795928

  Mulliken Charges: (a.u.)
   Center  Symbol    Alpha    Beta     Spin     Total
       1     H     0.42422  0.42422  0.00000  0.15155
       2     C     3.09732  3.09732  0.00000 -0.19465
       3     C     3.06022  3.06022  0.00000 -0.12045
       4     C     3.06472  3.06472  0.00000 -0.12944
       5     H     0.42278  0.42278  0.00000  0.15443
       6     C     3.11074  3.11074  0.00000 -0.22148
       7     H     0.42285  0.42285  0.00000  0.15430
       8     C     3.12941  3.12941  0.00000 -0.25883
       9     H     0.41926  0.41926  0.00000  0.16149
      10     C     2.85654  2.85654  0.00000  0.28692
      11     H     0.42340  0.42340  0.00000  0.15320
      12     O     4.16371  4.16371  0.00000 -0.32742
      13     C     3.03876  3.03876  0.00000 -0.07751
      14     H     0.44718  0.44718  0.00000  0.10564
      15     H     0.46468  0.46468  0.00000  0.07064
      16     H     0.45420  0.45420  0.00000  0.09160

   Total alpha = 29.00000, Total beta = 29.00000, Total charge = -0.00000
