  ==> Input File <==

--------------------------------------------------------------------------
set {
	reference rhf
	basis cc-pvtz
}

set_num_threads( 4 )
memory 2 gb

molecule MOL {
0 1

H	 -1.052788	 0.917667	 -0.286714
N	 -0.712187	 0.000026	 -0.093397
C	 0.734067	 -0.000020	 0.038424
H	 -1.001746	 -0.585863	 -0.847276
H	 1.140372	 -0.872115	 -0.458226
H	 1.140363	 0.872301	 -0.457869
H	 1.095085	 -0.000244	 1.065614

	symmetry c1
}
set optking {
	frozen_dihedral = ("
		1 2 3 7
	")
}

ee = optimize('scf')
oeprop('DIPOLE', 'QUADRUPOLE', 'MULLIKEN_CHARGES')
f=open( 'psi4out.xyz', 'w' )
f.write( "7  " )
f.write( str(ee) + "\n" )
f.write( MOL.save_string_xyz() )
f.close()
--------------------------------------------------------------------------

    Molecular point group: c1
  Charge       = 0
  Multiplicity = 1
  Basis Set: CC-PVTZ
  Basis Set:
  @DF-RHF Final Energy:   -95.25010000371162
    Total Energy =                        -95.2501000037115944
    Molecular point group: c1
  Basis Set: CC-PVTZ
  Basis Set:
  Basis Set: CC-PVTZ
  Basis Set:
  @DF-RHF Final Energy:   -95.25124532453304
    Total Energy =                        -95.2512453245330732
  Basis Set: CC-PVTZ
  Basis Set:
  Basis Set: CC-PVTZ
  Basis Set:
  @DF-RHF Final Energy:   -95.25138777710036
    Total Energy =                        -95.2513877771003905
  Basis Set: CC-PVTZ
  Basis Set:
  Basis Set: CC-PVTZ
  Basis Set:
  @DF-RHF Final Energy:   -95.25139130046685
    Total Energy =                        -95.2513913004668780
  Basis Set: CC-PVTZ
  Basis Set:
  Charge       = 0
  Multiplicity = 1
  Basis Set: CC-PVTZ
  Basis Set:

    Orbital Energies (a.u.)
    -----------------------

    Doubly Occupied:

       1A    -15.527971     2A    -11.235708     3A     -1.170731
       4A     -0.897991     5A     -0.664224     6A     -0.602394
       7A     -0.559799     8A     -0.515916     9A     -0.386853

  @DF-RHF Final Energy:   -95.25139159677717

   => Energetics <=

    Nuclear Repulsion Energy =             42.3170881978781921
    One-Electron Energy =                -212.0137861155674557
    Two-Electron Energy =                  74.4453063209120813
    DFT Exchange-Correlation Energy =       0.0000000000000000
    Empirical Dispersion Energy =           0.0000000000000000
    PCM Polarization Energy =               0.0000000000000000
    EFP Energy =                            0.0000000000000000
    Total Energy =                        -95.2513915967771965
    Molecular point group: c1
  Basis Set: CC-PVTZ
  Basis Set:

  -Total Gradient:
     Atom            X                  Y                   Z
    ------   -----------------  -----------------  -----------------
       1        0.000179410273    -0.000441414572    -0.002772379526
       2       -0.000198177031    -0.000121293364     0.003440567573
       3       -0.000047789897     0.003143617448    -0.000619386898
       4       -0.000017930293     0.000004429423    -0.000006106253
       5        0.000013698684    -0.000003228165     0.000002386086
       6        0.000010103882    -0.000006386434    -0.000001953787
       7        0.000060684383    -0.002575724337    -0.000043127197

  **** Optimization is complete! (in 5 steps) ****
    Final optimized geometry and variables:
    Molecular point group: c1

    Geometry (in Angstrom), charge = 0, multiplicity = 1:

    H           -1.086421889003     0.890850884604    -0.191022770052
    N           -0.720972187424    -0.020901932509    -0.020124938971
    C            0.733696502608     0.002224591648     0.078042732704
    H           -1.013002767432    -0.586544276110    -0.787212969773
    H            1.147015784689    -0.889389917600    -0.377594609705
    H            1.190505530546     0.857885951764    -0.410125512657
    H            1.043344884625    -0.008871702728     1.116337365067

  Mulliken Charges: (a.u.)
   Center  Symbol    Alpha    Beta     Spin     Total
       1     H     0.42946  0.42946  0.00000  0.14108
       2     N     3.68509  3.68509  0.00000 -0.37018
       3     C     3.06959  3.06959  0.00000 -0.13917
       4     H     0.42831  0.42831  0.00000  0.14338
       5     H     0.46014  0.46014  0.00000  0.07973
       6     H     0.46779  0.46779  0.00000  0.06441
       7     H     0.45963  0.45963  0.00000  0.08075

   Total alpha =  9.00000, Total beta =  9.00000, Total charge = -0.00000
