                              Psi4 1.0.54 Driver

  ==> Input File <==

--------------------------------------------------------------------------
set {
	reference rhf
	basis cc-pvtz
}

set_num_threads( 4 )
memory 2 gb

molecule MOL {
0 1

H	 2.239167	 0.033479	 2.201451
O	 1.548164	 0.575503	 1.868615
C	 1.135873	 0.113391	 0.608264
C	 0.027642	 1.012027	 0.090274
H	 0.761552	 -0.904515	 0.682547
H	 1.973397	 0.101271	 -0.083739
C	 -1.138737	 0.285728	 -0.581921
H	 0.464661	 1.708096	 -0.618252
H	 -0.340737	 1.603071	 0.925246
C	 -1.933983	 -0.631436	 0.343653
H	 -0.763151	 -0.285569	 -1.422081
H	 -1.808359	 1.035291	 -0.992333
H	 -2.789188	 -1.049673	 -0.174718
H	 -1.335629	 -1.461368	 0.700418
H	 -2.305435	 -0.092167	 1.209725

	symmetry c1
}
set optking {
	frozen_dihedral = ("
		2 3 4 8
	")
}

ee,wfn = optimize('scf', return_wfn=True)
oeprop( wfn, 'DIPOLE', 'QUADRUPOLE', 'MULLIKEN_CHARGES')
f=open( 'psi4out.xyz', 'w' )
f.write( "15  " )
f.write( str(ee) + "\n" )
f.write( MOL.save_string_xyz() )
f.close()
--------------------------------------------------------------------------

    Molecular point group: c1
  Charge       = 0
  Multiplicity = 1
  Basis Set: CC-PVTZ
  Basis Set:
  @DF-RHF Final Energy:  -232.23214100251761
    Total Energy =                       -232.2321410025175510
    Molecular point group: c1
  Basis Set: CC-PVTZ
  Basis Set:
  Basis Set: CC-PVTZ
  Basis Set:
  @DF-RHF Final Energy:  -232.23168471472590
    Total Energy =                       -232.2316847147259864
  Basis Set: CC-PVTZ
  Basis Set:
  Basis Set: CC-PVTZ
  Basis Set:
  @DF-RHF Final Energy:  -232.23275885335175
    Total Energy =                       -232.2327588533518679
  Basis Set: CC-PVTZ
  Basis Set:
  Basis Set: CC-PVTZ
  Basis Set:
  @DF-RHF Final Energy:  -232.23293479327211
    Total Energy =                       -232.2329347932721930
  Basis Set: CC-PVTZ
  Basis Set:
  Basis Set: CC-PVTZ
  Basis Set:
  @DF-RHF Final Energy:  -232.23298393901931
    Total Energy =                       -232.2329839390191069
  Basis Set: CC-PVTZ
  Basis Set:
  Basis Set: CC-PVTZ
  Basis Set:
  @DF-RHF Final Energy:  -232.23298597236629
    Total Energy =                       -232.2329859723660661
  Basis Set: CC-PVTZ
  Basis Set:
  Charge       = 0
  Multiplicity = 1
  Basis Set: CC-PVTZ
  Basis Set:

    Orbital Energies (a.u.)
    -----------------------

    Doubly Occupied:

       1A    -20.545401     2A    -11.265313     3A    -11.215461
       4A    -11.209697     5A    -11.205930     6A     -1.362572
       7A     -1.068725     8A     -0.969956     9A     -0.867962
      10A     -0.786190    11A     -0.699741    12A     -0.651117
      13A     -0.618096    14A     -0.575942    15A     -0.556550
      16A     -0.545082    17A     -0.503568    18A     -0.477154
      19A     -0.472402    20A     -0.457298    21A     -0.431833

  @DF-RHF Final Energy:  -232.23298609386060

   => Energetics <=

    Nuclear Repulsion Energy =            188.9604532026204140
    One-Electron Energy =                -689.4148964393336882
    Two-Electron Energy =                 268.2214571428526710
    DFT Exchange-Correlation Energy =       0.0000000000000000
    Empirical Dispersion Energy =           0.0000000000000000
    PCM Polarization Energy =               0.0000000000000000
    EFP Energy =                            0.0000000000000000
    Total Energy =                       -232.2329860938605748
    Molecular point group: c1
  Basis Set: CC-PVTZ
  Basis Set:

  -Total Gradient:
     Atom            X                  Y                   Z
    ------   -----------------  -----------------  -----------------
       1       -0.000000744846    -0.000001086417     0.000000545480
       2       -0.001518198795    -0.001601745259     0.000948611772
       3        0.001942800885     0.001606732064    -0.001781877259
       4       -0.000263303465     0.002028300899     0.003172046371
       5        0.000007493880     0.000006646721     0.000003479783
       6       -0.000002484718     0.000001513116     0.000003754242
       7       -0.000001539230    -0.000000632480     0.000006365328
       8       -0.000153759544    -0.002040541020    -0.002352076201
       9       -0.000000270461    -0.000001858511    -0.000000211226
      10        0.000002635091    -0.000000558554    -0.000005993090
      11       -0.000000270584    -0.000001400015     0.000004562581
      12       -0.000003962517     0.000005302452    -0.000000903416
      13        0.000000583765    -0.000000621753    -0.000004988973
      14       -0.000003554907    -0.000004273759     0.000003867359
      15       -0.000005424554     0.000004222518     0.000002817251

  **** Optimization is complete! (in 7 steps) ****
    Final optimized geometry and variables:
    Molecular point group: c1

    Geometry (in Angstrom), charge = 0, multiplicity = 1:

    H            2.216568745930     0.041390302730     1.817998968235
    O            1.455250668999     0.463208543644     1.464332991966
    C            1.184693810841    -0.032629440734     0.177672696624
    C            0.006511209922     0.741208898469    -0.416406059229
    H            0.949044925358    -1.091128524668     0.236345574547
    H            2.058480269241     0.066878996748    -0.460271745132
    C           -0.989388791356    -0.136067877285    -1.180317852993
    H            0.383052836467     1.496509630423    -1.096904176398
    H           -0.499411866732     1.255366183084     0.391533670344
    C           -1.867278886852    -1.007235374067    -0.285475023375
    H           -0.452126933710    -0.763352741432    -1.887811902032
    H           -1.629706158058     0.505429361091    -1.776983657487
    H           -2.542503097943    -1.614063976203    -0.878004319339
    H           -1.281240125532    -1.678200119459     0.331690489385
    H           -2.467664220131    -0.394103106774     0.377881789404

  Mulliken Charges: (a.u.)
   Center  Symbol    Alpha    Beta     Spin     Total
       1     H     0.39541  0.39541  0.00000  0.20919
       2     O     4.19749  4.19749  0.00000 -0.39499
       3     C     2.96577  2.96577  0.00000  0.06847
       4     C     3.09234  3.09234  0.00000 -0.18468
       5     H     0.47545  0.47545  0.00000  0.04910
       6     H     0.47034  0.47034  0.00000  0.05932
       7     C     3.09789  3.09789  0.00000 -0.19579
       8     H     0.45024  0.45024  0.00000  0.09952
       9     H     0.44710  0.44710  0.00000  0.10580
      10     C     3.14654  3.14654  0.00000 -0.29307
      11     H     0.45606  0.45606  0.00000  0.08788
      12     H     0.44844  0.44844  0.00000  0.10313
      13     H     0.44859  0.44859  0.00000  0.10281
      14     H     0.45510  0.45510  0.00000  0.08980
      15     H     0.45324  0.45324  0.00000  0.09353

   Total alpha = 21.00000, Total beta = 21.00000, Total charge = -0.00000

*** Psi4 exiting successfully. Buy a developer a beer!
