                              Psi4 1.0.54 Driver

  ==> Input File <==

--------------------------------------------------------------------------
set {
	reference rhf
	basis cc-pvtz
}

set_num_threads( 4 )
memory 2 gb

molecule MOL {
0 1

H	 -3.312652	 -0.124769	 1.556323
C	 -3.348779	 -0.199712	 0.460895
C	 -2.653809	 0.914422	 -0.273689
O	 -3.913630	 -1.102691	 -0.051825
C	 -1.216901	 1.136108	 0.207794
H	 -2.691133	 0.703402	 -1.334543
H	 -3.234757	 1.815873	 -0.091510
C	 -0.247837	 0.040196	 -0.230469
H	 -0.872882	 2.093195	 -0.169002
H	 -1.209325	 1.218376	 1.291938
C	 1.181757	 0.280428	 0.247371
H	 -0.259600	 -0.030819	 -1.314870
H	 -0.591284	 -0.923375	 0.136958
C	 2.151032	 -0.811012	 -0.202643
H	 1.515939	 1.247397	 -0.115449
H	 1.191514	 0.341223	 1.333422
C	 3.580021	 -0.656538	 0.320835
H	 2.170545	 -0.847575	 -1.289412
H	 1.766632	 -1.772905	 0.124928
C	 4.327657	 0.562694	 -0.213579
H	 4.138806	 -1.549270	 0.057813
H	 3.561991	 -0.620783	 1.406976
H	 4.355973	 0.557257	 -1.298551
H	 3.867136	 1.491650	 0.100501
H	 5.351524	 0.571613	 0.142204

	symmetry c1
}
set optking {
	frozen_dihedral = ("
		6 3 5 8
	")
}

ee,wfn = optimize('scf', return_wfn=True)
oeprop( wfn, 'DIPOLE', 'QUADRUPOLE', 'MULLIKEN_CHARGES')
f=open( 'psi4out.xyz', 'w' )
f.write( "25  " )
f.write( str(ee) + "\n" )
f.write( MOL.save_string_xyz() )
f.close()
--------------------------------------------------------------------------

    Molecular point group: c1
  Charge       = 0
  Multiplicity = 1
  Basis Set: CC-PVTZ
  Basis Set:
  @DF-RHF Final Energy:  -387.26030893495619
    Total Energy =                       -387.2603089349565835
    Molecular point group: c1
  Basis Set: CC-PVTZ
  Basis Set:
  Basis Set: CC-PVTZ
  Basis Set:
  @DF-RHF Final Energy:  -387.26031799287585
    Total Energy =                       -387.2603179928757982
  Basis Set: CC-PVTZ
  Basis Set:
  Basis Set: CC-PVTZ
  Basis Set:
  @DF-RHF Final Energy:  -387.26015848065515
    Total Energy =                       -387.2601584806556048
  Basis Set: CC-PVTZ
  Basis Set:
  Basis Set: CC-PVTZ
  Basis Set:
  @DF-RHF Final Energy:  -387.26032442712136
    Total Energy =                       -387.2603244271208496
  Basis Set: CC-PVTZ
  Basis Set:
  Charge       = 0
  Multiplicity = 1
  Basis Set: CC-PVTZ
  Basis Set:

    Orbital Energies (a.u.)
    -----------------------

    Doubly Occupied:

       1A    -20.551526     2A    -11.320945     3A    -11.233789
       4A    -11.232835     5A    -11.221512     6A    -11.217569
       7A    -11.216181     8A    -11.214945     9A    -11.208804
      10A     -1.406521    11A     -1.105212    12A     -1.070927
      13A     -1.014600    14A     -0.943585    15A     -0.875801
      16A     -0.819838    17A     -0.789865    18A     -0.781649
      19A     -0.668017    20A     -0.664050    21A     -0.635069
      22A     -0.627094    23A     -0.603352    24A     -0.594697
      25A     -0.577276    26A     -0.550926    27A     -0.535355
      28A     -0.528441    29A     -0.509724    30A     -0.497469
      31A     -0.491384    32A     -0.480211    33A     -0.465131
      34A     -0.459277    35A     -0.442656    36A     -0.411898

  @DF-RHF Final Energy:  -387.26032491773759

   => Energetics <=

    Nuclear Repulsion Energy =            439.4478573823301417
    One-Electron Energy =               -1395.4801042557469373
    Two-Electron Energy =                 568.7719219556793178
    DFT Exchange-Correlation Energy =       0.0000000000000000
    Empirical Dispersion Energy =           0.0000000000000000
    PCM Polarization Energy =               0.0000000000000000
    EFP Energy =                            0.0000000000000000
    Total Energy =                       -387.2603249177375346
    Molecular point group: c1
  Basis Set: CC-PVTZ
  Basis Set:

  -Total Gradient:
     Atom            X                  Y                   Z
    ------   -----------------  -----------------  -----------------
       1       -0.000031837183     0.000000891441     0.000021370813
       2        0.000072813576    -0.000061230375     0.000027919249
       3       -0.000003030271     0.001421780140    -0.000488478919
       4       -0.000030366435     0.000051725154    -0.000004688706
       5       -0.000234248134    -0.000774023635     0.000915284869
       6        0.000099502574    -0.000992529923     0.000193479100
       7       -0.000002423962    -0.000013274089    -0.000017275349
       8        0.000145581592     0.000369360589    -0.000629275807
       9       -0.000008894620     0.000008844192     0.000006210041
      10       -0.000016551918    -0.000003068853    -0.000011423391
      11       -0.000001484753    -0.000003320935    -0.000009631762
      12       -0.000006900503     0.000004546488    -0.000002343971
      13        0.000019516370    -0.000010907585    -0.000006962647
      14       -0.000001435056     0.000005624891     0.000000902972
      15       -0.000017791453    -0.000013705520    -0.000009850124
      16        0.000005046207     0.000009906846     0.000001531864
      17       -0.000013103786     0.000006700491     0.000023561346
      18        0.000000086983     0.000013918688     0.000003107181
      19        0.000003636196    -0.000009359612    -0.000010004106
      20        0.000010509740    -0.000003277679    -0.000004827936
      21        0.000000342539    -0.000007602852     0.000002883657
      22       -0.000000259482     0.000006194542     0.000007107416
      23        0.000000586024     0.000003286612    -0.000008612461
      24        0.000013020706    -0.000004987189     0.000003978495
      25       -0.000002314956    -0.000005491826    -0.000003961823

  **** Optimization is complete! (in 5 steps) ****
    Final optimized geometry and variables:
    Molecular point group: c1

    Geometry (in Angstrom), charge = 0, multiplicity = 1:

    H           -3.295085663485    -0.131751937378     1.531022989086
    C           -3.327837183137    -0.209349655807     0.435661215873
    C           -2.645294915332     0.912210116203    -0.300486341629
    O           -3.878951849175    -1.121135880445    -0.076385638968
    C           -1.206169580517     1.136333940395     0.174144089894
    H           -2.686359032251     0.695781961186    -1.360067877478
    H           -3.231254231670     1.809071123566    -0.113880053943
    C           -0.241635106047     0.036426749397    -0.264036799143
    H           -0.860592972619     2.089343762776    -0.211582190214
    H           -1.193316013314     1.227616273822     1.257495126825
    C            1.188273512966     0.268271381950     0.216813921395
    H           -0.252163684023    -0.030917508970    -1.348589994320
    H           -0.591080455817    -0.926315854781     0.100059529827
    C            2.152493976640    -0.827290557559    -0.234041751877
    H            1.528193479293     1.234356662229    -0.143130881046
    H            1.196526595287     0.326369334629     1.303010038680
    C            3.580109972412    -0.684435121493     0.296333670670
    H            2.176592370266    -0.858960284373    -1.320879556797
    H            1.760496362357    -1.788173968827     0.087419866145
    C            4.338460676137     0.531460826831    -0.230559085660
    H            4.133921696668    -1.580098627654     0.032701646817
    H            3.557409252288    -0.652295394458     1.382497053604
    H            4.370328636578     0.530270301979    -1.315456376145
    H            3.883791952254     1.462510717791     0.085867833516
    H            5.361185109706     0.531318013000     0.128603497210

  Mulliken Charges: (a.u.)
   Center  Symbol    Alpha    Beta     Spin     Total
       1     H     0.46493  0.46493  0.00000  0.07013
       2     C     2.90468  2.90468  0.00000  0.19065
       3     C     3.08870  3.08870  0.00000 -0.17740
       4     O     4.16589  4.16589  0.00000 -0.33179
       5     C     3.11601  3.11601  0.00000 -0.23202
       6     H     0.44338  0.44338  0.00000  0.11324
       7     H     0.44008  0.44008  0.00000  0.11984
       8     C     3.08911  3.08911  0.00000 -0.17822
       9     H     0.44327  0.44327  0.00000  0.11346
      10     H     0.45015  0.45015  0.00000  0.09971
      11     C     3.09288  3.09288  0.00000 -0.18576
      12     H     0.45018  0.45018  0.00000  0.09963
      13     H     0.44783  0.44783  0.00000  0.10434
      14     C     3.09567  3.09567  0.00000 -0.19134
      15     H     0.45165  0.45165  0.00000  0.09670
      16     H     0.45423  0.45423  0.00000  0.09154
      17     C     3.09071  3.09071  0.00000 -0.18141
      18     H     0.45304  0.45304  0.00000  0.09392
      19     H     0.44777  0.44777  0.00000  0.10447
      20     C     3.15267  3.15267  0.00000 -0.30534
      21     H     0.44765  0.44765  0.00000  0.10469
      22     H     0.45468  0.45468  0.00000  0.09063
      23     H     0.45457  0.45457  0.00000  0.09086
      24     H     0.45438  0.45438  0.00000  0.09123
      25     H     0.44589  0.44589  0.00000  0.10822

   Total alpha = 36.00000, Total beta = 36.00000, Total charge = -0.00000

*** Psi4 exiting successfully. Buy a developer a beer!
