                              Psi4 1.0.54 Driver

  ==> Input File <==

--------------------------------------------------------------------------
set {
	reference rhf
	basis cc-pvtz
}

set_num_threads( 4 )
memory 2 gb

molecule MOL {
0 1

H	 -3.162190	 0.493205	 -0.000107
C	 -2.363908	 -0.234727	 0.000005
O	 -1.158738	 0.454634	 -0.000087
H	 -2.464314	 -0.863616	 -0.882153
H	 -2.464327	 -0.863359	 0.882345
C	 -0.028611	 -0.359694	 0.000037
C	 1.212847	 0.509314	 -0.000053
H	 -0.034155	 -1.007047	 -0.877198
H	 -0.034195	 -1.006836	 0.877430
C	 2.496675	 -0.309312	 0.077339
H	 1.210024	 1.115598	 -0.899128
H	 1.155276	 1.193944	 0.838945
H	 2.586335	 -0.984855	 -0.766870
H	 3.366747	 0.335662	 0.075524
H	 2.531360	 -0.905749	 0.982948

	symmetry c1
}
set optking {
	frozen_dihedral = ("
		11 7 6 8
	")
}

ee,wfn = optimize('scf', return_wfn=True)
oeprop( wfn, 'DIPOLE', 'QUADRUPOLE', 'MULLIKEN_CHARGES')
f=open( 'psi4out.xyz', 'w' )
f.write( "15  " )
f.write( str(ee) + "\n" )
f.write( MOL.save_string_xyz() )
f.close()
--------------------------------------------------------------------------

    Molecular point group: c1
  Charge       = 0
  Multiplicity = 1
  Basis Set: CC-PVTZ
  Basis Set:
  @DF-RHF Final Energy:  -232.22818253790723
    Total Energy =                       -232.2281825379071165
    Molecular point group: c1
  Basis Set: CC-PVTZ
  Basis Set:
  Basis Set: CC-PVTZ
  Basis Set:
  @DF-RHF Final Energy:  -232.22818802239794
    Total Energy =                       -232.2281880223978305
  Basis Set: CC-PVTZ
  Basis Set:
  Charge       = 0
  Multiplicity = 1
  Basis Set: CC-PVTZ
  Basis Set:

    Orbital Energies (a.u.)
    -----------------------

    Doubly Occupied:

       1A    -20.547485     2A    -11.264449     3A    -11.261768
       4A    -11.212832     5A    -11.210724     6A     -1.381781
       7A     -1.058463     8A     -0.956117     9A     -0.877277
      10A     -0.809496    11A     -0.677363    12A     -0.655783
      13A     -0.632298    14A     -0.608597    15A     -0.565216
      16A     -0.541025    17A     -0.503450    18A     -0.490318
      19A     -0.478636    20A     -0.462874    21A     -0.416848

  @DF-RHF Final Energy:  -232.22818948153963

   => Energetics <=

    Nuclear Repulsion Energy =            190.0040779350983939
    One-Electron Energy =                -691.2389334210915877
    Two-Electron Energy =                 269.0066660044536775
    DFT Exchange-Correlation Energy =       0.0000000000000000
    Empirical Dispersion Energy =           0.0000000000000000
    PCM Polarization Energy =               0.0000000000000000
    EFP Energy =                            0.0000000000000000
    Total Energy =                       -232.2281894815395162
    Molecular point group: c1
  Basis Set: CC-PVTZ
  Basis Set:

  -Total Gradient:
     Atom            X                  Y                   Z
    ------   -----------------  -----------------  -----------------
       1        0.000003740983     0.000002429626    -0.000003662855
       2       -0.000053062335    -0.000023384894     0.000013085980
       3        0.000078776207    -0.000019981269     0.000014077903
       4        0.000012210583     0.000007384901    -0.000000926769
       5        0.000004746420     0.000003696279    -0.000003583182
       6        0.000420348646    -0.000608154240     0.000322249581
       7       -0.000453244718     0.000632642808     0.000311535323
       8       -0.000304013674     0.000427917719    -0.000351176624
       9       -0.000006486077     0.000000345455     0.000018574203
      10       -0.000035356908     0.000028079745    -0.000009557339
      11        0.000319717966    -0.000449836487    -0.000329807176
      12       -0.000005058494     0.000007629013     0.000016249112
      13        0.000004932570    -0.000004820013    -0.000005224451
      14        0.000014353526     0.000003760059    -0.000004076137
      15       -0.000001604696    -0.000007708701     0.000012242429

  **** Optimization is complete! (in 3 steps) ****
    Final optimized geometry and variables:
    Molecular point group: c1

    Geometry (in Angstrom), charge = 0, multiplicity = 1:

    H           -3.162287749793     0.492548238282    -0.023091188907
    C           -2.363706710492    -0.235175785219    -0.021614564734
    O           -1.158541987654     0.453812066810    -0.013412359870
    H           -2.459832767660    -0.861164721555    -0.906404313230
    H           -2.468493012339    -0.867102479651     0.857972471901
    C           -0.028112855806    -0.360391177152    -0.009088374926
    C            1.212749979502     0.509748219664    -0.012399499795
    H           -0.034247020639    -1.008456532839    -0.885826601434
    H           -0.034679392230    -1.004352810149     0.870604215509
    C            2.497071964570    -0.309395006339     0.056594481520
    H            1.208722673747     1.115624682492    -0.911885185035
    H            1.158531860137     1.192077679117     0.828519837580
    H            2.578259067899    -0.989208173437    -0.785223163276
    H            3.367660739691     0.334922750908     0.042842030682
    H            2.540039161610    -0.901473053417     0.964708346985

  Mulliken Charges: (a.u.)
   Center  Symbol    Alpha    Beta     Spin     Total
       1     H     0.44687  0.44687  0.00000  0.10627
       2     C     3.03343  3.03343  0.00000 -0.06685
       3     O     4.17156  4.17156  0.00000 -0.34312
       4     H     0.47214  0.47214  0.00000  0.05573
       5     H     0.47226  0.47226  0.00000  0.05549
       6     C     2.95613  2.95613  0.00000  0.08773
       7     C     3.08010  3.08010  0.00000 -0.16021
       8     H     0.47549  0.47549  0.00000  0.04902
       9     H     0.47603  0.47603  0.00000  0.04794
      10     C     3.15584  3.15584  0.00000 -0.31167
      11     H     0.45143  0.45143  0.00000  0.09715
      12     H     0.45072  0.45072  0.00000  0.09855
      13     H     0.45601  0.45601  0.00000  0.08798
      14     H     0.44630  0.44630  0.00000  0.10740
      15     H     0.45570  0.45570  0.00000  0.08860

   Total alpha = 21.00000, Total beta = 21.00000, Total charge = -0.00000

*** Psi4 exiting successfully. Buy a developer a beer!
