  ==> Input File <==

--------------------------------------------------------------------------
set {
	reference rhf
	basis 6-31G*
}

set_num_threads( 1 )
memory 2 gb

molecule MOL {
0 1

H	 -2.725151	 0.800574	 -1.484584
C	 -1.979651	 0.014774	 -1.588935
O	 -1.392607	 -0.295399	 -0.366433
H	 -2.463440	 -0.880335	 -1.954818
H	 -1.238446	 0.337181	 -2.319070
C	 -0.719715	 0.768384	 0.229244
C	 0.719720	 0.768376	 -0.229267
H	 -1.185038	 1.714362	 -0.050570
H	 -0.750528	 0.687237	 1.313896
O	 1.392611	 -0.295398	 0.366430
H	 0.750534	 0.687200	 -1.313918
H	 1.185043	 1.714359	 0.050526
C	 2.706965	 -0.449871	 -0.062409
H	 2.756559	 -0.644779	 -1.131878
H	 3.305899	 0.433456	 0.155466
H	 3.125548	 -1.294566	 0.467107

	symmetry c1
}
set optking {
	frozen_dihedral = ("
		3 6 7 11,
		7 10 13 14
	")
}

ee = energy('scf')
oeprop('DIPOLE', 'QUADRUPOLE', 'MULLIKEN_CHARGES')
f=open( 'psi4out.xyz', 'w' )
f.write( "16  " )
f.write( str(ee) + "\n" )
f.write( MOL.save_string_xyz() )
f.close()
--------------------------------------------------------------------------

    Molecular point group: c1

    Geometry (in Angstrom), charge = 0, multiplicity = 1:

       Center              X                  Y                   Z               Mass
    ------------   -----------------  -----------------  -----------------  -----------------
           H         -2.852948514868     0.718938941066    -1.194433025482     1.007825032070
           C         -2.107448514868    -0.066861058934    -1.298784025482    12.000000000000
           O         -1.520404514868    -0.377034058934    -0.076282025482    15.994914619560
           H         -2.591237514868    -0.961970058934    -1.664667025482     1.007825032070
           H         -1.366243514868     0.255545941066    -2.028919025482     1.007825032070
           C         -0.847512514868     0.686748941066     0.519394974518    12.000000000000
           C          0.591922485132     0.686740941066     0.060883974518    12.000000000000
           H         -1.312835514868     1.632726941066     0.239580974518     1.007825032070
           H         -0.878325514868     0.605601941066     1.604046974518     1.007825032070
           O          1.264813485132    -0.377033058934     0.656580974518    15.994914619560
           H          0.622736485132     0.605564941066    -1.023767025482     1.007825032070
           H          1.057245485132     1.632723941066     0.340676974518     1.007825032070
           C          2.579167485132    -0.531506058934     0.227741974518    12.000000000000
           H          2.628761485132    -0.726414058934    -0.841727025482     1.007825032070
           H          3.178101485132     0.351820941066     0.445616974518     1.007825032070
           H          2.997750485132    -1.376201058934     0.757257974518     1.007825032070

  Charge       = 0
  Multiplicity = 1
  Basis Set: 6-31G*
  Basis Set:

    Orbital Energies (a.u.)
    -----------------------

    Doubly Occupied:

       1A    -20.554579     2A    -20.553181     3A    -11.269323
       4A    -11.267585     5A    -11.266534     6A    -11.264557
       7A     -1.389948     8A     -1.371325     9A     -1.028403
      10A     -0.941479    11A     -0.898477    12A     -0.819769
      13A     -0.690989    14A     -0.679307    15A     -0.658088
      16A     -0.637679    17A     -0.623408    18A     -0.604045
      19A     -0.553892    20A     -0.528020    21A     -0.516532
      22A     -0.485615    23A     -0.465999    24A     -0.415984
      25A     -0.408666

  @DF-RHF Final Energy:  -306.97305335095677

   => Energetics <=

    Nuclear Repulsion Energy =            261.8702851522099309
    One-Electron Energy =                -937.8999817416513451
    Two-Electron Energy =                 369.0566432384845825
    DFT Exchange-Correlation Energy =       0.0000000000000000
    Empirical Dispersion Energy =           0.0000000000000000
    PCM Polarization Energy =               0.0000000000000000
    EFP Energy =                            0.0000000000000000
    Total Energy =                       -306.9730533509568318

  Mulliken Charges: (a.u.)
   Center  Symbol    Alpha    Beta     Spin     Total
       1     H     0.42908  0.42908  0.00000  0.14184
       2     C     3.08169  3.08169  0.00000 -0.16337
       3     O     4.29764  4.29764  0.00000 -0.59527
       4     H     0.40988  0.40988  0.00000  0.18024
       5     H     0.43276  0.43276  0.00000  0.13447
       6     C     3.00519  3.00519  0.00000 -0.01037
       7     C     2.99089  2.99089  0.00000  0.01821
       8     H     0.43114  0.43114  0.00000  0.13773
       9     H     0.40627  0.40627  0.00000  0.18745
      10     O     4.29973  4.29973  0.00000 -0.59947
      11     H     0.43018  0.43018  0.00000  0.13965
      12     H     0.43467  0.43467  0.00000  0.13067
      13     C     3.07905  3.07905  0.00000 -0.15810
      14     H     0.42957  0.42957  0.00000  0.14087
      15     H     0.43153  0.43153  0.00000  0.13694
      16     H     0.41074  0.41074  0.00000  0.17851

   Total alpha = 25.00000, Total beta = 25.00000, Total charge =  0.00000
