                              Psi4 1.0.54 Driver

  ==> Input File <==

--------------------------------------------------------------------------
set {
	reference rhf
	basis cc-pvtz
}

set_num_threads( 4 )
memory 2 gb

molecule MOL {
0 1

H	 0.023433	 1.810586	 1.869998
C	 0.869984	 1.206960	 1.516954
C	 0.692262	 0.592428	 0.156232
O	 1.828017	 1.077009	 2.197336
C	 -0.554654	 -0.292621	 0.086567
H	 1.586347	 0.033685	 -0.087191
H	 0.597066	 1.406979	 -0.558836
C	 -1.846385	 0.513195	 -0.016346
H	 -0.473986	 -0.956115	 -0.769708
H	 -0.597929	 -0.929215	 0.966651
C	 -3.089953	 -0.365049	 -0.098564
H	 -1.798267	 1.154820	 -0.891143
H	 -1.925398	 1.173265	 0.842889
H	 -3.055079	 -1.012299	 -0.968245
H	 -3.988403	 0.236438	 -0.170014
H	 -3.183055	 -0.995885	 0.779079

	symmetry c1
}
set optking {
	frozen_dihedral = ("
		6 3 5 9
	")
}

ee,wfn = optimize('scf', return_wfn=True)
oeprop( wfn, 'DIPOLE', 'QUADRUPOLE', 'MULLIKEN_CHARGES')
f=open( 'psi4out.xyz', 'w' )
f.write( "16  " )
f.write( str(ee) + "\n" )
f.write( MOL.save_string_xyz() )
f.close()
--------------------------------------------------------------------------

    Molecular point group: c1
  Charge       = 0
  Multiplicity = 1
  Basis Set: CC-PVTZ
  Basis Set:
  @DF-RHF Final Energy:  -270.11632033598562
    Total Energy =                       -270.1163203359855061
    Molecular point group: c1
  Basis Set: CC-PVTZ
  Basis Set:
  Basis Set: CC-PVTZ
  Basis Set:
  @DF-RHF Final Energy:  -270.11669826313721
    Total Energy =                       -270.1166982631372093
  Basis Set: CC-PVTZ
  Basis Set:
  Basis Set: CC-PVTZ
  Basis Set:
  @DF-RHF Final Energy:  -270.11675230039873
    Total Energy =                       -270.1167523003986730
  Basis Set: CC-PVTZ
  Basis Set:
  Basis Set: CC-PVTZ
  Basis Set:
  @DF-RHF Final Energy:  -270.11672612300504
    Total Energy =                       -270.1167261230049803
  Basis Set: CC-PVTZ
  Basis Set:
  @DF-RHF Final Energy:  -270.11675700790289
    Total Energy =                       -270.1167570079029474
  Basis Set: CC-PVTZ
  Basis Set:
  @DF-RHF Final Energy:  -270.11676112609479
    Total Energy =                       -270.1167611260947865
  Basis Set: CC-PVTZ
  Basis Set:
  Basis Set: CC-PVTZ
  Basis Set:
  @DF-RHF Final Energy:  -270.11676415772160
    Total Energy =                       -270.1167641577216045
  Basis Set: CC-PVTZ
  Basis Set:
  Basis Set: CC-PVTZ
  Basis Set:
  @DF-RHF Final Energy:  -270.11676549828496
    Total Energy =                       -270.1167654982851332
  Basis Set: CC-PVTZ
  Basis Set:
  Charge       = 0
  Multiplicity = 1
  Basis Set: CC-PVTZ
  Basis Set:

    Orbital Energies (a.u.)
    -----------------------

    Doubly Occupied:

       1A    -20.551335     2A    -11.320634     3A    -11.234596
       4A    -11.233865     5A    -11.229188     6A    -11.217903
       7A     -1.405977     8A     -1.097448     9A     -1.018896
      10A     -0.906246    11A     -0.827262    12A     -0.784720
      13A     -0.676500    14A     -0.657948    15A     -0.618934
      16A     -0.606443    17A     -0.583212    18A     -0.559003
      19A     -0.537017    20A     -0.513426    21A     -0.488273
      22A     -0.481868    23A     -0.475173    24A     -0.410864

  @DF-RHF Final Energy:  -270.11676573394919

   => Energetics <=

    Nuclear Repulsion Energy =            231.6700660612291927
    One-Electron Energy =                -824.7002041978730631
    Two-Electron Energy =                 322.9133724026946766
    DFT Exchange-Correlation Energy =       0.0000000000000000
    Empirical Dispersion Energy =           0.0000000000000000
    PCM Polarization Energy =               0.0000000000000000
    EFP Energy =                            0.0000000000000000
    Total Energy =                       -270.1167657339492507
    Molecular point group: c1
  Basis Set: CC-PVTZ
  Basis Set:

  -Total Gradient:
     Atom            X                  Y                   Z
    ------   -----------------  -----------------  -----------------
       1        0.000009827826     0.000010519290    -0.000005097848
       2       -0.000004581569     0.000002273567    -0.000013904506
       3        0.000205134380    -0.000409479794     0.001125838654
       4       -0.000005352707    -0.000011722777     0.000009667871
       5       -0.000460868938     0.000757965398    -0.000763628200
       6       -0.000093387863     0.000228409806    -0.000812887562
       7       -0.000010063700     0.000001951891     0.000001872390
       8       -0.000000718136    -0.000000045810     0.000011661355
       9        0.000369022016    -0.000581129266     0.000456224304
      10       -0.000003044239     0.000002054271    -0.000004016356
      11       -0.000002491364     0.000000150568    -0.000001793538
      12       -0.000001258988    -0.000007796665    -0.000001271503
      13       -0.000000521503     0.000003582127    -0.000000733481
      14       -0.000000613722     0.000000156221     0.000000516089
      15       -0.000003994775     0.000000954330     0.000000827573
      16        0.000002913287     0.000002156845    -0.000003275238

  **** Optimization is complete! (in 9 steps) ****
    Final optimized geometry and variables:
    Molecular point group: c1

    Geometry (in Angstrom), charge = 0, multiplicity = 1:

    H            0.429597920411     1.304697247795     1.308020507720
    C            1.265824687834     0.736681386386     0.884327393369
    C            1.036475462480     0.142117829421    -0.478866146116
    O            2.270262047869     0.625081425769     1.499142114508
    C           -0.231600420759    -0.720374770458    -0.563364486680
    H            1.914801499768    -0.432384556780    -0.739535446173
    H            0.961365240303     0.965234098931    -1.186576425234
    C           -1.537706104847     0.067858539446    -0.645817604218
    H           -0.146784278278    -1.355824602085    -1.438270793857
    H           -0.265114378616    -1.394593929428     0.288570772285
    C           -2.762930310340    -0.834715322535    -0.743799122752
    H           -1.501647994197     0.723015356546    -1.511667654437
    H           -1.641824932627     0.713987207532     0.220225821695
    H           -2.710122336870    -1.470838392623    -1.620841331006
    H           -3.673581051475    -0.251540140814    -0.812069515303
    H           -2.845921785376    -1.477748515343     0.125725930929

  Mulliken Charges: (a.u.)
   Center  Symbol    Alpha    Beta     Spin     Total
       1     H     0.46376  0.46376  0.00000  0.07248
       2     C     2.90239  2.90239  0.00000  0.19521
       3     C     3.08845  3.08845  0.00000 -0.17690
       4     O     4.16591  4.16591  0.00000 -0.33181
       5     C     3.10744  3.10744  0.00000 -0.21487
       6     H     0.43640  0.43640  0.00000  0.12719
       7     H     0.45077  0.45077  0.00000  0.09846
       8     C     3.08690  3.08690  0.00000 -0.17380
       9     H     0.44364  0.44364  0.00000  0.11271
      10     H     0.44706  0.44706  0.00000  0.10589
      11     C     3.14870  3.14870  0.00000 -0.29740
      12     H     0.45244  0.45244  0.00000  0.09512
      13     H     0.45322  0.45322  0.00000  0.09355
      14     H     0.45334  0.45334  0.00000  0.09332
      15     H     0.44653  0.44653  0.00000  0.10694
      16     H     0.45303  0.45303  0.00000  0.09393

   Total alpha = 24.00000, Total beta = 24.00000, Total charge =  0.00000

*** Psi4 exiting successfully. Buy a developer a beer!
