  ==> Input File <==

--------------------------------------------------------------------------
set {
	reference rhf
	basis 6-31G*
}

set_num_threads( 4 )
memory 2 gb

molecule MOL {
0 1

H	 -1.762381	 2.045561	 0.861715
C	 -1.944391	 1.063688	 1.281410
C	 -0.656213	 0.252355	 1.352799
H	 -2.679049	 0.571862	 0.655577
H	 -2.367341	 1.188146	 2.272822
C	 -0.000005	 0.033229	 -0.000001
H	 -0.839004	 -0.723574	 1.798384
H	 0.069645	 0.737170	 2.002784
C	 1.290528	 -0.768786	 0.000276
O	 -0.471852	 0.466626	 -1.006337
C	 2.545731	 0.095645	 -0.000061
H	 1.275672	 -1.427874	 -0.865626
H	 1.275566	 -1.427086	 0.866768
H	 2.577157	 0.734767	 -0.874036
H	 3.433520	 -0.528139	 0.000137
H	 2.577172	 0.735117	 0.873581

	symmetry c1
}
set optking {
	frozen_dihedral = ("
		3 6 9 12
	")
}

ee = optimize('scf')
oeprop('DIPOLE', 'QUADRUPOLE', 'MULLIKEN_CHARGES')
f=open( 'psi4out.xyz', 'w' )
f.write( "16  " )
f.write( str(ee) + "\n" )
f.write( MOL.save_string_xyz() )
f.close()
--------------------------------------------------------------------------

    Molecular point group: c1
  Charge       = 0
  Multiplicity = 1
  Basis Set: 6-31G*
  Basis Set:
  @DF-RHF Final Energy:  -270.03046164104683
    Total Energy =                       -270.0304616410468839
    Molecular point group: c1
  Basis Set: 6-31G*
  Basis Set:
  Basis Set: 6-31G*
  Basis Set:
  @DF-RHF Final Energy:  -270.03091683754758
    Total Energy =                       -270.0309168375474655
  Basis Set: 6-31G*
  Basis Set:
  Basis Set: 6-31G*
  Basis Set:
  @DF-RHF Final Energy:  -270.03128439533850
    Total Energy =                       -270.0312843953383890
  Basis Set: 6-31G*
  Basis Set:
  Basis Set: 6-31G*
  Basis Set:
  @DF-RHF Final Energy:  -270.03137181272405
    Total Energy =                       -270.0313718127241600
  Basis Set: 6-31G*
  Basis Set:
  Basis Set: 6-31G*
  Basis Set:
  @DF-RHF Final Energy:  -270.03137433713272
    Total Energy =                       -270.0313743371327178
  Basis Set: 6-31G*
  Basis Set:
  Charge       = 0
  Multiplicity = 1
  Basis Set: 6-31G*
  Basis Set:

    Orbital Energies (a.u.)
    -----------------------

    Doubly Occupied:

       1A    -20.548553     2A    -11.322817     3A    -11.234286
       4A    -11.232057     5A    -11.226589     6A    -11.213308
       7A     -1.394317     8A     -1.070789     9A     -1.036789
      10A     -0.912345    11A     -0.854379    12A     -0.726576
      13A     -0.664460    14A     -0.642705    15A     -0.623728
      16A     -0.600910    17A     -0.566561    18A     -0.538361
      19A     -0.530894    20A     -0.511554    21A     -0.502900
      22A     -0.498112    23A     -0.477087    24A     -0.396239

  @DF-RHF Final Energy:  -270.03137489962842

   => Energetics <=

    Nuclear Repulsion Energy =            240.5143623334748213
    One-Electron Energy =                -842.4388413538716804
    Two-Electron Energy =                 331.8931041207681574
    DFT Exchange-Correlation Energy =       0.0000000000000000
    Empirical Dispersion Energy =           0.0000000000000000
    PCM Polarization Energy =               0.0000000000000000
    EFP Energy =                            0.0000000000000000
    Total Energy =                       -270.0313748996286449
    Molecular point group: c1
  Basis Set: 6-31G*
  Basis Set:

  -Total Gradient:
     Atom            X                  Y                   Z
    ------   -----------------  -----------------  -----------------
       1       -0.000001951283    -0.000002793298    -0.000001258277
       2        0.000002195505     0.000014384942     0.000011180035
       3        0.000054099572     0.000068720101    -0.000014102200
       4        0.000007184763    -0.000002482756     0.000003300319
       5       -0.000003613824     0.000004205712     0.000001304543
       6       -0.000016185686    -0.000120162944    -0.000032901627
       7        0.000004205189    -0.000004642993     0.000008217998
       8       -0.000006677069     0.000000719392    -0.000001674055
       9       -0.000000785318    -0.000076263605     0.000154572358
      10       -0.000034926943     0.000018634865    -0.000040401427
      11       -0.000006251389     0.000013398282    -0.000006455424
      12        0.000043826323     0.000121325298    -0.000078458198
      13       -0.000004688518    -0.000012306351     0.000004646021
      14       -0.000004074406    -0.000000614743    -0.000002200583
      15       -0.000020580507    -0.000015265558    -0.000004565642
      16       -0.000011776411    -0.000006856344    -0.000001203840

  **** Optimization is complete! (in 6 steps) ****
    Final optimized geometry and variables:
    Molecular point group: c1

    Geometry (in Angstrom), charge = 0, multiplicity = 1:

    H           -1.757735996858     1.906697467843     0.637802172506
    C           -2.037340405147     0.923425471982     0.997081102662
    C           -0.823103419114     0.007426453623     1.081577284704
    H           -2.776333120028     0.524032418598     0.313675292249
    H           -2.497082267849     1.034466316950     1.973603315612
    C           -0.128799097630    -0.211875380378    -0.248814488358
    H           -1.103120944197    -0.972324556953     1.466095446276
    H           -0.088906620298     0.394292338372     1.786226623719
    C            1.174917518823    -0.992740655704    -0.231415020981
    O           -0.563672294150     0.223853653189    -1.271502284066
    C            2.377656081873    -0.042487059395    -0.304217898347
    H            1.177062353846    -1.646753996209    -1.095860018079
    H            1.240615855192    -1.608822531997     0.659997347445
    H            2.328578961401     0.560884227241    -1.202803107106
    H            3.304624974942    -0.604947267068    -0.320528882913
    H            2.410703274126     0.625304161210     0.551507349283

  Mulliken Charges: (a.u.)
   Center  Symbol    Alpha    Beta     Spin     Total
       1     H     0.41188  0.41188  0.00000  0.17624
       2     C     3.23530  3.23530  0.00000 -0.47060
       3     C     3.20946  3.20946  0.00000 -0.41892
       4     H     0.40895  0.40895  0.00000  0.18209
       5     H     0.42006  0.42006  0.00000  0.15989
       6     C     2.73556  2.73556  0.00000  0.52888
       7     H     0.40751  0.40751  0.00000  0.18498
       8     H     0.40981  0.40981  0.00000  0.18038
       9     C     3.19707  3.19707  0.00000 -0.39414
      10     O     4.26533  4.26533  0.00000 -0.53066
      11     C     3.24765  3.24765  0.00000 -0.49530
      12     H     0.40051  0.40051  0.00000  0.19898
      13     H     0.41566  0.41566  0.00000  0.16868
      14     H     0.40419  0.40419  0.00000  0.19163
      15     H     0.41244  0.41244  0.00000  0.17511
      16     H     0.41862  0.41862  0.00000  0.16276

   Total alpha = 24.00000, Total beta = 24.00000, Total charge = -0.00000
