  ==> Input File <==

--------------------------------------------------------------------------
set {
	reference rhf
	basis 6-31G*
}

set_num_threads( 1 )
memory 2 gb

molecule MOL {
0 1

O	 -0.655917	 -0.072580	 0.225741
C	 0.486307	 0.169203	 0.000779
C	 1.608116	 -0.841643	 0.000302
O	 0.933273	 1.384636	 -0.283039
C	 2.990107	 -0.200498	 -0.000684
H	 1.468623	 -1.481519	 -0.865924
H	 1.469683	 -1.481289	 0.866878
H	 3.129736	 0.423364	 -0.875135
H	 3.757882	 -0.966877	 -0.001197
H	 3.130964	 0.423383	 0.873533
C	 -0.017604	 2.443916	 -0.317093
C	 0.731230	 3.715210	 -0.656752
H	 -0.504218	 2.511909	 0.646323
H	 -0.773536	 2.215570	 -1.056022
H	 1.488183	 3.927001	 0.089790
H	 0.041138	 4.551927	 -0.693174
H	 1.217387	 3.629169	 -1.621897

	symmetry c1
}
set optking {
	frozen_dihedral = ("
		2 4 11 13,
		11 4 2 3
	")
}

ee = energy('scf')
oeprop('DIPOLE', 'QUADRUPOLE', 'MULLIKEN_CHARGES')
f=open( 'psi4out.xyz', 'w' )
f.write( "17  " )
f.write( str(ee) + "\n" )
f.write( MOL.save_string_xyz() )
f.close()
--------------------------------------------------------------------------

    Molecular point group: c1

    Geometry (in Angstrom), charge = 0, multiplicity = 1:

       Center              X                  Y                   Z               Mass
    ------------   -----------------  -----------------  -----------------  -----------------
           O         -1.523503444238    -1.035473913095     0.375203113168    15.994914619560
           C         -0.381279444238    -0.793690913095     0.150241113168    12.000000000000
           C          0.740529555762    -1.804536913095     0.149764113168    12.000000000000
           O          0.065686555762     0.421742086905    -0.133576886832    15.994914619560
           C          2.122520555762    -1.163391913095     0.148778113168    12.000000000000
           H          0.601036555762    -2.444412913095    -0.716461886832     1.007825032070
           H          0.602096555762    -2.444182913095     1.016340113168     1.007825032070
           H          2.262149555762    -0.539529913095    -0.725672886832     1.007825032070
           H          2.890295555762    -1.929770913095     0.148265113168     1.007825032070
           H          2.263377555762    -0.539510913095     1.022995113168     1.007825032070
           C         -0.885190444238     1.481022086905    -0.167630886832    12.000000000000
           C         -0.136356444238     2.752316086905    -0.507289886832    12.000000000000
           H         -1.371804444238     1.549015086905     0.795785113168     1.007825032070
           H         -1.641122444238     1.252676086905    -0.906559886832     1.007825032070
           H          0.620596555762     2.964107086905     0.239252113168     1.007825032070
           H         -0.826448444238     3.589033086905    -0.543711886832     1.007825032070
           H          0.349800555762     2.666275086905    -1.472434886832     1.007825032070

  Charge       = 0
  Multiplicity = 1
  Basis Set: 6-31G*
  Basis Set:

    Orbital Energies (a.u.)
    -----------------------

    Doubly Occupied:

       1A    -20.602663     2A    -20.541204     3A    -11.371602
       4A    -11.285291     5A    -11.237452     6A    -11.223120
       7A    -11.217992     8A     -1.468224     9A     -1.360961
      10A     -1.075202    11A     -1.029012    12A     -0.902802
      13A     -0.861024    14A     -0.778017    15A     -0.690875
      16A     -0.680944    17A     -0.671984    18A     -0.629481
      19A     -0.573712    20A     -0.569759    21A     -0.551855
      22A     -0.548341    23A     -0.522550    24A     -0.518037
      25A     -0.505350    26A     -0.491336    27A     -0.450298
      28A     -0.430536

  @DF-RHF Final Energy:  -344.90823595109367

   => Energetics <=

    Nuclear Repulsion Energy =            319.3280024418319840
    One-Electron Energy =               -1102.8932575381397783
    Two-Electron Energy =                 438.6570191452127574
    DFT Exchange-Correlation Energy =       0.0000000000000000
    Empirical Dispersion Energy =           0.0000000000000000
    PCM Polarization Energy =               0.0000000000000000
    EFP Energy =                            0.0000000000000000
    Total Energy =                       -344.9082359510949800

  Mulliken Charges: (a.u.)
   Center  Symbol    Alpha    Beta     Spin     Total
       1     O     4.28854  4.28854  0.00000 -0.57708
       2     C     2.60226  2.60226  0.00000  0.79547
       3     C     3.21121  3.21121  0.00000 -0.42242
       4     O     4.31184  4.31184  0.00000 -0.62368
       5     C     3.23770  3.23770  0.00000 -0.47539
       6     H     0.39839  0.39839  0.00000  0.20322
       7     H     0.39771  0.39771  0.00000  0.20458
       8     H     0.40939  0.40939  0.00000  0.18122
       9     H     0.41799  0.41799  0.00000  0.16403
      10     H     0.41452  0.41452  0.00000  0.17096
      11     C     3.00194  3.00194  0.00000 -0.00387
      12     C     3.24881  3.24881  0.00000 -0.49762
      13     H     0.40973  0.40973  0.00000  0.18054
      14     H     0.40993  0.40993  0.00000  0.18013
      15     H     0.41194  0.41194  0.00000  0.17611
      16     H     0.41596  0.41596  0.00000  0.16809
      17     H     0.41214  0.41214  0.00000  0.17571

   Total alpha = 28.00000, Total beta = 28.00000, Total charge = -0.00000
