                              Psi4 1.0.54 Driver

  ==> Input File <==

--------------------------------------------------------------------------
set {
	reference rhf
	basis cc-pvtz
}

set_num_threads( 4 )
memory 2 gb

molecule MOL {
0 1

H	 -3.941973	 0.934228	 -0.390224
C	 -3.240162	 0.342701	 0.161016
C	 -2.105997	 -0.000418	 -0.398703
H	 -3.485368	 0.047206	 1.162193
O	 -1.189946	 -0.765863	 0.237511
H	 -1.846458	 0.297311	 -1.398265
C	 0.026572	 -0.995256	 -0.379403
C	 1.057223	 0.049888	 -0.004615
H	 -0.054361	 -1.010670	 -1.459674
H	 0.397526	 -1.952058	 -0.044198
F	 2.135641	 -0.545504	 0.464004
F	 1.419939	 0.775498	 -1.040681
F	 0.615754	 0.868343	 0.919341

	symmetry c1
}
set optking {
	frozen_dihedral = ("
		11 8 7 9
	")
}

ee,wfn = optimize('scf', return_wfn=True)
oeprop( wfn, 'DIPOLE', 'QUADRUPOLE', 'MULLIKEN_CHARGES')
f=open( 'psi4out.xyz', 'w' )
f.write( "13  " )
f.write( str(ee) + "\n" )
f.write( MOL.save_string_xyz() )
f.close()
--------------------------------------------------------------------------

    Molecular point group: c1
  Charge       = 0
  Multiplicity = 1
  Basis Set: CC-PVTZ
  Basis Set:
  @DF-RHF Final Energy:  -527.73482932575007
    Total Energy =                       -527.7348293257500700
    Molecular point group: c1
  Basis Set: CC-PVTZ
  Basis Set:
  Basis Set: CC-PVTZ
  Basis Set:
  @DF-RHF Final Energy:  -527.73539269453636
    Total Energy =                       -527.7353926945361309
  Basis Set: CC-PVTZ
  Basis Set:
  Basis Set: CC-PVTZ
  Basis Set:
  @DF-RHF Final Energy:  -527.73565568246033
    Total Energy =                       -527.7356556824601057
  Basis Set: CC-PVTZ
  Basis Set:
  Basis Set: CC-PVTZ
  Basis Set:
  @DF-RHF Final Energy:  -527.73568856432166
    Total Energy =                       -527.7356885643218902
  Basis Set: CC-PVTZ
  Basis Set:
  Basis Set: CC-PVTZ
  Basis Set:
  @DF-RHF Final Energy:  -527.73571170244418
    Total Energy =                       -527.7357117024446325
  Basis Set: CC-PVTZ
  Basis Set:
  Basis Set: CC-PVTZ
  Basis Set:
  @DF-RHF Final Energy:  -527.73571557621608
    Total Energy =                       -527.7357155762163075
  Basis Set: CC-PVTZ
  Basis Set:
  Charge       = 0
  Multiplicity = 1
  Basis Set: CC-PVTZ
  Basis Set:

    Orbital Energies (a.u.)
    -----------------------

    Doubly Occupied:

       1A    -26.339728     2A    -26.339155     3A    -26.338921
       4A    -20.602769     5A    -11.499453     6A    -11.319793
       7A    -11.298172     8A    -11.214823     9A     -1.750423
      10A     -1.645906    11A     -1.644678    12A     -1.443730
      13A     -1.083679    14A     -1.019181    15A     -0.932275
      16A     -0.843398    17A     -0.837514    18A     -0.827677
      19A     -0.797472    20A     -0.728962    21A     -0.723093
      22A     -0.701099    23A     -0.680450    24A     -0.668394
      25A     -0.662135    26A     -0.649650    27A     -0.634655
      28A     -0.587231    29A     -0.565481    30A     -0.527896
      31A     -0.516399    32A     -0.357406

  @DF-RHF Final Energy:  -527.73571651860743

   => Energetics <=

    Nuclear Repulsion Energy =            413.4445583835868661
    One-Electron Energy =               -1550.7973609071757437
    Two-Electron Energy =                 609.6170860049815019
    DFT Exchange-Correlation Energy =       0.0000000000000000
    Empirical Dispersion Energy =           0.0000000000000000
    PCM Polarization Energy =               0.0000000000000000
    EFP Energy =                            0.0000000000000000
    Total Energy =                       -527.7357165186074326
    Molecular point group: c1
  Basis Set: CC-PVTZ
  Basis Set:

  -Total Gradient:
     Atom            X                  Y                   Z
    ------   -----------------  -----------------  -----------------
       1       -0.000012039571    -0.000035897343    -0.000009613861
       2       -0.000001103807    -0.000005299168     0.000010718652
       3        0.000046457231     0.000115115853     0.000076924704
       4        0.000006176661     0.000012103148    -0.000025788694
       5       -0.000088751884    -0.000028829719    -0.000012839676
       6       -0.000013175049    -0.000046936910    -0.000002438712
       7        0.001627067192    -0.001580715992     0.000367489739
       8        0.000446550848     0.000093699308    -0.001876932210
       9       -0.001447360807     0.001320769404     0.000054533028
      10       -0.000000117949    -0.000002828193    -0.000017517203
      11       -0.000644340494     0.000132441077     0.001535830271
      12        0.000041504678     0.000051962630    -0.000089566739
      13        0.000039132946    -0.000025584100    -0.000010799300

  **** Optimization is complete! (in 7 steps) ****
    Final optimized geometry and variables:
    Molecular point group: c1

    Geometry (in Angstrom), charge = 0, multiplicity = 1:

    H           -3.865021010998     1.011000075381    -0.351404313566
    C           -3.209608443019     0.343228695877     0.169031194134
    C           -2.064986662863     0.008291104817    -0.373935278496
    H           -3.509588464740    -0.035504314991     1.126297053923
    O           -1.205930718748    -0.851222954970     0.219211683259
    H           -1.752998250095     0.388174215232    -1.330798720649
    C            0.033472895112    -1.037656974132    -0.365598930268
    C            1.048185433509     0.062199936834    -0.008194978317
    H           -0.044504565213    -1.075413259712    -1.444794737108
    H            0.420932131637    -1.975011515842    -0.002522774089
    F            2.154904091181    -0.464376066129     0.475153586950
    F            1.387040860167     0.765455968082    -1.072569668054
    F            0.585962942319     0.899149336666     0.884650880431

  Mulliken Charges: (a.u.)
   Center  Symbol    Alpha    Beta     Spin     Total
       1     H     0.42535  0.42535  0.00000  0.14930
       2     C     3.19495  3.19495  0.00000 -0.38990
       3     C     2.96036  2.96036  0.00000  0.07928
       4     H     0.42479  0.42479  0.00000  0.15043
       5     O     4.13898  4.13898  0.00000 -0.27796
       6     H     0.43412  0.43412  0.00000  0.13175
       7     C     3.03289  3.03289  0.00000 -0.06578
       8     C     2.67328  2.67328  0.00000  0.65344
       9     H     0.45516  0.45516  0.00000  0.08967
      10     H     0.43383  0.43383  0.00000  0.13234
      11     F     4.61053  4.61053  0.00000 -0.22106
      12     F     4.61328  4.61328  0.00000 -0.22655
      13     F     4.60249  4.60249  0.00000 -0.20497

   Total alpha = 32.00000, Total beta = 32.00000, Total charge = -0.00000

*** Psi4 exiting successfully. Buy a developer a beer!
