  ==> Input File <==

--------------------------------------------------------------------------
set {
	reference rhf
	basis cc-pvtz
}

set_num_threads( 4 )
memory 2 gb

molecule MOL {
0 1

H	 -2.989258	 2.087378	 0.425204
C	 -2.324435	 2.083571	 1.285947
O	 -0.997564	 1.941636	 0.902790
H	 -2.420143	 3.027059	 1.803207
H	 -2.634850	 1.284346	 1.956594
C	 -0.718530	 0.758693	 0.228682
C	 0.718529	 0.758687	 -0.228709
H	 -0.880083	 -0.096588	 0.884704
H	 -1.368957	 0.645732	 -0.635966
O	 1.401606	 -0.295166	 0.366636
H	 0.748705	 0.673477	 -1.312803
H	 1.176496	 1.708671	 0.046552
C	 2.714315	 -0.441627	 -0.061017
H	 2.765292	 -0.641548	 -1.128869
H	 3.305661	 0.447341	 0.150952
H	 3.143725	 -1.278506	 0.470147

	symmetry c1
}
set optking {
	frozen_dihedral = ("
		3 6 7 11
	")
}

ee = optimize('scf')
oeprop('DIPOLE', 'QUADRUPOLE', 'MULLIKEN_CHARGES')
f=open( 'psi4out.xyz', 'w' )
f.write( "16  " )
f.write( str(ee) + "\n" )
f.write( MOL.save_string_xyz() )
f.close()
--------------------------------------------------------------------------

    Molecular point group: c1
  Charge       = 0
  Multiplicity = 1
  Basis Set: CC-PVTZ
  Basis Set:
  @DF-RHF Final Energy:  -307.09357882630269
    Total Energy =                       -307.0935788263026325
    Molecular point group: c1
  Basis Set: CC-PVTZ
  Basis Set:
  Basis Set: CC-PVTZ
  Basis Set:
  @DF-RHF Final Energy:  -307.09410104222513
    Total Energy =                       -307.0941010422250770
  Basis Set: CC-PVTZ
  Basis Set:
  Basis Set: CC-PVTZ
  Basis Set:
  @DF-RHF Final Energy:  -307.09416637840616
    Total Energy =                       -307.0941663784061575
  Basis Set: CC-PVTZ
  Basis Set:
  Charge       = 0
  Multiplicity = 1
  Basis Set: CC-PVTZ
  Basis Set:

    Orbital Energies (a.u.)
    -----------------------

    Doubly Occupied:

       1A    -20.550772     2A    -20.550724     3A    -11.266630
       4A    -11.265999     5A    -11.263149     6A    -11.263131
       7A     -1.390658     8A     -1.378293     9A     -1.028665
      10A     -0.940070    11A     -0.886376    12A     -0.831451
      13A     -0.688113    14A     -0.679857    15A     -0.659166
      16A     -0.644373    17A     -0.629808    18A     -0.600215
      19A     -0.556139    20A     -0.529676    21A     -0.509018
      22A     -0.482885    23A     -0.467187    24A     -0.424573
      25A     -0.414014

  @DF-RHF Final Energy:  -307.09417077187561

   => Energetics <=

    Nuclear Repulsion Energy =            255.6643960138929970
    One-Electron Energy =                -925.7152519537737589
    Two-Electron Energy =                 362.9566851680052082
    DFT Exchange-Correlation Energy =       0.0000000000000000
    Empirical Dispersion Energy =           0.0000000000000000
    PCM Polarization Energy =               0.0000000000000000
    EFP Energy =                            0.0000000000000000
    Total Energy =                       -307.0941707718755538
    Molecular point group: c1
  Basis Set: CC-PVTZ
  Basis Set:

  -Total Gradient:
     Atom            X                  Y                   Z
    ------   -----------------  -----------------  -----------------
       1       -0.000008307667    -0.000009835988     0.000006238656
       2        0.000019959413     0.000079698148     0.000011037417
       3       -0.000071629170    -0.000051230308    -0.000294709973
       4       -0.000033615514    -0.000003618202     0.000019487964
       5       -0.000002769971    -0.000001200840    -0.000000358696
       6        0.000060343896     0.000147064807     0.000375215763
       7        0.000057401528    -0.000591535958     0.000031912433
       8        0.000012666719    -0.000011337020    -0.000004897928
       9       -0.000014313016    -0.000032834667    -0.000035088408
      10       -0.000034131034     0.000139175601    -0.000068517883
      11       -0.000012511692     0.000379866641    -0.000066275850
      12       -0.000013951522     0.000012062647    -0.000000246364
      13       -0.000012031564    -0.000072586323     0.000034091756
      14        0.000010676563     0.000009984364    -0.000001483963
      15        0.000003185901     0.000001817483    -0.000002086882
      16        0.000039027128     0.000004509622    -0.000004318041

  **** Optimization is complete! (in 4 steps) ****
    Final optimized geometry and variables:
    Molecular point group: c1

    Geometry (in Angstrom), charge = 0, multiplicity = 1:

    H           -3.153856473077     1.237093166940     0.122347075280
    C           -2.421927267540     1.282563687384     0.926244978974
    O           -1.125569348172     1.164730718653     0.442010843085
    H           -2.505794862790     2.240478576920     1.418571620750
    H           -2.651655792091     0.498257327530     1.643941942577
    C           -0.871046687829    -0.034314029221    -0.222587240544
    C            0.581983192249    -0.058928964459    -0.682963611529
    H           -1.037625709052    -0.880687601787     0.436472534808
    H           -1.546013196771    -0.132932508448    -1.070200241188
    O            1.241603372590    -1.128186148825    -0.078543974582
    H            0.642870446837    -0.153122474538    -1.765148905422
    H            1.045590284783     0.882675999069    -0.405352671633
    C            2.586005148507    -1.229090090722    -0.412225251395
    H            2.721841850138    -1.374110490372    -1.482053643579
    H            3.137975592301    -0.340693963872    -0.113753091974
    H            2.993305989499    -2.083419477202     0.108586439521

  Mulliken Charges: (a.u.)
   Center  Symbol    Alpha    Beta     Spin     Total
       1     H     0.47244  0.47244  0.00000  0.05512
       2     C     3.02903  3.02903  0.00000 -0.05805
       3     O     4.17340  4.17340  0.00000 -0.34680
       4     H     0.44653  0.44653  0.00000  0.10695
       5     H     0.47072  0.47072  0.00000  0.05856
       6     C     2.96759  2.96759  0.00000  0.06482
       7     C     2.96759  2.96759  0.00000  0.06482
       8     H     0.46504  0.46504  0.00000  0.06993
       9     H     0.47526  0.47526  0.00000  0.04947
      10     O     4.17338  4.17338  0.00000 -0.34675
      11     H     0.47524  0.47524  0.00000  0.04953
      12     H     0.46511  0.46511  0.00000  0.06979
      13     C     3.02904  3.02904  0.00000 -0.05809
      14     H     0.47240  0.47240  0.00000  0.05520
      15     H     0.47072  0.47072  0.00000  0.05856
      16     H     0.44652  0.44652  0.00000  0.10695

   Total alpha = 25.00000, Total beta = 25.00000, Total charge = -0.00000
