                              Psi4 1.0.54 Driver

  ==> Input File <==

--------------------------------------------------------------------------
set {
	reference rhf
	basis cc-pvtz
}

set_num_threads( 4 )
memory 2 gb

molecule MOL {
0 1

H	 -0.000105	 1.988529	 0.748933
O	 -0.000098	 1.879786	 -0.188206
C	 -0.000014	 0.545691	 -0.532416
C	 0.405009	 -0.309768	 0.669218
C	 0.851594	 0.323059	 -1.783405
H	 -1.012244	 0.268841	 -0.788162
F	 -0.442416	 -0.110046	 1.648423
F	 0.404698	 -1.589175	 0.392039
F	 1.603103	 0.014740	 1.105842
F	 0.362452	 1.030476	 -2.771918
F	 0.868844	 -0.931487	 -2.156944
F	 2.094303	 0.710807	 -1.591828

	symmetry c1
}
set optking {
	frozen_dihedral = ("
		6 3 2 1
	")
}

ee,wfn = optimize('scf', return_wfn=True)
oeprop( wfn, 'DIPOLE', 'QUADRUPOLE', 'MULLIKEN_CHARGES')
f=open( 'psi4out.xyz', 'w' )
f.write( "12  " )
f.write( str(ee) + "\n" )
f.write( MOL.save_string_xyz() )
f.close()
--------------------------------------------------------------------------

    Molecular point group: c1
  Charge       = 0
  Multiplicity = 1
  Basis Set: CC-PVTZ
  Basis Set:
  @DF-RHF Final Energy:  -786.58413956696415
    Total Energy =                       -786.5841395669643816
    Molecular point group: c1
  Basis Set: CC-PVTZ
  Basis Set:
  Basis Set: CC-PVTZ
  Basis Set:
  @DF-RHF Final Energy:  -786.58558160221003
    Total Energy =                       -786.5855816022095723
  Basis Set: CC-PVTZ
  Basis Set:
  Basis Set: CC-PVTZ
  Basis Set:
  @DF-RHF Final Energy:  -786.58590837410907
    Total Energy =                       -786.5859083741086124
  Basis Set: CC-PVTZ
  Basis Set:
  Basis Set: CC-PVTZ
  Basis Set:
  @DF-RHF Final Energy:  -786.58596033956246
    Total Energy =                       -786.5859603395629165
  Basis Set: CC-PVTZ
  Basis Set:
  Basis Set: CC-PVTZ
  Basis Set:
  @DF-RHF Final Energy:  -786.58597980611501
    Total Energy =                       -786.5859798061144375
  Basis Set: CC-PVTZ
  Basis Set:
  Basis Set: CC-PVTZ
  Basis Set:
  @DF-RHF Final Energy:  -786.58598442855907
    Total Energy =                       -786.5859844285591862
  Basis Set: CC-PVTZ
  Basis Set:
  Charge       = 0
  Multiplicity = 1
  Basis Set: CC-PVTZ
  Basis Set:

    Orbital Energies (a.u.)
    -----------------------

    Doubly Occupied:

       1A    -26.365512     2A    -26.362797     3A    -26.361379
       4A    -26.351447     5A    -26.348209     6A    -26.347818
       7A    -20.607314     8A    -11.526816     9A    -11.514704
      10A    -11.351736    11A     -1.776506    12A     -1.762013
      13A     -1.671775    14A     -1.669668    15A     -1.657415
      16A     -1.655675    17A     -1.437187    18A     -1.105191
      19A     -1.003067    20A     -0.943420    21A     -0.876721
      22A     -0.868526    23A     -0.863385    24A     -0.849417
      25A     -0.839000    26A     -0.800019    27A     -0.755005
      28A     -0.741191    29A     -0.726301    30A     -0.724812
      31A     -0.713948    32A     -0.695753    33A     -0.691812
      34A     -0.676220    35A     -0.674869    36A     -0.671124
      37A     -0.659230    38A     -0.654050    39A     -0.621075
      40A     -0.549835    41A     -0.507409

  @DF-RHF Final Energy:  -786.58598555986509

   => Energetics <=

    Nuclear Repulsion Energy =            671.2119847247954567
    One-Electron Energy =               -2429.6372370761223465
    Two-Electron Energy =                 971.8392667914614549
    DFT Exchange-Correlation Energy =       0.0000000000000000
    Empirical Dispersion Energy =           0.0000000000000000
    PCM Polarization Energy =               0.0000000000000000
    EFP Energy =                            0.0000000000000000
    Total Energy =                       -786.5859855598654349
    Molecular point group: c1
  Basis Set: CC-PVTZ
  Basis Set:

  -Total Gradient:
     Atom            X                  Y                   Z
    ------   -----------------  -----------------  -----------------
       1        0.001863489784    -0.000035226266     0.000074360729
       2       -0.002269583218     0.000003822366    -0.000570373456
       3        0.000054681616    -0.000117461702     0.002031736833
       4        0.000103327439    -0.000071010958    -0.000013802957
       5        0.000088673077     0.000149566701    -0.000012127802
       6        0.000346639692     0.000211673682    -0.001534530379
       7       -0.000073990911     0.000094747021     0.000101226259
       8        0.000013794385    -0.000090167219    -0.000041245781
       9       -0.000047996671     0.000005289092    -0.000020774347
      10       -0.000027572935     0.000037142066    -0.000035489879
      11        0.000014751374    -0.000149886908     0.000011755741
      12       -0.000066213631    -0.000038487879     0.000009265055

  **** Optimization is complete! (in 7 steps) ****
    Final optimized geometry and variables:
    Molecular point group: c1

    Geometry (in Angstrom), charge = 0, multiplicity = 1:

    H           -0.649621322503     2.007435318521     1.043861000241
    O           -0.639262167707     1.766611108374     0.134450739015
    C           -0.651687096706     0.397311064682    -0.042310229357
    C           -0.211310415178    -0.346430381567     1.217571303932
    C            0.209551108988     0.093070689966    -1.267918136933
    H           -1.646960505082     0.039361471078    -0.280933224000
    F           -0.935603444960     0.088860880658     2.233080745343
    F           -0.406190353441    -1.633929699324     1.110834360447
    F            1.044792815207    -0.139789962125     1.521571947875
    F           -0.304093808137     0.693478647940    -2.313757622908
    F            0.230534256417    -1.197098957769    -1.515705094138
    F            1.443327179589     0.501651888162    -1.131166072058

  Mulliken Charges: (a.u.)
   Center  Symbol    Alpha    Beta     Spin     Total
       1     H     0.38246  0.38246  0.00000  0.23507
       2     O     4.18862  4.18862  0.00000 -0.37723
       3     C     2.99471  2.99471  0.00000  0.01058
       4     C     2.68586  2.68586  0.00000  0.62829
       5     C     2.67898  2.67898  0.00000  0.64204
       6     H     0.44291  0.44291  0.00000  0.11418
       7     F     4.61280  4.61280  0.00000 -0.22561
       8     F     4.59968  4.59968  0.00000 -0.19937
       9     F     4.60171  4.60171  0.00000 -0.20343
      10     F     4.60315  4.60315  0.00000 -0.20630
      11     F     4.60669  4.60669  0.00000 -0.21337
      12     F     4.60243  4.60243  0.00000 -0.20485

   Total alpha = 41.00000, Total beta = 41.00000, Total charge =  0.00000

*** Psi4 exiting successfully. Buy a developer a beer!
