                              Psi4 1.0.54 Driver

  ==> Input File <==

--------------------------------------------------------------------------
set {
	reference rhf
	basis cc-pvtz
}

set_num_threads( 4 )
memory 2 gb

molecule MOL {
0 1

O	 -1.278239	 1.034789	 -0.784693
C	 -1.204115	 0.062668	 -0.112312
C	 -2.386398	 -0.667698	 0.460323
O	 -0.068058	 -0.518372	 0.226882
H	 -2.382952	 -1.693172	 0.114333
H	 -3.296656	 -0.175702	 0.158400
H	 -2.312537	 -0.685191	 1.540100
C	 0.594964	 -0.115730	 1.429830
C	 2.066912	 -0.411211	 1.222050
C	 0.002902	 -0.854099	 2.616792
H	 0.443616	 0.945964	 1.552251
H	 2.448299	 0.128920	 0.364989
H	 2.632595	 -0.110656	 2.095767
H	 2.226641	 -1.470190	 1.057774
H	 0.512034	 -0.559478	 3.527002
H	 -1.047403	 -0.623364	 2.727565
H	 0.116703	 -1.925104	 2.493178

	symmetry c1
}
set optking {
	frozen_dihedral = ("
		8 4 2 1
	")
}

ee,wfn = optimize('scf', return_wfn=True)
oeprop( wfn, 'DIPOLE', 'QUADRUPOLE', 'MULLIKEN_CHARGES')
f=open( 'psi4out.xyz', 'w' )
f.write( "17  " )
f.write( str(ee) + "\n" )
f.write( MOL.save_string_xyz() )
f.close()
--------------------------------------------------------------------------

    Molecular point group: c1
  Charge       = 0
  Multiplicity = 1
  Basis Set: CC-PVTZ
  Basis Set:
  @DF-RHF Final Energy:  -345.01608030101153
    Total Energy =                       -345.0160803010116979
    Molecular point group: c1
  Basis Set: CC-PVTZ
  Basis Set:
  Basis Set: CC-PVTZ
  Basis Set:
  @DF-RHF Final Energy:  -344.97541784744283
    Total Energy =                       -344.9754178474430546
  Basis Set: CC-PVTZ
  Basis Set:
  Basis Set: CC-PVTZ
  Basis Set:
  @DF-RHF Final Energy:  -344.92166340938837
    Total Energy =                       -344.9216634093884295
  Basis Set: CC-PVTZ
  Basis Set:
  Basis Set: CC-PVTZ
  Basis Set:
  @DF-RHF Final Energy:  -344.99993772091028
    Total Energy =                       -344.9999377209103386
  Basis Set: CC-PVTZ
  Basis Set:
  @DF-RHF Final Energy:  -344.99907537793740
    Total Energy =                       -344.9990753779375154
  @DF-RHF Final Energy:  -345.01295267655314
    Total Energy =                       -345.0129526765529135
  @DF-RHF Final Energy:  -345.02085510905800
    Total Energy =                       -345.0208551090579476
  @DF-RHF Final Energy:  -345.01387599509587
    Total Energy =                       -345.0138759950959866
  @DF-RHF Final Energy:  -345.02209978765251
    Total Energy =                       -345.0220997876521096
  @DF-RHF Final Energy:  -345.02268751249619
    Total Energy =                       -345.0226875124957928
  @DF-RHF Final Energy:  -345.01456846727177
    Total Energy =                       -345.0145684672720563
  @DF-RHF Final Energy:  -345.02320221544926
    Total Energy =                       -345.0232022154490892
  @DF-RHF Final Energy:  -345.01874849185293
    Total Energy =                       -345.0187484918527616
  @DF-RHF Final Energy:  -345.02384226472435
    Total Energy =                       -345.0238422647244647
  @DF-RHF Final Energy:  -345.01801611240091
    Total Energy =                       -345.0180161124009146
  @DF-RHF Final Energy:  -345.02435560636445
    Total Energy =                       -345.0243556063641108
  @DF-RHF Final Energy:  -345.02444743084396
    Total Energy =                       -345.0244474308441909
  @DF-RHF Final Energy:  -345.02453912239866
    Total Energy =                       -345.0245391223985507
  Basis Set: CC-PVTZ
  Basis Set:
  @DF-RHF Final Energy:  -345.02455390973512
    Total Energy =                       -345.0245539097349479
  Basis Set: CC-PVTZ
  Basis Set:
  Basis Set: CC-PVTZ
  Basis Set:
  @DF-RHF Final Energy:  -345.02455866539827
    Total Energy =                       -345.0245586653977625
  Basis Set: CC-PVTZ
  Basis Set:
  Basis Set: CC-PVTZ
  Basis Set:
  @DF-RHF Final Energy:  -345.02455985956755
    Total Energy =                       -345.0245598595672618
  Basis Set: CC-PVTZ
  Basis Set:
  Charge       = 0
  Multiplicity = 1
  Basis Set: CC-PVTZ
  Basis Set:

    Orbital Energies (a.u.)
    -----------------------

    Doubly Occupied:

       1A    -20.572437     2A    -20.543728     3A    -11.369346
       4A    -11.299680     5A    -11.235111     6A    -11.220686
       7A    -11.213622     8A     -1.458899     9A     -1.367978
      10A     -1.074246    11A     -1.011103    12A     -0.950320
      13A     -0.847029    14A     -0.771532    15A     -0.694941
      16A     -0.677199    17A     -0.654350    18A     -0.617155
      19A     -0.592521    20A     -0.589014    21A     -0.556455
      22A     -0.550986    23A     -0.547723    24A     -0.518787
      25A     -0.507656    26A     -0.483704    27A     -0.449014
      28A     -0.437620

  @DF-RHF Final Energy:  -345.02456017979245

   => Energetics <=

    Nuclear Repulsion Energy =            322.9187979469901961
    One-Electron Energy =               -1110.2610355545248240
    Two-Electron Energy =                 442.3176774277424101
    DFT Exchange-Correlation Energy =       0.0000000000000000
    Empirical Dispersion Energy =           0.0000000000000000
    PCM Polarization Energy =               0.0000000000000000
    EFP Energy =                            0.0000000000000000
    Total Energy =                       -345.0245601797921609
    Molecular point group: c1
  Basis Set: CC-PVTZ
  Basis Set:

  -Total Gradient:
     Atom            X                  Y                   Z
    ------   -----------------  -----------------  -----------------
       1       -0.000417780316     0.001597662508    -0.001272950274
       2        0.000075545215    -0.002813813349     0.001471153509
       3        0.000006343837     0.000054613470     0.000003244536
       4        0.001457932782     0.002072837882     0.000616065095
       5       -0.000008934313     0.000002925721    -0.000018704564
       6        0.000010326144    -0.000000815086    -0.000007735027
       7        0.000004718526    -0.000042122835     0.000002764290
       8       -0.001150604729    -0.000887680301    -0.000841393511
       9        0.000052414063     0.000022831327     0.000020590578
      10        0.000016530871     0.000021400916     0.000015189730
      11        0.000002657932    -0.000002166391    -0.000000490203
      12       -0.000005551383     0.000006638430     0.000008724463
      13        0.000000055760    -0.000011481888     0.000000797368
      14       -0.000016442426    -0.000008863674     0.000006693472
      15       -0.000008496594    -0.000000932731     0.000007617233
      16       -0.000002630159     0.000002423584    -0.000009089114
      17       -0.000016085212    -0.000013457583    -0.000002477580

  **** Optimization is complete! (in 22 steps) ****
    Final optimized geometry and variables:
    Molecular point group: c1

    Geometry (in Angstrom), charge = 0, multiplicity = 1:

    O           -0.673820952216     1.526802934928     1.176196223168
    C           -0.919334586113     0.761447007411     0.316365242096
    C           -2.301217706238     0.254777198969     0.007740454017
    O            0.018810107581     0.318134069495    -0.540744001365
    H           -2.584061972219     0.600890172546    -0.978930565160
    H           -3.003896643897     0.615368581924     0.741492916482
    H           -2.308597678986    -0.828036264157    -0.015555404893
    C            0.750876578846    -0.860844190561    -0.197452945883
    C            1.896763223502    -0.521087380081     0.739890083103
    C            1.216273890745    -1.475427928666    -1.501608368106
    H            0.074078021776    -1.551063022197     0.298872354130
    H            1.534503989675    -0.053219554039     1.644392180085
    H            2.435229499354    -1.423224948736     1.008189270986
    H            2.584143023856     0.162458265438     0.256866539913
    H            1.777263558374    -2.382262295296    -1.309996118099
    H            0.372080923637    -1.717838299568    -2.134012269476
    H            1.854360732111    -0.781479217517    -2.034790274845

  Mulliken Charges: (a.u.)
   Center  Symbol    Alpha    Beta     Spin     Total
       1     O     4.17335  4.17335  0.00000 -0.34671
       2     C     2.80865  2.80865  0.00000  0.38270
       3     C     3.14150  3.14150  0.00000 -0.28300
       4     O     4.18023  4.18023  0.00000 -0.36046
       5     H     0.44304  0.44304  0.00000  0.11392
       6     H     0.43666  0.43666  0.00000  0.12667
       7     H     0.45110  0.45110  0.00000  0.09780
       8     C     2.93369  2.93369  0.00000  0.13262
       9     C     3.13944  3.13944  0.00000 -0.27888
      10     C     3.13734  3.13734  0.00000 -0.27468
      11     H     0.45947  0.45947  0.00000  0.08106
      12     H     0.44084  0.44084  0.00000  0.11832
      13     H     0.45331  0.45331  0.00000  0.09337
      14     H     0.45099  0.45099  0.00000  0.09802
      15     H     0.45472  0.45472  0.00000  0.09056
      16     H     0.44734  0.44734  0.00000  0.10531
      17     H     0.44831  0.44831  0.00000  0.10337

   Total alpha = 28.00000, Total beta = 28.00000, Total charge =  0.00000

*** Psi4 exiting successfully. Buy a developer a beer!
