                              Psi4 1.0.54 Driver

  ==> Input File <==

--------------------------------------------------------------------------
set {
	reference rhf
	basis cc-pvtz
}

set_num_threads( 4 )
memory 2 gb

molecule MOL {
0 1

O	 0.517510	 1.228548	 -0.532366
C	 0.485107	 0.171416	 -0.000134
C	 1.606966	 -0.836201	 0.000174
O	 -0.560068	 -0.271352	 0.676734
C	 2.988788	 -0.202529	 -0.000115
H	 1.465110	 -1.474645	 -0.864821
H	 1.465209	 -1.474077	 0.865596
H	 3.131767	 0.419673	 -0.873407
H	 3.750876	 -0.972315	 0.000098
H	 3.131883	 0.420264	 0.872742
C	 -1.699220	 0.573002	 0.764413
C	 -2.747892	 -0.149404	 1.577372
H	 -2.052655	 0.793666	 -0.232953
H	 -1.411918	 1.506668	 1.227066
H	 -3.026852	 -1.082922	 1.105038
H	 -3.633474	 0.469048	 1.663940
H	 -2.382515	 -0.365808	 2.573384

	symmetry c1
}
set optking {
	frozen_dihedral = ("
		4 2 3 6
	")
}

ee,wfn = optimize('scf', return_wfn=True)
oeprop( wfn, 'DIPOLE', 'QUADRUPOLE', 'MULLIKEN_CHARGES')
f=open( 'psi4out.xyz', 'w' )
f.write( "17  " )
f.write( str(ee) + "\n" )
f.write( MOL.save_string_xyz() )
f.close()
--------------------------------------------------------------------------

    Molecular point group: c1
  Charge       = 0
  Multiplicity = 1
  Basis Set: CC-PVTZ
  Basis Set:
  @DF-RHF Final Energy:  -345.03948608717963
    Total Energy =                       -345.0394860871798528
    Molecular point group: c1
  Basis Set: CC-PVTZ
  Basis Set:
  Basis Set: CC-PVTZ
  Basis Set:
  @DF-RHF Final Energy:  -345.03959003694837
    Total Energy =                       -345.0395900369481978
  Basis Set: CC-PVTZ
  Basis Set:
  Basis Set: CC-PVTZ
  Basis Set:
  @DF-RHF Final Energy:  -345.03978572537778
    Total Energy =                       -345.0397857253781240
  Basis Set: CC-PVTZ
  Basis Set:
  Basis Set: CC-PVTZ
  Basis Set:
  @DF-RHF Final Energy:  -345.03983253120145
    Total Energy =                       -345.0398325312016823
  Basis Set: CC-PVTZ
  Basis Set:
  Basis Set: CC-PVTZ
  Basis Set:
  @DF-RHF Final Energy:  -345.03983837604198
    Total Energy =                       -345.0398383760419847
  Basis Set: CC-PVTZ
  Basis Set:
  Charge       = 0
  Multiplicity = 1
  Basis Set: CC-PVTZ
  Basis Set:

    Orbital Energies (a.u.)
    -----------------------

    Doubly Occupied:

       1A    -20.594974     2A    -20.531409     3A    -11.363564
       4A    -11.282687     5A    -11.235436     6A    -11.220540
       7A    -11.215796     8A     -1.470895     9A     -1.364389
      10A     -1.070621    11A     -1.032884    12A     -0.911252
      13A     -0.849040    14A     -0.776167    15A     -0.697225
      16A     -0.691334    17A     -0.668701    18A     -0.627505
      19A     -0.587775    20A     -0.575936    21A     -0.557502
      22A     -0.526866    23A     -0.523513    24A     -0.512331
      25A     -0.504907    26A     -0.492877    27A     -0.456239
      28A     -0.438057

  @DF-RHF Final Energy:  -345.03983882773190

   => Energetics <=

    Nuclear Repulsion Energy =            315.2725976662546259
    One-Electron Energy =               -1095.0640322373974413
    Two-Electron Energy =                 434.7515957434115990
    DFT Exchange-Correlation Energy =       0.0000000000000000
    Empirical Dispersion Energy =           0.0000000000000000
    PCM Polarization Energy =               0.0000000000000000
    EFP Energy =                            0.0000000000000000
    Total Energy =                       -345.0398388277312733
    Molecular point group: c1
  Basis Set: CC-PVTZ
  Basis Set:

  -Total Gradient:
     Atom            X                  Y                   Z
    ------   -----------------  -----------------  -----------------
       1        0.000003864564     0.000031042523    -0.000022244008
       2       -0.000307033083    -0.000294599273    -0.001153564210
       3       -0.000686024456    -0.000734439411     0.000875550479
       4        0.000342369957     0.000327552716     0.000881222807
       5       -0.000003671575    -0.000009704392     0.000040136145
       6        0.000650527116     0.000682664038    -0.000569997756
       7       -0.000015918594    -0.000004873165     0.000015653090
       8        0.000003531414     0.000019983978    -0.000026177977
       9        0.000007101726    -0.000014213369    -0.000003032100
      10        0.000017802959     0.000021204356     0.000018322524
      11       -0.000048148152    -0.000072758194    -0.000147873165
      12        0.000010807467     0.000016936579     0.000034611616
      13       -0.000012790761     0.000022882632     0.000007193396
      14        0.000039496500     0.000022340055     0.000031208048
      15        0.000004825832    -0.000007404447    -0.000016767717
      16       -0.000002169508     0.000007570324     0.000002624929
      17       -0.000004571406    -0.000014184948     0.000033133898

  **** Optimization is complete! (in 6 steps) ****
    Final optimized geometry and variables:
    Molecular point group: c1

    Geometry (in Angstrom), charge = 0, multiplicity = 1:

    O            0.505573500165     1.166360833120    -0.807118591929
    C            0.428087367243     0.090850196281    -0.316829479753
    C            1.522283827765    -0.947825919657    -0.353572612176
    O           -0.647866940015    -0.345027452385     0.312766528150
    C            2.917537406765    -0.336353607566    -0.369105254694
    H            1.361872479263    -1.521725478399    -1.261738707692
    H            1.390618482557    -1.626998158167     0.476883833911
    H            3.033967307321     0.336859491463    -1.206351653866
    H            3.665067059696    -1.116313395494    -0.445349064515
    H            3.108047096530     0.224662215052     0.537904776237
    C           -1.775438773409     0.517839183090     0.371570883141
    C           -2.865548293166    -0.198638190003     1.133747540778
    H           -2.087440799513     0.760250857354    -0.634557247785
    H           -1.488927834357     1.438703534706     0.859420274335
    H           -3.142769185427    -1.119658139285     0.636478504475
    H           -3.743001179783     0.433970597282     1.197753240068
    H           -2.541049120311    -0.436811937318     2.138949343098

  Mulliken Charges: (a.u.)
   Center  Symbol    Alpha    Beta     Spin     Total
       1     O     4.20017  4.20017  0.00000 -0.40033
       2     C     2.81282  2.81282  0.00000  0.37437
       3     C     3.08882  3.08882  0.00000 -0.17764
       4     O     4.14888  4.14888  0.00000 -0.29777
       5     C     3.14188  3.14188  0.00000 -0.28376
       6     H     0.44600  0.44600  0.00000  0.10801
       7     H     0.43882  0.43882  0.00000  0.12236
       8     H     0.44254  0.44254  0.00000  0.11492
       9     H     0.45024  0.45024  0.00000  0.09952
      10     H     0.45302  0.45302  0.00000  0.09396
      11     C     2.97823  2.97823  0.00000  0.04353
      12     C     3.13317  3.13317  0.00000 -0.26633
      13     H     0.45434  0.45434  0.00000  0.09132
      14     H     0.45398  0.45398  0.00000  0.09203
      15     H     0.45144  0.45144  0.00000  0.09711
      16     H     0.45431  0.45431  0.00000  0.09138
      17     H     0.45134  0.45134  0.00000  0.09732

   Total alpha = 28.00000, Total beta = 28.00000, Total charge = -0.00000

*** Psi4 exiting successfully. Buy a developer a beer!
