  ==> Input File <==

--------------------------------------------------------------------------
set {
	reference rhf
	basis 6-31G*
}

set_num_threads( 4 )
memory 2 gb

molecule MOL {
0 1

H	 -4.236494	 0.538104	 0.039757
O	 -3.517110	 -0.026191	 -0.205115
C	 -2.306886	 0.532354	 0.237577
C	 -1.177863	 -0.397191	 -0.171080
H	 -2.156308	 1.517575	 -0.201710
H	 -2.315015	 0.655684	 1.319734
C	 0.198102	 0.111031	 0.262842
H	 -1.208843	 -0.518759	 -1.250427
H	 -1.368741	 -1.376554	 0.258909
C	 1.331804	 -0.827780	 -0.158768
H	 0.361943	 1.100838	 -0.156218
H	 0.217265	 0.229072	 1.345532
C	 2.723619	 -0.410569	 0.329459
H	 1.342964	 -0.912588	 -1.244120
H	 1.116806	 -1.824343	 0.220779
C	 3.579790	 -1.558768	 0.866994
H	 2.603892	 0.331712	 1.114808
H	 3.254054	 0.087740	 -0.479548
H	 3.068769	 -2.083815	 1.669629
H	 3.817738	 -2.284190	 0.096073
H	 4.519383	 -1.185950	 1.263134

	symmetry c1
}
set optking {
	frozen_dihedral = ("
		16 13 10 14
	")
}

ee = optimize('scf')
oeprop('DIPOLE', 'QUADRUPOLE', 'MULLIKEN_CHARGES')
f=open( 'psi4out.xyz', 'w' )
f.write( "21  " )
f.write( str(ee) + "\n" )
f.write( MOL.save_string_xyz() )
f.close()
--------------------------------------------------------------------------

    Molecular point group: c1
  Charge       = 0
  Multiplicity = 1
  Basis Set: 6-31G*
  Basis Set:
  @DF-RHF Final Energy:  -310.20942221054082
    Total Energy =                       -310.2094222105405947
    Molecular point group: c1
  Basis Set: 6-31G*
  Basis Set:
  Basis Set: 6-31G*
  Basis Set:
  @DF-RHF Final Energy:  -310.21002952453620
    Total Energy =                       -310.2100295245360257
  Basis Set: 6-31G*
  Basis Set:
  Basis Set: 6-31G*
  Basis Set:
  @DF-RHF Final Energy:  -310.21009865877426
    Total Energy =                       -310.2100986587741431
  Basis Set: 6-31G*
  Basis Set:
  Basis Set: 6-31G*
  Basis Set:
  @DF-RHF Final Energy:  -310.21011258647167
    Total Energy =                       -310.2101125864718369
  Basis Set: 6-31G*
  Basis Set:
  Basis Set: 6-31G*
  Basis Set:
  @DF-RHF Final Energy:  -310.21011755083072
    Total Energy =                       -310.2101175508307165
  Basis Set: 6-31G*
  Basis Set:
  Charge       = 0
  Multiplicity = 1
  Basis Set: 6-31G*
  Basis Set:

    Orbital Energies (a.u.)
    -----------------------

    Doubly Occupied:

       1A    -20.551808     2A    -11.267059     3A    -11.216183
       4A    -11.214569     5A    -11.213168     6A    -11.210429
       7A    -11.208272     8A     -1.358624     9A     -1.085031
      10A     -1.033520    11A     -0.956643    12A     -0.867004
      13A     -0.802732    14A     -0.790355    15A     -0.692070
      16A     -0.662400    17A     -0.628120    18A     -0.598102
      19A     -0.584586    20A     -0.562914    21A     -0.544327
      22A     -0.522191    23A     -0.506466    24A     -0.485696
      25A     -0.477175    26A     -0.462670    27A     -0.457353
      28A     -0.441304    29A     -0.433962

  @DF-RHF Final Energy:  -310.21011761716460

   => Energetics <=

    Nuclear Repulsion Energy =            309.1090749914532694
    One-Electron Energy =               -1032.9689189210473614
    Two-Electron Energy =                 413.6497263124297774
    DFT Exchange-Correlation Energy =       0.0000000000000000
    Empirical Dispersion Energy =           0.0000000000000000
    PCM Polarization Energy =               0.0000000000000000
    EFP Energy =                            0.0000000000000000
    Total Energy =                       -310.2101176171642578
    Molecular point group: c1
  Basis Set: 6-31G*
  Basis Set:

  -Total Gradient:
     Atom            X                  Y                   Z
    ------   -----------------  -----------------  -----------------
       1       -0.000000508776    -0.000000129168     0.000000010968
       2        0.000000141198    -0.000001870177     0.000000529236
       3        0.000007602844     0.000008642842    -0.000010332897
       4        0.000006376664     0.000001229945    -0.000008268453
       5       -0.000000287419     0.000002860787     0.000002506114
       6        0.000000533491    -0.000002793508    -0.000001643748
       7       -0.000006222881     0.000009954126     0.000019468964
       8       -0.000003132896    -0.000004956213    -0.000001226442
       9        0.000002164233     0.000001492841     0.000003911900
      10        0.001044364070    -0.004108623979     0.001331111924
      11       -0.000018997218    -0.000011364275     0.000005126635
      12        0.000000622098    -0.000005540872     0.000008898733
      13        0.001016703771     0.000229490977    -0.003512882753
      14       -0.001125040363     0.003486883693    -0.000299491421
      15        0.000017197949     0.000008114157     0.000000332659
      16       -0.000926417079     0.000385094021     0.002467377990
      17       -0.000024410673    -0.000003673519    -0.000006155855
      18        0.000003712897    -0.000004426656    -0.000012841296
      19        0.000005516017     0.000011440573     0.000013907263
      20        0.000005586785    -0.000002179605     0.000014960155
      21       -0.000005504710     0.000000354011    -0.000015299674

  **** Optimization is complete! (in 6 steps) ****
    Final optimized geometry and variables:
    Molecular point group: c1

    Geometry (in Angstrom), charge = 0, multiplicity = 1:

    H           -4.275903693186     0.959313062913    -0.182062901326
    O           -3.563134454210     0.388635793990    -0.431477605769
    C           -2.353120078531     0.898946598450     0.066627336856
    C           -1.234671733423    -0.039411514938    -0.350962966817
    H           -2.167878647490     1.897752611731    -0.326285210755
    H           -2.388396944674     0.977079818794     1.152409933968
    C            0.139892607949     0.418619252927     0.137031048821
    H           -1.241001860289    -0.117594342435    -1.434706583981
    H           -1.457926630017    -1.030581347799     0.034533474390
    C            1.269116873530    -0.530528221116    -0.275439105849
    H            0.351489606307     1.414177717733    -0.250717933205
    H            0.130472585666     0.510161104250     1.222103389191
    C            2.662646601508    -0.041788281548     0.167167655746
    H            1.243767498279    -0.629192752424    -1.357914160629
    H            1.070209154008    -1.516922805412     0.136010235758
    C            3.564349067419    -1.163288898874     0.683700740715
    H            2.550936347381     0.695793089132     0.958713395979
    H            3.151233723664     0.474602242372    -0.654299285077
    H            3.125602505004    -1.640368591553     1.555308094694
    H            3.714111499653    -1.930655422617    -0.071005937942
    H            4.541431650965    -0.784704998046     0.968168637112

  Mulliken Charges: (a.u.)
   Center  Symbol    Alpha    Beta     Spin     Total
       1     H     0.28119  0.28119  0.00000  0.43762
       2     O     4.37176  4.37176  0.00000 -0.74353
       3     C     2.98974  2.98974  0.00000  0.02052
       4     C     3.15976  3.15976  0.00000 -0.31952
       5     H     0.43284  0.43284  0.00000  0.13431
       6     H     0.43286  0.43286  0.00000  0.13428
       7     C     3.16211  3.16211  0.00000 -0.32422
       8     H     0.41485  0.41485  0.00000  0.17031
       9     H     0.41484  0.41484  0.00000  0.17031
      10     C     3.15272  3.15272  0.00000 -0.30544
      11     H     0.42330  0.42330  0.00000  0.15340
      12     H     0.42364  0.42364  0.00000  0.15272
      13     C     3.15411  3.15411  0.00000 -0.30822
      14     H     0.42049  0.42049  0.00000  0.15903
      15     H     0.42020  0.42020  0.00000  0.15961
      16     C     3.23976  3.23976  0.00000 -0.47952
      17     H     0.42185  0.42185  0.00000  0.15630
      18     H     0.42033  0.42033  0.00000  0.15934
      19     H     0.42176  0.42176  0.00000  0.15649
      20     H     0.42134  0.42134  0.00000  0.15731
      21     H     0.42055  0.42055  0.00000  0.15889

   Total alpha = 29.00000, Total beta = 29.00000, Total charge = -0.00000
