                              Psi4 1.0.54 Driver

  ==> Input File <==

--------------------------------------------------------------------------
set {
	reference rhf
	basis cc-pvtz
}

set_num_threads( 4 )
memory 2 gb

molecule MOL {
0 1

H	 -0.366580	 2.045936	 -0.305741
C	 0.351829	 1.335402	 0.083179
N	 -0.000018	 0.000080	 -0.334836
H	 1.327156	 1.599860	 -0.305475
H	 0.380566	 1.445403	 1.171445
C	 0.931321	 -0.525111	 -1.303939
C	 -0.169916	 -0.890119	 0.788071
H	 0.599423	 -1.496952	 -1.646666
H	 0.981722	 0.132529	 -2.162517
H	 1.943306	 -0.635578	 -0.902998
H	 -0.924664	 -0.499492	 1.458853
H	 -0.500409	 -1.861665	 0.443110
H	 0.751392	 -1.030365	 1.361336

	symmetry c1
}
set optking {
	frozen_dihedral = ("
		6 3 2 1
	")
}

ee,wfn = optimize('scf', return_wfn=True)
oeprop( wfn, 'DIPOLE', 'QUADRUPOLE', 'MULLIKEN_CHARGES')
f=open( 'psi4out.xyz', 'w' )
f.write( "13  " )
f.write( str(ee) + "\n" )
f.write( MOL.save_string_xyz() )
f.close()
--------------------------------------------------------------------------

    Molecular point group: c1
  Charge       = 0
  Multiplicity = 1
  Basis Set: CC-PVTZ
  Basis Set:
  @DF-RHF Final Energy:  -173.32691724060834
    Total Energy =                       -173.3269172406083669
    Molecular point group: c1
  Basis Set: CC-PVTZ
  Basis Set:
  Basis Set: CC-PVTZ
  Basis Set:
  @DF-RHF Final Energy:  -173.32756536502737
    Total Energy =                       -173.3275653650273398
  Basis Set: CC-PVTZ
  Basis Set:
  Basis Set: CC-PVTZ
  Basis Set:
  @DF-RHF Final Energy:  -173.32770377261784
    Total Energy =                       -173.3277037726180083
  Basis Set: CC-PVTZ
  Basis Set:
  Charge       = 0
  Multiplicity = 1
  Basis Set: CC-PVTZ
  Basis Set:

    Orbital Energies (a.u.)
    -----------------------

    Doubly Occupied:

       1A    -15.535881     2A    -11.233886     3A    -11.233826
       4A    -11.233706     5A     -1.221288     6A     -0.951820
       7A     -0.951222     8A     -0.807109     9A     -0.638856
      10A     -0.629188    11A     -0.627541    12A     -0.550688
      13A     -0.547236    14A     -0.513888    15A     -0.501350
      16A     -0.499469    17A     -0.342983

  @DF-RHF Final Energy:  -173.32770592652454

   => Energetics <=

    Nuclear Repulsion Energy =            138.9764306875580075
    One-Electron Energy =                -508.5683994090198894
    Two-Electron Energy =                 196.2642627949373377
    DFT Exchange-Correlation Energy =       0.0000000000000000
    Empirical Dispersion Energy =           0.0000000000000000
    PCM Polarization Energy =               0.0000000000000000
    EFP Energy =                            0.0000000000000000
    Total Energy =                       -173.3277059265245157
    Molecular point group: c1
  Basis Set: CC-PVTZ
  Basis Set:

  -Total Gradient:
     Atom            X                  Y                   Z
    ------   -----------------  -----------------  -----------------
       1       -0.000890787606    -0.000186660886     0.001375563110
       2        0.001450891060     0.000113623052    -0.001342370033
       3       -0.001315242563     0.000735058310    -0.000920367276
       4        0.000007252585     0.000005575223     0.000015816631
       5       -0.000003117543     0.000051819959    -0.000038335245
       6        0.000807707195    -0.000589197314     0.000905629096
       7        0.000041117558    -0.000211302774     0.000039063461
       8       -0.000000001288    -0.000009679209    -0.000012130394
       9       -0.000038752264     0.000023224426     0.000049701572
      10       -0.000050343744     0.000028936502     0.000007882202
      11        0.000026960542     0.000029847564    -0.000065697811
      12       -0.000012533654    -0.000035270256     0.000022589074
      13       -0.000023150278     0.000044025405    -0.000037344387

  **** Optimization is complete! (in 4 steps) ****
    Final optimized geometry and variables:
    Molecular point group: c1

    Geometry (in Angstrom), charge = 0, multiplicity = 1:

    H           -0.688103357094     2.085030617731    -0.123511758850
    C            0.045526580198     1.380108572780     0.252925091955
    N           -0.281833310843     0.018621396409    -0.143453078992
    H            1.023561596101     1.683387085838    -0.107892078862
    H            0.061570232070     1.479515918211     1.332234116674
    C            0.631343707738    -0.518877925941    -1.122226907983
    C           -0.467341199622    -0.874503109581     0.974749565846
    H            0.282704425205    -1.486287293121    -1.461844262070
    H            0.678978558443     0.135018196019    -1.984002486803
    H            1.647691854430    -0.642330014551    -0.735961165775
    H           -1.230971460738    -0.487196977779     1.636969938773
    H           -0.798849179407    -1.842849858608     0.620786028368
    H            0.444481110332    -1.024986937843     1.560860702956

  Mulliken Charges: (a.u.)
   Center  Symbol    Alpha    Beta     Spin     Total
       1     H     0.45104  0.45104  0.00000  0.09792
       2     C     3.08502  3.08502  0.00000 -0.17005
       3     N     3.59956  3.59956  0.00000 -0.19912
       4     H     0.46362  0.46362  0.00000  0.07275
       5     H     0.46112  0.46112  0.00000  0.07776
       6     C     3.09084  3.09084  0.00000 -0.18168
       7     C     3.09041  3.09041  0.00000 -0.18081
       8     H     0.45363  0.45363  0.00000  0.09273
       9     H     0.45202  0.45202  0.00000  0.09596
      10     H     0.47350  0.47350  0.00000  0.05299
      11     H     0.45215  0.45215  0.00000  0.09570
      12     H     0.45357  0.45357  0.00000  0.09286
      13     H     0.47350  0.47350  0.00000  0.05300

   Total alpha = 17.00000, Total beta = 17.00000, Total charge =  0.00000

*** Psi4 exiting successfully. Buy a developer a beer!
