  ==> Input File <==

--------------------------------------------------------------------------
set {
	reference rhf
	basis 6-31G*
}

set_num_threads( 1 )
memory 2 gb

molecule MOL {
0 1

H	 -2.798360	 -0.862255	 -0.071053
N	 -1.863561	 -0.715187	 0.256814
C	 -1.344686	 0.554728	 -0.219830
H	 -1.300452	 -1.461917	 -0.101532
C	 0.081427	 0.741154	 0.254071
H	 -1.362155	 0.656231	 -1.305829
H	 -1.952773	 1.354456	 0.191809
O	 0.874168	 -0.245412	 -0.342030
H	 0.444037	 1.730782	 -0.023037
H	 0.121165	 0.653424	 1.337565
C	 2.235201	 0.045753	 -0.361603
H	 2.740556	 -0.780521	 -0.842836
H	 2.439336	 0.956589	 -0.921681
H	 2.631075	 0.163571	 0.644982

	symmetry c1
}
set optking {
	frozen_dihedral = ("
		8 5 3 6,
		6 3 2 4,
		5 8 11 13
	")
}

ee = energy('scf')
oeprop('DIPOLE', 'QUADRUPOLE', 'MULLIKEN_CHARGES')
f=open( 'psi4out.xyz', 'w' )
f.write( "14  " )
f.write( str(ee) + "\n" )
f.write( MOL.save_string_xyz() )
f.close()
--------------------------------------------------------------------------

    Molecular point group: c1

    Geometry (in Angstrom), charge = 0, multiplicity = 1:

       Center              X                  Y                   Z               Mass
    ------------   -----------------  -----------------  -----------------  -----------------
           H         -2.805286001742    -0.923381650081     0.020903826299     1.007825032070
           N         -1.870487001742    -0.776313650081     0.348770826299    14.003074004780
           C         -1.351612001742     0.493601349919    -0.127873173701    12.000000000000
           H         -1.307378001742    -1.523043650081    -0.009575173701     1.007825032070
           C          0.074500998258     0.680027349919     0.346027826299    12.000000000000
           H         -1.369081001742     0.595104349919    -1.213872173701     1.007825032070
           H         -1.959699001742     1.293329349919     0.283765826299     1.007825032070
           O          0.867241998258    -0.306538650081    -0.250073173701    15.994914619560
           H          0.437110998258     1.669655349919     0.068919826299     1.007825032070
           H          0.114238998258     0.592297349919     1.429521826299     1.007825032070
           C          2.228274998258    -0.015373650081    -0.269646173701    12.000000000000
           H          2.733629998258    -0.841647650081    -0.750879173701     1.007825032070
           H          2.432409998258     0.895462349919    -0.829724173701     1.007825032070
           H          2.624148998258     0.102444349919     0.736938826299     1.007825032070

  Charge       = 0
  Multiplicity = 1
  Basis Set: 6-31G*
  Basis Set:

    Orbital Energies (a.u.)
    -----------------------

    Doubly Occupied:

       1A    -20.556786     2A    -15.528229     3A    -11.267023
       4A    -11.265374     5A    -11.240419     6A     -1.381341
       7A     -1.173477     8A     -0.998535     9A     -0.908419
      10A     -0.814843    11A     -0.682393    12A     -0.675893
      13A     -0.644325    14A     -0.609410    15A     -0.606334
      16A     -0.540622    17A     -0.530922    18A     -0.496927
      19A     -0.473728    20A     -0.415882    21A     -0.379768

  @DF-RHF Final Energy:  -248.12387887111262

   => Energetics <=

    Nuclear Repulsion Energy =            194.5024864820359483
    One-Electron Energy =                -722.8713953701879973
    Two-Electron Energy =                 280.2450300170389710
    DFT Exchange-Correlation Energy =       0.0000000000000000
    Empirical Dispersion Energy =           0.0000000000000000
    PCM Polarization Energy =               0.0000000000000000
    EFP Energy =                            0.0000000000000000
    Total Energy =                       -248.1238788711131065

  Mulliken Charges: (a.u.)
   Center  Symbol    Alpha    Beta     Spin     Total
       1     H     0.33286  0.33286  0.00000  0.33428
       2     N     3.92509  3.92509  0.00000 -0.85018
       3     C     3.06761  3.06761  0.00000 -0.13521
       4     H     0.32320  0.32320  0.00000  0.35360
       5     C     2.99033  2.99033  0.00000  0.01934
       6     H     0.42822  0.42822  0.00000  0.14357
       7     H     0.42122  0.42122  0.00000  0.15755
       8     O     4.30981  4.30981  0.00000 -0.61963
       9     H     0.43199  0.43199  0.00000  0.13603
      10     H     0.42016  0.42016  0.00000  0.15969
      11     C     3.07915  3.07915  0.00000 -0.15829
      12     H     0.41257  0.41257  0.00000  0.17487
      13     H     0.42947  0.42947  0.00000  0.14105
      14     H     0.42833  0.42833  0.00000  0.14335

   Total alpha = 21.00000, Total beta = 21.00000, Total charge = -0.00000
