  ==> Input File <==

--------------------------------------------------------------------------
set {
	reference rhf
	basis 6-31G*
}

set_num_threads( 4 )
memory 2 gb

molecule MOL {
0 1

H	 -2.646374	 -0.642757	 1.268656
C	 -2.083525	 -0.384536	 0.393091
O	 -0.807605	 -0.127164	 0.768327
F	 -2.118945	 -1.383102	 -0.486752
F	 -2.621877	 0.670592	 -0.209486
C	 0.084052	 0.273579	 -0.209957
C	 0.040182	 1.795483	 -0.255179
Cl	 -0.355917	 -0.410232	 -1.783502
H	 1.093456	 -0.029468	 0.006932
F	 0.878743	 2.252684	 -1.160674
F	 0.409863	 2.265728	 0.919403
F	 -1.160080	 2.248047	 -0.524496

	symmetry c1
}
set optking {
	frozen_dihedral = ("
		9 6 3 2
	")
}

ee = optimize('scf')
oeprop('DIPOLE', 'QUADRUPOLE', 'MULLIKEN_CHARGES')
f=open( 'psi4out.xyz', 'w' )
f.write( "12  " )
f.write( str(ee) + "\n" )
f.write( MOL.save_string_xyz() )
f.close()
--------------------------------------------------------------------------

    Molecular point group: c1
  Charge       = 0
  Multiplicity = 1
  Basis Set: 6-31G*
  Basis Set:
  @DF-RHF Final Energy: -1146.27282433668233
    Total Energy =                      -1146.2728243366832430
    Molecular point group: c1
  Basis Set: 6-31G*
  Basis Set:
  Basis Set: 6-31G*
  Basis Set:
  @DF-RHF Final Energy: -1146.29105020268571
    Total Energy =                      -1146.2910502026870745
  Basis Set: 6-31G*
  Basis Set:
  Basis Set: 6-31G*
  Basis Set:
  @DF-RHF Final Energy: -1146.29959215524809
    Total Energy =                      -1146.2995921552496839
  Basis Set: 6-31G*
  Basis Set:
  Basis Set: 6-31G*
  Basis Set:
  @DF-RHF Final Energy: -1146.30352863131930
    Total Energy =                      -1146.3035286313197503
  Basis Set: 6-31G*
  Basis Set:
  @DF-RHF Final Energy: -1146.30486797638559
    Total Energy =                      -1146.3048679763855944
  @DF-RHF Final Energy: -1146.30509398829508
    Total Energy =                      -1146.3050939882955390
  @DF-RHF Final Energy: -1146.30513807062289
    Total Energy =                      -1146.3051380706226610
  Basis Set: 6-31G*
  Basis Set:
  @DF-RHF Final Energy: -1146.30514929972833
    Total Energy =                      -1146.3051492997276455
  Basis Set: 6-31G*
  Basis Set:
  Basis Set: 6-31G*
  Basis Set:
  @DF-RHF Final Energy: -1146.30515599685350
    Total Energy =                      -1146.3051559968539550
  Basis Set: 6-31G*
  Basis Set:
  Basis Set: 6-31G*
  Basis Set:
  @DF-RHF Final Energy: -1146.30515827411205
    Total Energy =                      -1146.3051582741118182
  Basis Set: 6-31G*
  Basis Set:
  Charge       = 0
  Multiplicity = 1
  Basis Set: 6-31G*
  Basis Set:

    Orbital Energies (a.u.)
    -----------------------

    Doubly Occupied:

       1A   -104.847384     2A    -26.358748     3A    -26.357896
       4A    -26.357485     5A    -26.339936     6A    -26.333956
       7A    -20.644132     8A    -11.526125     9A    -11.484436
      10A    -11.402739    11A    -10.582341    12A     -8.051718
      13A     -8.048129    14A     -8.047997    15A     -1.760491
      16A     -1.708862    17A     -1.656570    18A     -1.655510
      19A     -1.630950    20A     -1.475238    21A     -1.181349
      22A     -1.054338    23A     -0.988999    24A     -0.913429
      25A     -0.850963    26A     -0.850088    27A     -0.843544
      28A     -0.828720    29A     -0.805183    30A     -0.761968
      31A     -0.730986    32A     -0.721659    33A     -0.705532
      34A     -0.687170    35A     -0.678776    36A     -0.671490
      37A     -0.663780    38A     -0.657467    39A     -0.647594
      40A     -0.633286    41A     -0.591552    42A     -0.557126
      43A     -0.528950    44A     -0.479055    45A     -0.467815

  @DF-RHF Final Energy: -1146.30515876942059

   => Energetics <=

    Nuclear Repulsion Energy =            751.5484301286983282
    One-Electron Energy =               -3086.1642546907669384
    Two-Electron Energy =                1188.3106657926482512
    DFT Exchange-Correlation Energy =       0.0000000000000000
    Empirical Dispersion Energy =           0.0000000000000000
    PCM Polarization Energy =               0.0000000000000000
    EFP Energy =                            0.0000000000000000
    Total Energy =                      -1146.3051587694203590
    Molecular point group: c1
  Basis Set: 6-31G*
  Basis Set:

  -Total Gradient:
     Atom            X                  Y                   Z
    ------   -----------------  -----------------  -----------------
       1        0.000008102252    -0.000034472110     0.000009699742
       2        0.000099224503    -0.000506607485    -0.000163026330
       3       -0.000215244489     0.000795676142     0.000145930275
       4       -0.000006247087    -0.000024085689     0.000036971865
       5        0.000045834342     0.000009539378    -0.000041696960
       6        0.000213181799     0.000347903084     0.000354258085
       7       -0.000028057985     0.000029717056    -0.000022142797
       8       -0.000004973697     0.000014918747     0.000001205711
       9       -0.000103322560    -0.000565250774    -0.000365480878
      10        0.000008708616    -0.000013278918    -0.000024476679
      11       -0.000005353747    -0.000003658978     0.000057877251
      12       -0.000011851970    -0.000050400451     0.000010880625

  **** Optimization is complete! (in 11 steps) ****
    Final optimized geometry and variables:
    Molecular point group: c1

    Geometry (in Angstrom), charge = 0, multiplicity = 1:

    H           -1.852888089449    -1.203605056416     1.861719086691
    C           -1.404911039978    -1.122847415006     0.889637012573
    O           -0.093977608082    -0.813765101922     1.080161869184
    F           -1.532170919626    -2.277545650630     0.249317642975
    F           -2.031957677812    -0.198764413067     0.176558020332
    C            0.772851669841    -0.320073419531     0.117814892652
    C            0.831260623616     1.206242038577     0.179219952587
    CL           0.487362467256    -0.864088901582    -1.543225201361
    H            1.747635270820    -0.680642961508     0.394523168401
    F            1.845844950019     1.633578149202    -0.545594135450
    F            1.039480366619     1.573875738845     1.427829950980
    F           -0.259364043531     1.793880944005    -0.246245494947

  Mulliken Charges: (a.u.)
   Center  Symbol    Alpha    Beta     Spin     Total
       1     H     0.40558  0.40558  0.00000  0.18885
       2     C     2.55791  2.55791  0.00000  0.88418
       3     O     4.31612  4.31612  0.00000 -0.63225
       4     F     4.68148  4.68148  0.00000 -0.36297
       5     F     4.68187  4.68187  0.00000 -0.36373
       6     C     3.03049  3.03049  0.00000 -0.06098
       7     C     2.44355  2.44355  0.00000  1.11289
       8    CL     8.50085  8.50085  0.00000 -0.00169
       9     H     0.36630  0.36630  0.00000  0.26739
      10     F     4.67483  4.67483  0.00000 -0.34966
      11     F     4.67549  4.67549  0.00000 -0.35098
      12     F     4.66553  4.66553  0.00000 -0.33106

   Total alpha = 45.00000, Total beta = 45.00000, Total charge =  0.00000
