  ==> Input File <==

--------------------------------------------------------------------------
set {
	reference rhf
	basis 6-31G*
}

set_num_threads( 4 )
memory 2 gb

molecule MOL {
0 1

H	 -0.503143	 -1.641513	 0.153194
N	 -0.626943	 -0.667432	 -0.000092
C	 -1.968868	 -0.173637	 -0.210142
C	 0.469286	 0.129090	 0.000148
H	 -2.418932	 -0.631799	 -1.084520
H	 -1.915813	 0.892170	 -0.361695
H	 -2.596972	 -0.376010	 0.650999
C	 1.788933	 -0.616240	 -0.000037
O	 0.411098	 1.327768	 -0.000049
H	 1.872803	 -1.245775	 -0.880381
H	 2.595421	 0.101576	 0.003713
H	 1.870096	 -1.252171	 0.875943

	symmetry c1
}
set optking {
	frozen_dihedral = ("
		3 2 4 9
	")
}

ee = optimize('scf')
oeprop('DIPOLE', 'QUADRUPOLE', 'MULLIKEN_CHARGES')
f=open( 'psi4out.xyz', 'w' )
f.write( "12  " )
f.write( str(ee) + "\n" )
f.write( MOL.save_string_xyz() )
f.close()
--------------------------------------------------------------------------

    Molecular point group: c1
  Charge       = 0
  Multiplicity = 1
  Basis Set: 6-31G*
  Basis Set:
  @DF-RHF Final Energy:  -247.00434094915076
    Total Energy =                       -247.0043409491506736
    Molecular point group: c1
  Basis Set: 6-31G*
  Basis Set:
  Basis Set: 6-31G*
  Basis Set:
  @DF-RHF Final Energy:  -247.00464027820652
    Total Energy =                       -247.0046402782064661
  Basis Set: 6-31G*
  Basis Set:
  Basis Set: 6-31G*
  Basis Set:
  @DF-RHF Final Energy:  -247.00510265042004
    Total Energy =                       -247.0051026504200991
  Basis Set: 6-31G*
  Basis Set:
  Basis Set: 6-31G*
  Basis Set:
  @DF-RHF Final Energy:  -247.00518004577856
    Total Energy =                       -247.0051800457787294
  Basis Set: 6-31G*
  Basis Set:
  @DF-RHF Final Energy:  -247.00521183737573
    Total Energy =                       -247.0052118373755548
  @DF-RHF Final Energy:  -247.00541995656721
    Total Energy =                       -247.0054199565673798
  @DF-RHF Final Energy:  -247.00555457290537
    Total Energy =                       -247.0055545729053392
  @DF-RHF Final Energy:  -247.00568055849769
    Total Energy =                       -247.0056805584976019
  Basis Set: 6-31G*
  Basis Set:
  @DF-RHF Final Energy:  -247.00570626525095
    Total Energy =                       -247.0057062652509785
  Basis Set: 6-31G*
  Basis Set:
  Basis Set: 6-31G*
  Basis Set:
  @DF-RHF Final Energy:  -247.00570826502980
    Total Energy =                       -247.0057082650297957
  Basis Set: 6-31G*
  Basis Set:
  Basis Set: 6-31G*
  Basis Set:
  @DF-RHF Final Energy:  -247.00570980516076
    Total Energy =                       -247.0057098051609046
  Basis Set: 6-31G*
  Basis Set:
  Charge       = 0
  Multiplicity = 1
  Basis Set: 6-31G*
  Basis Set:

    Orbital Energies (a.u.)
    -----------------------

    Doubly Occupied:

       1A    -20.516616     2A    -15.581735     3A    -11.342191
       4A    -11.254784     5A    -11.230359     6A     -1.385205
       7A     -1.228224     8A     -1.015428     9A     -0.931800
      10A     -0.786111    11A     -0.689116    12A     -0.648137
      13A     -0.632975    14A     -0.585193    15A     -0.579971
      16A     -0.555100    17A     -0.546131    18A     -0.503881
      19A     -0.413986    20A     -0.386645

  @DF-RHF Final Energy:  -247.00571050317376

   => Energetics <=

    Nuclear Repulsion Energy =            181.4915864762563729
    One-Electron Energy =                -695.3674149982241488
    Two-Electron Energy =                 266.8701180187937325
    DFT Exchange-Correlation Energy =       0.0000000000000000
    Empirical Dispersion Energy =           0.0000000000000000
    PCM Polarization Energy =               0.0000000000000000
    EFP Energy =                            0.0000000000000000
    Total Energy =                       -247.0057105031741003
    Molecular point group: c1
  Basis Set: 6-31G*
  Basis Set:

  -Total Gradient:
     Atom            X                  Y                   Z
    ------   -----------------  -----------------  -----------------
       1        0.000022286475     0.000002802202     0.000010203908
       2       -0.000005881669     0.001109170827     0.001940683800
       3        0.000074187883    -0.000506836079    -0.000959740666
       4       -0.000165014536    -0.001030585277    -0.002241283334
       5       -0.000009834246    -0.000017595449     0.000009622963
       6       -0.000039338263     0.000020665085     0.000031309841
       7        0.000036018172    -0.000010792324    -0.000002942986
       8        0.000066157494     0.000018801489    -0.000081153254
       9        0.000061419924     0.000474847428     0.001213877903
      10       -0.000025464660    -0.000034038077     0.000033509388
      11       -0.000018743108    -0.000006649930     0.000018739513
      12        0.000004206534    -0.000019789896     0.000027172923

  **** Optimization is complete! (in 12 steps) ****
    Final optimized geometry and variables:
    Molecular point group: c1

    Geometry (in Angstrom), charge = 0, multiplicity = 1:

    H           -0.522418312956    -1.550597988190     0.568029472791
    N           -0.633120557026    -0.589828737557     0.339667077773
    C           -1.963719569437    -0.120267075346     0.018422114896
    C            0.467546937631     0.110595127797    -0.028327926742
    H           -2.183113426434    -0.207857448220    -1.041020011781
    H           -2.058414516150     0.917360003616     0.301270412155
    H           -2.684150326798    -0.703900202298     0.576627287486
    C            1.787989298800    -0.606002797751     0.163219227145
    O            0.404274456997     1.222696305309    -0.474403198982
    H            2.016321742996    -1.175444587111    -0.732780670268
    H            2.566798877179     0.129170720748     0.305990564367
    H            1.771034675331    -1.287787357535     1.006076054932

  Mulliken Charges: (a.u.)
   Center  Symbol    Alpha    Beta     Spin     Total
       1     H     0.31112  0.31112  0.00000  0.37777
       2     N     3.88905  3.88905  0.00000 -0.77810
       3     C     3.13786  3.13786  0.00000 -0.27572
       4     C     2.63179  2.63179  0.00000  0.73642
       5     H     0.41386  0.41386  0.00000  0.17227
       6     H     0.39609  0.39609  0.00000  0.20781
       7     H     0.41691  0.41691  0.00000  0.16619
       8     C     3.29339  3.29339  0.00000 -0.58679
       9     O     4.30116  4.30116  0.00000 -0.60232
      10     H     0.40224  0.40224  0.00000  0.19551
      11     H     0.39303  0.39303  0.00000  0.21394
      12     H     0.41350  0.41350  0.00000  0.17300

   Total alpha = 20.00000, Total beta = 20.00000, Total charge =  0.00000
