  ==> Input File <==

--------------------------------------------------------------------------
set {
	reference rhf
	basis 6-31G*
}

set_num_threads( 4 )
memory 2 gb

molecule MOL {
0 1

H	 2.591676	 2.013956	 0.335017
O	 3.341076	 1.666752	 -0.126416
C	 3.569581	 0.339145	 0.272707
C	 2.539767	 -0.640285	 -0.279495
H	 4.553106	 0.084646	 -0.100901
H	 3.608576	 0.269204	 1.359154
C	 3.098532	 -2.036815	 -0.562967
H	 1.718358	 -0.712663	 0.428611
H	 2.131279	 -0.221013	 -1.197490
C	 2.054320	 -2.980171	 -1.166721
H	 3.481247	 -2.462491	 0.360447
H	 3.944549	 -1.956584	 -1.245725
C	 2.584117	 -4.367009	 -1.549259
H	 1.226235	 -3.091184	 -0.469011
H	 1.639251	 -2.512618	 -2.057120
C	 3.028084	 -5.235408	 -0.368897
H	 1.802101	 -4.893710	 -2.092264
H	 3.412876	 -4.255310	 -2.246768
C	 3.448541	 -6.644910	 -0.790747
H	 2.214458	 -5.304867	 0.351727
H	 3.857214	 -4.762992	 0.152321
C	 3.898267	 -7.511782	 0.384814
H	 2.619058	 -7.130570	 -1.300238
H	 4.254911	 -6.577267	 -1.518123
H	 3.102061	 -7.625703	 1.115089
H	 4.187749	 -8.504443	 0.053970
H	 4.751192	 -7.071292	 0.893589

	symmetry c1
}
set optking {
	frozen_dihedral = ("
		8 4 3 2
	")
}

ee = optimize('scf')
oeprop('DIPOLE', 'QUADRUPOLE', 'MULLIKEN_CHARGES')
f=open( 'psi4out.xyz', 'w' )
f.write( "27  " )
f.write( str(ee) + "\n" )
f.write( MOL.save_string_xyz() )
f.close()
--------------------------------------------------------------------------

    Molecular point group: c1
  Charge       = 0
  Multiplicity = 1
  Basis Set: 6-31G*
  Basis Set:
  @DF-RHF Final Energy:  -388.27864343356185
    Total Energy =                       -388.2786434335612284
    Molecular point group: c1
  Basis Set: 6-31G*
  Basis Set:
  Basis Set: 6-31G*
  Basis Set:
  @DF-RHF Final Energy:  -388.27916487644916
    Total Energy =                       -388.2791648764493857
  Basis Set: 6-31G*
  Basis Set:
  Basis Set: 6-31G*
  Basis Set:
  @DF-RHF Final Energy:  -388.27922539920547
    Total Energy =                       -388.2792253992054157
  Basis Set: 6-31G*
  Basis Set:
  Basis Set: 6-31G*
  Basis Set:
  @DF-RHF Final Energy:  -388.27922995285724
    Total Energy =                       -388.2792299528575768
  Basis Set: 6-31G*
  Basis Set:
  Basis Set: 6-31G*
  Basis Set:
  @DF-RHF Final Energy:  -388.27924475847374
    Total Energy =                       -388.2792447584732827
  Basis Set: 6-31G*
  Basis Set:
  Basis Set: 6-31G*
  Basis Set:
  @DF-RHF Final Energy:  -388.27924202592669
    Total Energy =                       -388.2792420259273740
  Basis Set: 6-31G*
  Basis Set:
  Basis Set: 6-31G*
  Basis Set:
  @DF-RHF Final Energy:  -388.27924494357188
    Total Energy =                       -388.2792449435721664
  Basis Set: 6-31G*
  Basis Set:
  Charge       = 0
  Multiplicity = 1
  Basis Set: 6-31G*
  Basis Set:

    Orbital Energies (a.u.)
    -----------------------

    Doubly Occupied:

       1A    -20.551871     2A    -11.266400     3A    -11.218040
       4A    -11.215949     5A    -11.215420     6A    -11.215151
       7A    -11.214373     8A    -11.213192     9A    -11.208730
      10A     -1.358023    11A     -1.094474    12A     -1.061394
      13A     -1.010537    14A     -0.944281    15A     -0.882683
      16A     -0.823579    17A     -0.804303    18A     -0.777406
      19A     -0.691596    20A     -0.647227    21A     -0.635468
      22A     -0.610395    23A     -0.608718    24A     -0.582290
      25A     -0.575258    26A     -0.555272    27A     -0.541614
      28A     -0.522354    29A     -0.509218    30A     -0.486825
      31A     -0.482431    32A     -0.476704    33A     -0.464841
      34A     -0.460390    35A     -0.457494    36A     -0.442822
      37A     -0.419022

  @DF-RHF Final Energy:  -388.27924513138692

   => Energetics <=

    Nuclear Repulsion Energy =            453.2881664526264558
    One-Electron Energy =               -1424.6433351670482352
    Two-Electron Energy =                 583.0759235830348644
    DFT Exchange-Correlation Energy =       0.0000000000000000
    Empirical Dispersion Energy =           0.0000000000000000
    PCM Polarization Energy =               0.0000000000000000
    EFP Energy =                            0.0000000000000000
    Total Energy =                       -388.2792451313869151
    Molecular point group: c1
  Basis Set: 6-31G*
  Basis Set:

  -Total Gradient:
     Atom            X                  Y                   Z
    ------   -----------------  -----------------  -----------------
       1       -0.000006996095     0.000029809406    -0.000007412876
       2        0.002238978144    -0.000466599197    -0.002939607231
       3       -0.002574424544    -0.000268519889     0.004490599309
       4       -0.001608268214     0.004460726742    -0.003696616829
       5        0.000013669171    -0.000022920106     0.000013853188
       6       -0.000007265583    -0.000024887050    -0.000008247487
       7        0.000011851465     0.000006894076     0.000015032999
       8        0.001942287492    -0.003740322591     0.002130385685
       9       -0.000005345522     0.000009759188    -0.000004558645
      10       -0.000002254560     0.000017013051     0.000006263994
      11        0.000000141337    -0.000000625436    -0.000005997513
      12       -0.000004862096     0.000004077615     0.000003697959
      13        0.000011681505     0.000005378708     0.000003746874
      14        0.000000956061    -0.000003882110     0.000001558976
      15       -0.000003526002     0.000000225337    -0.000000299752
      16        0.000002040326    -0.000004182101    -0.000000768462
      17        0.000000783401     0.000002084926    -0.000000447999
      18        0.000001232116     0.000001451705     0.000001953716
      19       -0.000008039753    -0.000002369939     0.000000347277
      20       -0.000003408658     0.000001045290    -0.000002308706
      21       -0.000002497579    -0.000005795742    -0.000000755458
      22        0.000005817221     0.000003186477    -0.000000802795
      23       -0.000001435483    -0.000002257684     0.000002049650
      24       -0.000002605221    -0.000000227689    -0.000001165522
      25       -0.000000650654    -0.000000508692    -0.000002208209
      26        0.000002052391     0.000001131481    -0.000000726323
      27        0.000000089333     0.000000314222     0.000002434178

  **** Optimization is complete! (in 8 steps) ****
    Final optimized geometry and variables:
    Molecular point group: c1

    Geometry (in Angstrom), charge = 0, multiplicity = 1:

    H           -0.489941591349     4.944258156161     0.747059386406
    O            0.335690777769     4.626784553915     0.407970661290
    C            0.497935035411     3.274976139546     0.754867633663
    C           -0.537021314862     2.356322921425     0.099366814823
    H            1.490351974063     3.015731703929     0.407479502199
    H            0.494406495075     3.147631670522     1.835581879500
    C            0.008821762746     0.946815282067    -0.152736946058
    H           -1.411177050156     2.265019934903     0.742525094123
    H           -0.852707567632     2.805236979404    -0.837112138819
    C           -1.044366412722    -0.002279891012    -0.730104019071
    H            0.400121858593     0.544965179502     0.779185189125
    H            0.852271085633     1.008259983676    -0.838106164905
    C           -0.518491365191    -1.391150348173    -1.110578660478
    H           -1.861349653549    -0.110294382577    -0.018428648744
    H           -1.475076012587     0.457528221265    -1.617203929740
    C           -0.046695011443    -2.246139437834     0.068680267156
    H           -1.309704556186    -1.925592229121    -1.632361416189
    H            0.295332842628    -1.283058344827    -1.825754284951
    C            0.370576220811    -3.658124183228    -0.347994680708
    H           -0.845157525827    -2.311921837731     0.806699516072
    H            0.791104448865    -1.765081939058     0.567445847228
    C            0.848239340355    -4.511554293210     0.826377577764
    H           -0.467214637861    -4.152120422425    -0.835471806643
    H            1.161500891493    -3.594372867335    -1.092393514342
    H            0.067587703760    -4.622003996836     1.573866188743
    H            1.135473008472    -5.506118170651     0.499279485418
    H            1.709317690570    -4.062281982129     1.313214731381

  Mulliken Charges: (a.u.)
   Center  Symbol    Alpha    Beta     Spin     Total
       1     H     0.28360  0.28360  0.00000  0.43279
       2     O     4.37045  4.37045  0.00000 -0.74090
       3     C     2.99059  2.99059  0.00000  0.01882
       4     C     3.17279  3.17279  0.00000 -0.34559
       5     H     0.41626  0.41626  0.00000  0.16749
       6     H     0.42997  0.42997  0.00000  0.14005
       7     C     3.16146  3.16146  0.00000 -0.32293
       8     H     0.42517  0.42517  0.00000  0.14965
       9     H     0.41187  0.41187  0.00000  0.17627
      10     C     3.15298  3.15298  0.00000 -0.30596
      11     H     0.42128  0.42128  0.00000  0.15744
      12     H     0.42056  0.42056  0.00000  0.15888
      13     C     3.15343  3.15343  0.00000 -0.30686
      14     H     0.42415  0.42415  0.00000  0.15170
      15     H     0.42086  0.42086  0.00000  0.15828
      16     C     3.15271  3.15271  0.00000 -0.30542
      17     H     0.42164  0.42164  0.00000  0.15671
      18     H     0.42331  0.42331  0.00000  0.15338
      19     C     3.15118  3.15118  0.00000 -0.30236
      20     H     0.42496  0.42496  0.00000  0.15009
      21     H     0.42229  0.42229  0.00000  0.15543
      22     C     3.23917  3.23917  0.00000 -0.47833
      23     H     0.42312  0.42312  0.00000  0.15376
      24     H     0.42286  0.42286  0.00000  0.15428
      25     H     0.42204  0.42204  0.00000  0.15592
      26     H     0.41930  0.41930  0.00000  0.16140
      27     H     0.42199  0.42199  0.00000  0.15602

   Total alpha = 37.00000, Total beta = 37.00000, Total charge =  0.00000
