  ==> Input File <==

--------------------------------------------------------------------------
set {
	reference rhf
	basis 6-31G*
}

set_num_threads( 4 )
memory 2 gb

molecule MOL {
0 1

H	 -1.386573	 -1.760719	 0.080879
C	 -1.697410	 -0.721454	 0.055375
N	 -0.528168	 0.128977	 -0.000000
H	 -2.251624	 -0.520280	 0.964997
H	 -2.374921	 -0.597811	 -0.793717
C	 0.248044	 -0.037491	 -1.209632
H	 -0.801476	 1.086498	 0.097392
H	 0.998722	 0.743888	 -1.266824
H	 -0.398417	 0.061950	 -2.074060
H	 0.763621	 -0.999315	 -1.275517

	symmetry c1
}
set optking {
	frozen_dihedral = ("
		2 3 6 8
	")
}

ee = optimize('scf')
oeprop('DIPOLE', 'QUADRUPOLE', 'MULLIKEN_CHARGES')
f=open( 'psi4out.xyz', 'w' )
f.write( "10  " )
f.write( str(ee) + "\n" )
f.write( MOL.save_string_xyz() )
f.close()
--------------------------------------------------------------------------

    Molecular point group: c1
  Charge       = 0
  Multiplicity = 1
  Basis Set: 6-31G*
  Basis Set:
  @DF-RHF Final Energy:  -134.23734037555755
    Total Energy =                       -134.2373403755574941
    Molecular point group: c1
  Basis Set: 6-31G*
  Basis Set:
  Basis Set: 6-31G*
  Basis Set:
  @DF-RHF Final Energy:  -134.23840859871137
    Total Energy =                       -134.2384085987112599
  Basis Set: 6-31G*
  Basis Set:
  Basis Set: 6-31G*
  Basis Set:
  @DF-RHF Final Energy:  -134.23858429951673
    Total Energy =                       -134.2385842995167025
  Basis Set: 6-31G*
  Basis Set:
  Charge       = 0
  Multiplicity = 1
  Basis Set: 6-31G*
  Basis Set:

    Orbital Energies (a.u.)
    -----------------------

    Doubly Occupied:

       1A    -15.538416     2A    -11.236090     3A    -11.236021
       4A     -1.199857     5A     -0.947954     6A     -0.854043
       7A     -0.662091     8A     -0.612662     9A     -0.591602
      10A     -0.540173    11A     -0.510125    12A     -0.506012
      13A     -0.362293

  @DF-RHF Final Energy:  -134.23858554546985

   => Energetics <=

    Nuclear Repulsion Energy =             84.6564587909817874
    One-Electron Energy =                -348.1954094231008412
    Two-Electron Energy =                 129.3003650866491512
    DFT Exchange-Correlation Energy =       0.0000000000000000
    Empirical Dispersion Energy =           0.0000000000000000
    PCM Polarization Energy =               0.0000000000000000
    EFP Energy =                            0.0000000000000000
    Total Energy =                       -134.2385855454699026
    Molecular point group: c1
  Basis Set: 6-31G*
  Basis Set:

  -Total Gradient:
     Atom            X                  Y                   Z
    ------   -----------------  -----------------  -----------------
       1       -0.000018610672    -0.000019066522     0.000003174706
       2       -0.000549339478     0.000835548965    -0.000585832860
       3        0.000696636958    -0.000961872526     0.000465940478
       4        0.000019049518     0.000026949897     0.000001241286
       5       -0.000004679007     0.000000823605     0.000004407077
       6        0.000881864696    -0.000771128962     0.000741567864
       7        0.000053768830    -0.000010637886    -0.000039578722
       8       -0.001037663476     0.000916325204    -0.000658034541
       9       -0.000033504918     0.000000918391     0.000009270484
      10       -0.000007522450    -0.000017860166     0.000057844227

  **** Optimization is complete! (in 4 steps) ****
    Final optimized geometry and variables:
    Molecular point group: c1

    Geometry (in Angstrom), charge = 0, multiplicity = 1:

    H           -0.717908145321    -1.558342049053     0.462880730017
    C           -1.022872840436    -0.516887301270     0.460614938944
    N            0.149631637906     0.329298677622     0.407002303717
    H           -1.565634409477    -0.330328110449     1.380193037327
    H           -1.708107374367    -0.373418781167    -0.378896882436
    C            0.910236056019     0.179758444259    -0.815411762157
    H           -0.123900686983     1.285456222949     0.516352393720
    H            1.664316631531     0.956254882298    -0.871225483437
    H            0.299804554851     0.240570788672    -1.720498708454
    H            1.413541937017    -0.781448578270    -0.819332663090

  Mulliken Charges: (a.u.)
   Center  Symbol    Alpha    Beta     Spin     Total
       1     H     0.41805  0.41805  0.00000  0.16391
       2     C     3.14577  3.14577  0.00000 -0.29153
       3     N     3.83743  3.83743  0.00000 -0.67486
       4     H     0.41666  0.41666  0.00000  0.16668
       5     H     0.43443  0.43443  0.00000  0.13115
       6     C     3.14537  3.14537  0.00000 -0.29073
       7     H     0.33268  0.33268  0.00000  0.33464
       8     H     0.41756  0.41756  0.00000  0.16487
       9     H     0.43468  0.43468  0.00000  0.13064
      10     H     0.41738  0.41738  0.00000  0.16523

   Total alpha = 13.00000, Total beta = 13.00000, Total charge =  0.00000
