                              Psi4 1.0.54 Driver

  ==> Input File <==

--------------------------------------------------------------------------
set {
	reference rhf
	basis cc-pvtz
}

set_num_threads( 4 )
memory 2 gb

molecule MOL {
0 1

H	 -4.230259	 0.539112	 0.036360
O	 -3.515113	 -0.019339	 -0.206321
C	 -2.302264	 0.528872	 0.237390
C	 -1.175688	 -0.398187	 -0.171891
H	 -2.148018	 1.514076	 -0.197759
H	 -2.310727	 0.646384	 1.319032
C	 0.196029	 0.106276	 0.266738
H	 -1.201873	 -0.515469	 -1.250677
H	 -1.365975	 -1.378728	 0.252664
C	 1.330220	 -0.826136	 -0.155230
H	 0.359542	 1.097229	 -0.145561
H	 0.212134	 0.218135	 1.348778
C	 2.719700	 -0.407669	 0.328325
H	 1.339388	 -0.911200	 -1.239363
H	 1.119001	 -1.821953	 0.224128
C	 3.188460	 -1.103518	 1.604028
H	 2.713864	 0.664390	 0.499677
H	 3.442783	 -0.582748	 -0.464098
H	 2.480813	 -0.951546	 2.412855
H	 3.306357	 -2.171368	 1.464444
H	 4.146018	 -0.710621	 1.926341

	symmetry c1
}
set optking {
	frozen_dihedral = ("
		16 13 10 14
	")
}

ee,wfn = optimize('scf', return_wfn=True)
oeprop( wfn, 'DIPOLE', 'QUADRUPOLE', 'MULLIKEN_CHARGES')
f=open( 'psi4out.xyz', 'w' )
f.write( "21  " )
f.write( str(ee) + "\n" )
f.write( MOL.save_string_xyz() )
f.close()
--------------------------------------------------------------------------

    Molecular point group: c1
  Charge       = 0
  Multiplicity = 1
  Basis Set: CC-PVTZ
  Basis Set:
  @DF-RHF Final Energy:  -310.33026182674763
    Total Energy =                       -310.3302618267480284
    Molecular point group: c1
  Basis Set: CC-PVTZ
  Basis Set:
  Basis Set: CC-PVTZ
  Basis Set:
  @DF-RHF Final Energy:  -310.33063419873662
    Total Energy =                       -310.3306341987367318
  Basis Set: CC-PVTZ
  Basis Set:
  Basis Set: CC-PVTZ
  Basis Set:
  @DF-RHF Final Energy:  -310.33067691528885
    Total Energy =                       -310.3306769152891320
  Basis Set: CC-PVTZ
  Basis Set:
  Charge       = 0
  Multiplicity = 1
  Basis Set: CC-PVTZ
  Basis Set:

    Orbital Energies (a.u.)
    -----------------------

    Doubly Occupied:

       1A    -20.545456     2A    -11.265107     3A    -11.214063
       4A    -11.212573     5A    -11.210737     6A    -11.208948
       7A    -11.206496     8A     -1.363322     9A     -1.086728
      10A     -1.034623    11A     -0.956586    12A     -0.871508
      13A     -0.805493    14A     -0.786775    15A     -0.696476
      16A     -0.662611    17A     -0.619768    18A     -0.610305
      19A     -0.588077    20A     -0.567293    21A     -0.539915
      22A     -0.522921    23A     -0.508902    24A     -0.487798
      25A     -0.479876    26A     -0.463034    27A     -0.453907
      28A     -0.443651    29A     -0.437451

  @DF-RHF Final Energy:  -310.33067761916442

   => Energetics <=

    Nuclear Repulsion Energy =            311.5041928308559704
    One-Electron Energy =               -1037.9689359839767349
    Two-Electron Energy =                 416.1340655339560612
    DFT Exchange-Correlation Energy =       0.0000000000000000
    Empirical Dispersion Energy =           0.0000000000000000
    PCM Polarization Energy =               0.0000000000000000
    EFP Energy =                            0.0000000000000000
    Total Energy =                       -310.3306776191646463
    Molecular point group: c1
  Basis Set: CC-PVTZ
  Basis Set:

  -Total Gradient:
     Atom            X                  Y                   Z
    ------   -----------------  -----------------  -----------------
       1        0.000005198516     0.000001145962     0.000001323697
       2        0.000001368461    -0.000005502285    -0.000003234730
       3        0.000002620643     0.000018041460    -0.000028711579
       4       -0.000026864730     0.000038909656    -0.000038517279
       5       -0.000004734290     0.000006191431     0.000002850991
       6        0.000004612420    -0.000012550198    -0.000004608008
       7       -0.000014039554     0.000003604344     0.000066486119
       8       -0.000008220453    -0.000010882085    -0.000009842193
       9        0.000026208241     0.000018614923     0.000022230341
      10       -0.000700521436     0.003370474748    -0.000856118704
      11        0.000008238084     0.000030137092     0.000030164400
      12        0.000016159512    -0.000025377576    -0.000011369752
      13       -0.001284266378     0.001732127276     0.001808124927
      14        0.000936775681    -0.003269769967     0.000303469408
      15        0.000120381747    -0.000037381551     0.000037413615
      16        0.001019678759    -0.001844613919    -0.001261766879
      17       -0.000107505109    -0.000016061194    -0.000059262177
      18        0.000031024424     0.000028160980    -0.000018711528
      19        0.000032654470    -0.000008345662     0.000027327420
      20       -0.000055089966    -0.000005628240    -0.000008190601
      21       -0.000003679044    -0.000011295198     0.000000942513

  **** Optimization is complete! (in 4 steps) ****
    Final optimized geometry and variables:
    Molecular point group: c1

    Geometry (in Angstrom), charge = 0, multiplicity = 1:

    H           -4.213895719231     0.858136865151    -0.202459562014
    O           -3.506352186838     0.293939741630    -0.453811044182
    C           -2.284556277211     0.827589721563    -0.017113214111
    C           -1.170567399164    -0.108228601276    -0.440626545719
    H           -2.124024404472     1.813583971572    -0.448128187099
    H           -2.282999234375     0.939146659703     1.065186860253
    C            0.209158881494     0.379901654532    -0.011473483343
    H           -1.206788607475    -0.219897796290    -1.519717606814
    H           -1.366441042241    -1.088982354182    -0.019151050582
    C            1.338278039416    -0.547268539751    -0.453514951271
    H            0.386549759707     1.372245962805    -0.419048348336
    H            0.235769826230     0.486648145464     1.070569532021
    C            2.730065832263    -0.107419941441     0.029311969942
    H            1.334090167305    -0.641643178840    -1.534769396049
    H            1.137291102027    -1.549017821949    -0.081997262121
    C            3.180098534786    -0.807592359131     1.309250204217
    H            2.743191759025     0.968402041713     0.175273461030
    H            3.461924148127    -0.312439022927    -0.745102794476
    H            2.480648130180    -0.640878860316     2.122202233643
    H            3.255319789521    -1.878436207456     1.155232271270
    H            4.150902796425    -0.449511495878     1.632956485675

  Mulliken Charges: (a.u.)
   Center  Symbol    Alpha    Beta     Spin     Total
       1     H     0.39760  0.39760  0.00000  0.20481
       2     O     4.19432  4.19432  0.00000 -0.38863
       3     C     2.96317  2.96317  0.00000  0.07366
       4     C     3.08545  3.08545  0.00000 -0.17091
       5     H     0.47483  0.47483  0.00000  0.05035
       6     H     0.47499  0.47499  0.00000  0.05003
       7     C     3.10032  3.10032  0.00000 -0.20064
       8     H     0.45090  0.45090  0.00000  0.09821
       9     H     0.45051  0.45051  0.00000  0.09898
      10     C     3.09487  3.09487  0.00000 -0.18973
      11     H     0.45481  0.45481  0.00000  0.09038
      12     H     0.45480  0.45480  0.00000  0.09040
      13     C     3.09058  3.09058  0.00000 -0.18116
      14     H     0.44698  0.44698  0.00000  0.10605
      15     H     0.45546  0.45546  0.00000  0.08908
      16     C     3.14707  3.14707  0.00000 -0.29413
      17     H     0.45521  0.45521  0.00000  0.08958
      18     H     0.44871  0.44871  0.00000  0.10258
      19     H     0.45575  0.45575  0.00000  0.08849
      20     H     0.45460  0.45460  0.00000  0.09080
      21     H     0.44909  0.44909  0.00000  0.10182

   Total alpha = 29.00000, Total beta = 29.00000, Total charge =  0.00000

*** Psi4 exiting successfully. Buy a developer a beer!
