  ==> Input File <==

--------------------------------------------------------------------------
set {
	reference rhf
	basis cc-pvtz
}

set_num_threads( 4 )
memory 2 gb

molecule MOL {
0 1

H	 -0.000000	 2.903000	 0.000000
C	 -0.000000	 1.827000	 0.000000
C	 1.192000	 1.128000	 -0.000000
C	 -1.192000	 1.128000	 -0.000000
H	 2.136000	 1.641000	 -0.000000
C	 1.144000	 -0.261000	 -0.000000
H	 -2.136000	 1.641000	 -0.000000
C	 -1.144000	 -0.261000	 -0.000000
N	 -0.000000	 -0.926000	 -0.000000
C	 2.399000	 -1.096000	 0.000000
C	 -2.398000	 -1.096000	 0.000000
H	 2.418000	 -1.739000	 -0.874000
H	 3.291000	 -0.482000	 -0.001000
H	 2.419000	 -1.738000	 0.875000
H	 -2.419000	 -1.738000	 -0.874000
H	 -3.291000	 -0.482000	 -0.000000
H	 -2.419000	 -1.738000	 0.874000

	symmetry c1
}
ee = optimize('scf')
oeprop('DIPOLE', 'QUADRUPOLE', 'MULLIKEN_CHARGES')
f=open( 'psi4out.xyz', 'w' )
f.write( "17  " )
f.write( str(ee) + "\n" )
f.write( MOL.save_string_xyz() )
f.close()
--------------------------------------------------------------------------

    Molecular point group: c1
  Charge       = 0
  Multiplicity = 1
  Basis Set: CC-PVTZ
  Basis Set:
  @DF-RHF Final Energy:  -324.88535062968742
    Total Energy =                       -324.8853506296873661
    Molecular point group: c1
  Basis Set: CC-PVTZ
  Basis Set:
  Basis Set: CC-PVTZ
  Basis Set:
  @DF-RHF Final Energy:  -324.88547484222903
    Total Energy =                       -324.8854748422292005
  Basis Set: CC-PVTZ
  Basis Set:
  Charge       = 0
  Multiplicity = 1
  Basis Set: CC-PVTZ
  Basis Set:

    Orbital Energies (a.u.)
    -----------------------

    Doubly Occupied:

       1A    -15.541446     2A    -11.270331     3A    -11.270313
       4A    -11.246090     5A    -11.221256     6A    -11.221208
       7A    -11.214450     8A    -11.214448     9A     -1.264087
      10A     -1.084065    11A     -1.072102    12A     -0.976922
      13A     -0.934375    14A     -0.832628    15A     -0.814647
      16A     -0.688468    17A     -0.672663    18A     -0.617193
      19A     -0.595813    20A     -0.578204    21A     -0.570136
      22A     -0.568755    23A     -0.535368    24A     -0.533630
      25A     -0.502195    26A     -0.500526    27A     -0.401750
      28A     -0.376425    29A     -0.327715

  @DF-RHF Final Energy:  -324.88547919937969

   => Energetics <=

    Nuclear Repulsion Energy =            348.8898371783343464
    One-Electron Energy =               -1130.2562132981129253
    Two-Electron Energy =                 456.4808969203987203
    DFT Exchange-Correlation Energy =       0.0000000000000000
    Empirical Dispersion Energy =           0.0000000000000000
    PCM Polarization Energy =               0.0000000000000000
    EFP Energy =                            0.0000000000000000
    Total Energy =                       -324.8854791993798585
    Molecular point group: c1
  Basis Set: CC-PVTZ
  Basis Set:

  -Total Gradient:
     Atom            X                  Y                   Z
    ------   -----------------  -----------------  -----------------
       1       -0.000000971562    -0.000007502224    -0.000000216331
       2       -0.000000575528     0.000021866426     0.000000851043
       3       -0.000026441924    -0.000008161575     0.000000585490
       4        0.000031592041    -0.000009303637     0.000000373274
       5       -0.000028559993    -0.000034872468     0.000000149883
       6        0.000073204968     0.000097974862    -0.000003211215
       7        0.000027442215    -0.000035276092    -0.000000201359
       8       -0.000107716545     0.000099286405    -0.000000817760
       9        0.000014924611    -0.000069671165     0.000000357331
      10        0.000032205029    -0.000022320554     0.000001067483
      11        0.000009013474    -0.000009931694     0.000000458297
      12        0.000006828721     0.000007549588     0.000024338075
      13       -0.000004903043    -0.000025479394     0.000000513992
      14        0.000008192152     0.000008400794    -0.000024371250
      15       -0.000014396159     0.000007163633     0.000016934567
      16       -0.000005190161    -0.000026698484     0.000000038361
      17       -0.000014648297     0.000006975579    -0.000016849879

  **** Optimization is complete! (in 3 steps) ****
    Final optimized geometry and variables:
    Molecular point group: c1

    Geometry (in Angstrom), charge = 0, multiplicity = 1:

    H            0.000068212650     2.878742906047     0.000017440993
    C            0.000049572114     1.804801584478     0.000009181241
    C            1.189631916846     1.108194348500    -0.000035365866
    C           -1.189575705666     1.108253528121     0.000033048839
    H            2.131055897435     1.620564518287    -0.000056498318
    C            1.142336478221    -0.276706461008    -0.000048817772
    H           -2.130972946368     1.620675740234     0.000059706910
    C           -1.142369990992    -0.276636916598     0.000010201195
    N           -0.000020535895    -0.938297628138    -0.000028905004
    C            2.395748927424    -1.108438196935     0.000006280835
    C           -2.395784613007    -1.108292708237     0.000035492905
    H            2.414407362401    -1.749426271018    -0.872550814482
    H            3.285021047248    -0.492757222442    -0.000702083843
    H            2.415079286742    -1.748292272419     0.873390797803
    H           -2.414901499433    -1.748690427767    -0.872962567408
    H           -3.285059162451    -0.492589672669     0.000073075598
    H           -2.414848475918    -1.748719898516     0.873013236191

  Mulliken Charges: (a.u.)
   Center  Symbol    Alpha    Beta     Spin     Total
       1     H     0.42219  0.42219  0.00000  0.15562
       2     C     3.08149  3.08149  0.00000 -0.16299
       3     C     3.10271  3.10271  0.00000 -0.20542
       4     C     3.10271  3.10271  0.00000 -0.20542
       5     H     0.41586  0.41586  0.00000  0.16828
       6     C     2.94532  2.94532  0.00000  0.10935
       7     H     0.41586  0.41586  0.00000  0.16828
       8     C     2.94531  2.94531  0.00000  0.10938
       9     N     3.60660  3.60660  0.00000 -0.21319
      10     C     3.13461  3.13461  0.00000 -0.26922
      11     C     3.13461  3.13461  0.00000 -0.26922
      12     H     0.44586  0.44586  0.00000  0.10827
      13     H     0.45462  0.45462  0.00000  0.09075
      14     H     0.44587  0.44587  0.00000  0.10825
      15     H     0.44587  0.44587  0.00000  0.10826
      16     H     0.45463  0.45463  0.00000  0.09074
      17     H     0.44587  0.44587  0.00000  0.10826

   Total alpha = 29.00000, Total beta = 29.00000, Total charge =  0.00000
