  ==> Input File <==

--------------------------------------------------------------------------
set {
	reference rhf
	basis 6-31G*
}

set_num_threads( 4 )
memory 2 gb

molecule MOL {
0 1

O	 -0.998506	 1.319478	 2.483205
C	 -0.563894	 1.752497	 1.459466
C	 0.692431	 1.167909	 0.838010
C	 -1.253086	 2.874886	 0.716073
C	 0.379448	 -0.143569	 0.099626
H	 1.395834	 0.972568	 1.640114
H	 1.147505	 1.879269	 0.154708
C	 1.631333	 -0.777471	 -0.511575
H	 -0.088737	 -0.823713	 0.802187
H	 -0.348107	 0.044305	 -0.688481
C	 2.915987	 -0.544314	 0.291766
H	 1.766672	 -0.399098	 -1.523130
H	 1.471257	 -1.849544	 -0.605828
C	 3.373361	 0.914346	 0.347591
H	 3.708709	 -1.142521	 -0.150311
H	 2.780642	 -0.921148	 1.303579
H	 3.506512	 1.320010	 -0.651625
H	 4.322697	 0.999599	 0.867103
H	 2.660624	 1.545032	 0.868198
H	 -0.619807	 3.758181	 0.719448
H	 -2.196685	 3.107937	 1.189458
H	 -1.418294	 2.603520	 -0.322615

	symmetry c1
}
set optking {
	frozen_dihedral = ("
		3 5 8 12
	")
}

ee = optimize('scf')
oeprop('DIPOLE', 'QUADRUPOLE', 'MULLIKEN_CHARGES')
f=open( 'psi4out.xyz', 'w' )
f.write( "22  " )
f.write( str(ee) + "\n" )
f.write( MOL.save_string_xyz() )
f.close()
--------------------------------------------------------------------------

    Molecular point group: c1
  Charge       = 0
  Multiplicity = 1
  Basis Set: 6-31G*
  Basis Set:
  @DF-RHF Final Energy:  -348.06488970703327
    Total Energy =                       -348.0648897070332737
    Molecular point group: c1
  Basis Set: 6-31G*
  Basis Set:
  Basis Set: 6-31G*
  Basis Set:
  @DF-RHF Final Energy:  -348.08318551583818
    Total Energy =                       -348.0831855158382950
  Basis Set: 6-31G*
  Basis Set:
  Basis Set: 6-31G*
  Basis Set:
  @DF-RHF Final Energy:  -348.08813434018987
    Total Energy =                       -348.0881343401898107
  Basis Set: 6-31G*
  Basis Set:
  Basis Set: 6-31G*
  Basis Set:
  @DF-RHF Final Energy:  -348.08950655218263
    Total Energy =                       -348.0895065521829110
  Basis Set: 6-31G*
  Basis Set:
  @DF-RHF Final Energy:  -348.08733874855335
    Total Energy =                       -348.0873387485534067
  @DF-RHF Final Energy:  -348.09028040800087
    Total Energy =                       -348.0902804080008650
  @DF-RHF Final Energy:  -348.08914013253775
    Total Energy =                       -348.0891401325377501
  @DF-RHF Final Energy:  -348.08977299274886
    Total Energy =                       -348.0897729927486921
  @DF-RHF Final Energy:  -348.09052348590296
    Total Energy =                       -348.0905234859030770
  @DF-RHF Final Energy:  -348.09052471892591
    Total Energy =                       -348.0905247189262468
  Basis Set: 6-31G*
  Basis Set:
  @DF-RHF Final Energy:  -348.09054286196454
    Total Energy =                       -348.0905428619645363
  Basis Set: 6-31G*
  Basis Set:
  Basis Set: 6-31G*
  Basis Set:
  @DF-RHF Final Energy:  -348.09054518621633
    Total Energy =                       -348.0905451862162181
  Basis Set: 6-31G*
  Basis Set:
  Basis Set: 6-31G*
  Basis Set:
  @DF-RHF Final Energy:  -348.09054627596117
    Total Energy =                       -348.0905462759611737
  Basis Set: 6-31G*
  Basis Set:
  Charge       = 0
  Multiplicity = 1
  Basis Set: 6-31G*
  Basis Set:

    Orbital Energies (a.u.)
    -----------------------

    Doubly Occupied:

       1A    -20.547438     2A    -11.324370     3A    -11.230857
       4A    -11.228642     5A    -11.228182     6A    -11.222978
       7A    -11.221796     8A    -11.213156     9A     -1.393200
      10A     -1.093283    11A     -1.041827    12A     -0.998837
      13A     -0.945719    14A     -0.857706    15A     -0.782972
      16A     -0.734723    17A     -0.656396    18A     -0.654935
      19A     -0.620219    20A     -0.607377    21A     -0.600942
      22A     -0.590921    23A     -0.558035    24A     -0.549374
      25A     -0.536848    26A     -0.521973    27A     -0.501930
      28A     -0.488059    29A     -0.465937    30A     -0.460849
      31A     -0.456005    32A     -0.396358

  @DF-RHF Final Energy:  -348.09054617898801

   => Energetics <=

    Nuclear Repulsion Energy =            379.1133633401093448
    One-Electron Energy =               -1222.9441313210663793
    Two-Electron Energy =                 495.7402218019691418
    DFT Exchange-Correlation Energy =       0.0000000000000000
    Empirical Dispersion Energy =           0.0000000000000000
    PCM Polarization Energy =               0.0000000000000000
    EFP Energy =                            0.0000000000000000
    Total Energy =                       -348.0905461789878927
    Molecular point group: c1
  Basis Set: 6-31G*
  Basis Set:

  -Total Gradient:
     Atom            X                  Y                   Z
    ------   -----------------  -----------------  -----------------
       1       -0.000006781177    -0.000017138399    -0.000008749739
       2        0.000012933132     0.000048235065     0.000021556960
       3        0.000456827701    -0.002374114089     0.003600445105
       4       -0.000003204455    -0.000006718798    -0.000001581296
       5       -0.001476156207     0.002416725661    -0.005814211964
       6       -0.000009735998    -0.000017700555    -0.000011609970
       7       -0.000003539991    -0.000008075589    -0.000005327804
       8        0.004089850602     0.004148465038     0.004491006736
       9        0.000037745403     0.000010083620     0.000032308349
      10       -0.000045466266     0.000150637839     0.000073996862
      11       -0.000040594673     0.000008411078    -0.000005195383
      12       -0.003136713738    -0.004378853673    -0.002331127726
      13        0.000123154940    -0.000024112029    -0.000043824510
      14       -0.000004378153     0.000038063100     0.000026075136
      15       -0.000005308437    -0.000013006138    -0.000011856508
      16       -0.000010588403     0.000012908710    -0.000011030382
      17       -0.000005853763     0.000006119736     0.000003946559
      18        0.000004805035     0.000003147076    -0.000005336713
      19        0.000021538191    -0.000000466412     0.000005053458
      20        0.000002053697     0.000000293656    -0.000002441578
      21        0.000000324887    -0.000001241705    -0.000000915840
      22       -0.000000912331    -0.000001663189    -0.000001179755

  **** Optimization is complete! (in 14 steps) ****
    Final optimized geometry and variables:
    Molecular point group: c1

    Geometry (in Angstrom), charge = 0, multiplicity = 1:

    O           -1.949498917512     0.402446029328     1.762786986678
    C           -1.512651004636     0.901364615217     0.770520435009
    C           -0.172366679041     0.465581893897     0.203870708942
    C           -2.274027241183     1.970291982951     0.018163063571
    C           -0.343547765105    -0.824578505522    -0.616619274125
    H            0.490138502117     0.288830249861     1.041317207822
    H            0.250210900835     1.256409515131    -0.408649397885
    C            0.932708956846    -1.444318759118    -1.223062883895
    H           -0.797629165353    -1.554022961282     0.047253350976
    H           -1.058479697158    -0.656194355108    -1.418036844250
    C            2.222592691141    -1.403595315363    -0.388981071070
    H            1.107703707849    -1.037001757584    -2.216769061338
    H            0.692030557636    -2.488843169138    -1.406461862121
    C            3.070216280227    -0.139180661146    -0.552192807265
    H            2.835309179971    -2.251513226616    -0.682540375902
    H            1.986940569844    -1.560332170310     0.660958049534
    H            3.345016058070     0.006005247686    -1.593196466797
    H            3.988520023202    -0.218915748060     0.021646551571
    H            2.556224167225     0.755030748336    -0.220566196317
    H           -1.741724217666     2.915140739531     0.090142209974
    H           -3.263720005085     2.084084419260     0.438069404673
    H           -2.346519427450     1.723225213907    -1.036871760857

  Mulliken Charges: (a.u.)
   Center  Symbol    Alpha    Beta     Spin     Total
       1     O     4.26227  4.26227  0.00000 -0.52454
       2     C     2.73699  2.73699  0.00000  0.52601
       3     C     3.20300  3.20300  0.00000 -0.40599
       4     C     3.28934  3.28934  0.00000 -0.57867
       5     C     3.16373  3.16373  0.00000 -0.32747
       6     H     0.39921  0.39921  0.00000  0.20159
       7     H     0.41670  0.41670  0.00000  0.16659
       8     C     3.15533  3.15533  0.00000 -0.31066
       9     H     0.40644  0.40644  0.00000  0.18712
      10     H     0.41873  0.41873  0.00000  0.16254
      11     C     3.15938  3.15938  0.00000 -0.31876
      12     H     0.42156  0.42156  0.00000  0.15689
      13     H     0.41690  0.41690  0.00000  0.16621
      14     C     3.24097  3.24097  0.00000 -0.48193
      15     H     0.41792  0.41792  0.00000  0.16416
      16     H     0.41823  0.41823  0.00000  0.16354
      17     H     0.42145  0.42145  0.00000  0.15709
      18     H     0.41830  0.41830  0.00000  0.16341
      19     H     0.41997  0.41997  0.00000  0.16006
      20     H     0.40671  0.40671  0.00000  0.18658
      21     H     0.39704  0.39704  0.00000  0.20592
      22     H     0.40984  0.40984  0.00000  0.18032

   Total alpha = 32.00000, Total beta = 32.00000, Total charge = -0.00000
