  ==> Input File <==

--------------------------------------------------------------------------
set {
	reference rhf
	basis 6-31G*
}

set_num_threads( 1 )
memory 2 gb

molecule MOL {
0 1

O	 -1.230672	 0.061110	 -1.880292
C	 -1.280184	 0.592915	 -0.818688
C	 -2.067644	 1.838291	 -0.513251
O	 -0.632575	 0.154573	 0.251549
H	 -1.400465	 2.615913	 -0.159523
H	 -2.582463	 2.169019	 -1.402867
H	 -2.782449	 1.635157	 0.275766
C	 0.160891	 -1.019931	 0.106212
C	 1.589627	 -0.672828	 0.480843
H	 0.089836	 -1.367806	 -0.916050
H	 -0.238459	 -1.792301	 0.749618
C	 2.246377	 0.346236	 -0.452210
H	 2.163194	 -1.597435	 0.473358
H	 1.604769	 -0.303424	 1.502885
C	 3.691736	 0.652107	 -0.061850
H	 2.219579	 -0.032311	 -1.472055
H	 1.666466	 1.263317	 -0.447249
H	 4.134505	 1.377213	 -0.737283
H	 4.305508	 -0.243868	 -0.089969
H	 3.748266	 1.059562	 0.943567

	symmetry c1
}
set optking {
	frozen_dihedral = ("
		16 12 9 8,
		12 9 8 10,
		1 2 4 8
	")
}

ee = energy('scf')
oeprop('DIPOLE', 'QUADRUPOLE', 'MULLIKEN_CHARGES')
f=open( 'psi4out.xyz', 'w' )
f.write( "20  " )
f.write( str(ee) + "\n" )
f.write( MOL.save_string_xyz() )
f.close()
--------------------------------------------------------------------------

    Molecular point group: c1

    Geometry (in Angstrom), charge = 0, multiplicity = 1:

       Center              X                  Y                   Z               Mass
    ------------   -----------------  -----------------  -----------------  -----------------
           O         -1.534905941265    -0.189672557334    -1.514618448233    15.994914619560
           C         -1.584417941265     0.342132442666    -0.453014448233    12.000000000000
           C         -2.371877941265     1.587508442666    -0.147577448233    12.000000000000
           O         -0.936808941265    -0.096209557334     0.617222551767    15.994914619560
           H         -1.704698941265     2.365130442666     0.206150551767     1.007825032070
           H         -2.886696941265     1.918236442666    -1.037193448233     1.007825032070
           H         -3.086682941265     1.384374442666     0.641439551767     1.007825032070
           C         -0.143342941265    -1.270713557334     0.471885551767    12.000000000000
           C          1.285393058735    -0.923610557334     0.846516551767    12.000000000000
           H         -0.214397941265    -1.618588557334    -0.550376448233     1.007825032070
           H         -0.542692941265    -2.043083557334     1.115291551767     1.007825032070
           C          1.942143058735     0.095453442666    -0.086536448233    12.000000000000
           H          1.858960058735    -1.848217557334     0.839031551767     1.007825032070
           H          1.300535058735    -0.554206557334     1.868558551767     1.007825032070
           C          3.387502058735     0.401324442666     0.303823551767    12.000000000000
           H          1.915345058735    -0.283093557334    -1.106381448233     1.007825032070
           H          1.362232058735     1.012534442666    -0.081575448233     1.007825032070
           H          3.830271058735     1.126430442666    -0.371609448233     1.007825032070
           H          4.001274058735    -0.494650557334     0.275704551767     1.007825032070
           H          3.444032058735     0.808779442666     1.309240551767     1.007825032070

  Charge       = 0
  Multiplicity = 1
  Basis Set: 6-31G*
  Basis Set:

    Orbital Energies (a.u.)
    -----------------------

    Doubly Occupied:

       1A    -20.601767     2A    -20.543570     3A    -11.376076
       4A    -11.277792     5A    -11.234202     6A    -11.222455
       7A    -11.219240     8A    -11.212165     9A     -1.468812
      10A     -1.362745    11A     -1.083552    12A     -1.028785
      13A     -0.980166    14A     -0.882756    15A     -0.807460
      16A     -0.773373    17A     -0.695521    18A     -0.682030
      19A     -0.663527    20A     -0.630752    21A     -0.601793
      22A     -0.592555    23A     -0.572932    24A     -0.548322
      25A     -0.543652    26A     -0.532517    27A     -0.505012
      28A     -0.489623    29A     -0.476700    30A     -0.470628
      31A     -0.442060    32A     -0.438002

  @DF-RHF Final Energy:  -383.94260231261671

   => Energetics <=

    Nuclear Repulsion Energy =            392.7337925275302268
    One-Electron Energy =               -1301.4317871423013457
    Two-Electron Energy =                 524.7553923021529272
    DFT Exchange-Correlation Energy =       0.0000000000000000
    Empirical Dispersion Energy =           0.0000000000000000
    PCM Polarization Energy =               0.0000000000000000
    EFP Energy =                            0.0000000000000000
    Total Energy =                       -383.9426023126181917

  Mulliken Charges: (a.u.)
   Center  Symbol    Alpha    Beta     Spin     Total
       1     O     4.28413  4.28413  0.00000 -0.56825
       2     C     2.61805  2.61805  0.00000  0.76391
       3     C     3.28320  3.28320  0.00000 -0.56639
       4     O     4.30763  4.30763  0.00000 -0.61526
       5     H     0.40059  0.40059  0.00000  0.19883
       6     H     0.39669  0.39669  0.00000  0.20662
       7     H     0.39990  0.39990  0.00000  0.20020
       8     C     3.01899  3.01899  0.00000 -0.03799
       9     C     3.15967  3.15967  0.00000 -0.31933
      10     H     0.39074  0.39074  0.00000  0.21851
      11     H     0.41200  0.41200  0.00000  0.17600
      12     C     3.15662  3.15662  0.00000 -0.31324
      13     H     0.42080  0.42080  0.00000  0.15840
      14     H     0.41578  0.41578  0.00000  0.16843
      15     C     3.23986  3.23986  0.00000 -0.47973
      16     H     0.41681  0.41681  0.00000  0.16639
      17     H     0.41868  0.41868  0.00000  0.16263
      18     H     0.41736  0.41736  0.00000  0.16527
      19     H     0.42135  0.42135  0.00000  0.15730
      20     H     0.42116  0.42116  0.00000  0.15769

   Total alpha = 32.00000, Total beta = 32.00000, Total charge =  0.00000
