  ==> Input File <==

--------------------------------------------------------------------------
set {
	reference rhf
	basis 6-31G*
}

set_num_threads( 4 )
memory 2 gb

molecule MOL {
0 1

O	 0.008443	 -0.256292	 -0.173229
C	 1.122059	 0.121804	 -0.000188
C	 1.535718	 1.552624	 0.243811
O	 2.172624	 -0.688929	 0.000216
C	 0.363883	 2.529386	 0.252809
H	 2.076622	 1.578025	 1.185899
H	 2.261649	 1.815649	 -0.520778
C	 0.810485	 3.970933	 0.501518
H	 -0.348079	 2.227955	 1.014881
H	 -0.163112	 2.465559	 -0.694136
C	 -0.357268	 4.956463	 0.510866
H	 1.338628	 4.029106	 1.451127
H	 1.525651	 4.266956	 -0.263321
H	 -1.073538	 4.707342	 1.288394
H	 -0.013642	 5.970537	 0.689339
H	 -0.884783	 4.947341	 -0.438494
C	 3.452279	 -0.082609	 0.000533
H	 3.583069	 0.529321	 -0.880332
H	 4.163299	 -0.894027	 0.001117
H	 3.582335	 0.529955	 0.881077

	symmetry c1
}
set optking {
	frozen_dihedral = ("
		1 2 4 17
	")
}

ee = optimize('scf')
oeprop('DIPOLE', 'QUADRUPOLE', 'MULLIKEN_CHARGES')
f=open( 'psi4out.xyz', 'w' )
f.write( "20  " )
f.write( str(ee) + "\n" )
f.write( MOL.save_string_xyz() )
f.close()
--------------------------------------------------------------------------

    Molecular point group: c1
  Charge       = 0
  Multiplicity = 1
  Basis Set: 6-31G*
  Basis Set:
  @DF-RHF Final Energy:  -383.91406964422805
    Total Energy =                       -383.9140696442276521
    Molecular point group: c1
  Basis Set: 6-31G*
  Basis Set:
  Basis Set: 6-31G*
  Basis Set:
  @DF-RHF Final Energy:  -383.91172287300111
    Total Energy =                       -383.9117228730012243
  Basis Set: 6-31G*
  Basis Set:
  Basis Set: 6-31G*
  Basis Set:
  @DF-RHF Final Energy:  -383.92239854573438
    Total Energy =                       -383.9223985457343815
  Basis Set: 6-31G*
  Basis Set:
  Basis Set: 6-31G*
  Basis Set:
  @DF-RHF Final Energy:  -383.92524413220337
    Total Energy =                       -383.9252441322031473
  Basis Set: 6-31G*
  Basis Set:
  @DF-RHF Final Energy:  -383.92464956953586
    Total Energy =                       -383.9246495695356316
  @DF-RHF Final Energy:  -383.92570247109074
    Total Energy =                       -383.9257024710904034
  Basis Set: 6-31G*
  Basis Set:
  @DF-RHF Final Energy:  -383.92624650955111
    Total Energy =                       -383.9262465095509924
  Basis Set: 6-31G*
  Basis Set:
  Basis Set: 6-31G*
  Basis Set:
  @DF-RHF Final Energy:  -383.92624916231381
    Total Energy =                       -383.9262491623139795
  Basis Set: 6-31G*
  Basis Set:
  Basis Set: 6-31G*
  Basis Set:
  @DF-RHF Final Energy:  -383.92625267081661
    Total Energy =                       -383.9262526708164387
  Basis Set: 6-31G*
  Basis Set:
  Charge       = 0
  Multiplicity = 1
  Basis Set: 6-31G*
  Basis Set:

    Orbital Energies (a.u.)
    -----------------------

    Doubly Occupied:

       1A    -20.602008     2A    -20.539274     3A    -11.373934
       4A    -11.296610     5A    -11.246012     6A    -11.224456
       7A    -11.223581     8A    -11.213515     9A     -1.463017
      10A     -1.364739    11A     -1.091959    12A     -1.017188
      13A     -0.985664    14A     -0.902015    15A     -0.810823
      16A     -0.767401    17A     -0.700549    18A     -0.689720
      19A     -0.672709    20A     -0.650049    21A     -0.600920
      22A     -0.595088    23A     -0.589361    24A     -0.552285
      25A     -0.541441    26A     -0.523585    27A     -0.511018
      28A     -0.482557    29A     -0.474457    30A     -0.474331
      31A     -0.446470    32A     -0.430541

  @DF-RHF Final Energy:  -383.92625285561752

   => Energetics <=

    Nuclear Repulsion Energy =            383.1838732383505999
    One-Electron Energy =               -1282.1057046943919886
    Two-Electron Energy =                 514.9955786004237552
    DFT Exchange-Correlation Energy =       0.0000000000000000
    Empirical Dispersion Energy =           0.0000000000000000
    PCM Polarization Energy =               0.0000000000000000
    EFP Energy =                            0.0000000000000000
    Total Energy =                       -383.9262528556176903
    Molecular point group: c1
  Basis Set: 6-31G*
  Basis Set:

  -Total Gradient:
     Atom            X                  Y                   Z
    ------   -----------------  -----------------  -----------------
       1        0.000074145937     0.000170071134    -0.001014336046
       2       -0.000156649443    -0.000215756701     0.000910170025
       3       -0.000001248286    -0.000005906041    -0.000003105655
       4        0.000067906858     0.000084733099     0.001025224147
       5        0.000001078007    -0.000002642169     0.000002711699
       6       -0.000000002208    -0.000006542378     0.000000805908
       7       -0.000006831976    -0.000006972445     0.000005923714
       8       -0.000000247490     0.000002628889    -0.000000335883
       9       -0.000002764561     0.000000085547     0.000001789085
      10       -0.000000164967     0.000000265441    -0.000003508474
      11       -0.000001367069    -0.000003244137     0.000000644270
      12       -0.000000036675    -0.000001994955    -0.000000184081
      13       -0.000000142491    -0.000001263243    -0.000001054790
      14       -0.000000899120     0.000000324302     0.000000644594
      15        0.000001770677    -0.000002186424     0.000000096820
      16       -0.000000049936     0.000000274522    -0.000000671822
      17        0.000000425239    -0.000020215031    -0.000929701056
      18        0.000009838521    -0.000000664753     0.000006285316
      19        0.000019881194     0.000006933826     0.000002694174
      20       -0.000004642212     0.000002071517    -0.000004091943

  **** Optimization is complete! (in 10 steps) ****
    Final optimized geometry and variables:
    Molecular point group: c1

    Geometry (in Angstrom), charge = 0, multiplicity = 1:

    O           -1.077883361201    -1.674413190291    -0.331884240724
    C            0.034445403255    -1.305666114934    -0.162932171764
    C            0.401012651387     0.145310360145     0.082013178866
    O            1.021644808642    -2.205991678970    -0.169670805205
    C           -0.816600267174     1.066117746146     0.091068876714
    H            0.931295972239     0.208948993246     1.029098444672
    H            1.108266304403     0.463905048171    -0.679282765642
    C           -0.436823581640     2.526135550962     0.342691164180
    H           -1.513050522948     0.728330106774     0.851074237609
    H           -1.337569575219     0.977019447040    -0.856346372718
    C           -1.649984704306     3.455251370751     0.354107113066
    H            0.087829260305     2.608005271931     1.292666779211
    H            0.263140778818     2.858021065817    -0.421784055578
    H           -2.353094203531     3.170960460682     1.131410755837
    H           -1.354440235615     4.484014199311     0.534241146629
    H           -2.176720301891     3.422580296847    -0.595051534142
    C            2.384334046003    -1.853460336060    -0.182920533653
    H            2.638297978487    -1.283705711808    -1.068204774752
    H            2.927321252751    -2.785573111502    -0.198368277059
    H            2.666876707393    -1.296103700727     0.701081779257

  Mulliken Charges: (a.u.)
   Center  Symbol    Alpha    Beta     Spin     Total
       1     O     4.26732  4.26732  0.00000 -0.53464
       2     C     2.59724  2.59724  0.00000  0.80551
       3     C     3.23494  3.23494  0.00000 -0.46987
       4     O     4.30355  4.30355  0.00000 -0.60711
       5     C     3.14727  3.14727  0.00000 -0.29453
       6     H     0.40339  0.40339  0.00000  0.19322
       7     H     0.40503  0.40503  0.00000  0.18994
       8     C     3.15487  3.15487  0.00000 -0.30974
       9     H     0.40874  0.40874  0.00000  0.18253
      10     H     0.40918  0.40918  0.00000  0.18165
      11     C     3.23954  3.23954  0.00000 -0.47907
      12     H     0.42365  0.42365  0.00000  0.15271
      13     H     0.42395  0.42395  0.00000  0.15210
      14     H     0.41901  0.41901  0.00000  0.16198
      15     H     0.41847  0.41847  0.00000  0.16307
      16     H     0.41915  0.41915  0.00000  0.16171
      17     C     3.09352  3.09352  0.00000 -0.18704
      18     H     0.41619  0.41619  0.00000  0.16763
      19     H     0.39780  0.39780  0.00000  0.20441
      20     H     0.41722  0.41722  0.00000  0.16556

   Total alpha = 32.00000, Total beta = 32.00000, Total charge = -0.00000
