  ==> Input File <==

--------------------------------------------------------------------------
set {
	reference rhf
	basis cc-pvtz
}

set_num_threads( 4 )
memory 2 gb

molecule MOL {
0 1

H	 -1.770961	 -0.852802	 0.530088
O	 -2.041679	 -0.058866	 0.103463
C	 -0.959304	 0.780994	 -0.094939
C	 0.354905	 0.037902	 -0.006215
H	 -0.985899	 1.279578	 -1.057596
H	 -0.969809	 1.529522	 0.682889
F	 0.412060	 -0.931028	 -0.902708
F	 1.359641	 0.856111	 -0.239961
F	 0.545380	 -0.506387	 1.171682

	symmetry c1
}
set optking {
	frozen_dihedral = ("
		1 2 3 5
	")
}

ee = optimize('scf')
oeprop('DIPOLE', 'QUADRUPOLE', 'MULLIKEN_CHARGES')
f=open( 'psi4out.xyz', 'w' )
f.write( "9  " )
f.write( str(ee) + "\n" )
f.write( MOL.save_string_xyz() )
f.close()
--------------------------------------------------------------------------

    Molecular point group: c1
  Charge       = 0
  Multiplicity = 1
  Basis Set: CC-PVTZ
  Basis Set:
  @DF-RHF Final Energy:  -450.84280146068318
    Total Energy =                       -450.8428014606831198
    Molecular point group: c1
  Basis Set: CC-PVTZ
  Basis Set:
  Basis Set: CC-PVTZ
  Basis Set:
  @DF-RHF Final Energy:  -450.84404261339830
    Total Energy =                       -450.8440426133981305
  Basis Set: CC-PVTZ
  Basis Set:
  Basis Set: CC-PVTZ
  Basis Set:
  @DF-RHF Final Energy:  -450.84427731533532
    Total Energy =                       -450.8442773153354892
  Basis Set: CC-PVTZ
  Basis Set:
  Basis Set: CC-PVTZ
  Basis Set:
  @DF-RHF Final Energy:  -450.84431148961323
    Total Energy =                       -450.8443114896132897
  Basis Set: CC-PVTZ
  Basis Set:
  Charge       = 0
  Multiplicity = 1
  Basis Set: CC-PVTZ
  Basis Set:

    Orbital Energies (a.u.)
    -----------------------

    Doubly Occupied:

       1A    -26.346000     2A    -26.345549     3A    -26.342393
       4A    -20.581047     5A    -11.500947     6A    -11.310133
       7A     -1.754427     8A     -1.651863     9A     -1.648706
      10A     -1.404183    11A     -1.053683    12A     -0.934562
      13A     -0.843765    14A     -0.842863    15A     -0.821035
      16A     -0.727899    17A     -0.725396    18A     -0.690076
      19A     -0.677439    20A     -0.675508    21A     -0.655726
      22A     -0.645357    23A     -0.625678    24A     -0.528270
      25A     -0.482692

  @DF-RHF Final Energy:  -450.84431509125608

   => Energetics <=

    Nuclear Repulsion Energy =            278.0242153310306890
    One-Electron Energy =               -1178.1066705669209114
    Two-Electron Energy =                 449.2381401446340305
    DFT Exchange-Correlation Energy =       0.0000000000000000
    Empirical Dispersion Energy =           0.0000000000000000
    PCM Polarization Energy =               0.0000000000000000
    EFP Energy =                            0.0000000000000000
    Total Energy =                       -450.8443150912561350
    Molecular point group: c1
  Basis Set: CC-PVTZ
  Basis Set:

  -Total Gradient:
     Atom            X                  Y                   Z
    ------   -----------------  -----------------  -----------------
       1        0.000544340874    -0.001327393844    -0.002538102667
       2       -0.000334032284     0.001185814754     0.002904709584
       3       -0.001502177087     0.002124366728     0.000556298566
       4       -0.000104641778    -0.000095472164     0.000113906386
       5        0.001296699931    -0.001968274905    -0.000863454637
       6        0.000011522723     0.000045501148     0.000001735789
       7        0.000107969874    -0.000011610650    -0.000145441368
       8       -0.000027100014    -0.000065185317    -0.000016353062
       9        0.000007417757     0.000112254252    -0.000013298593

  **** Optimization is complete! (in 5 steps) ****
    Final optimized geometry and variables:
    Molecular point group: c1

    Geometry (in Angstrom), charge = 0, multiplicity = 1:

    H           -1.811228735772    -0.837874668041     0.578056119918
    O           -2.054524889417    -0.057242650743     0.113045633490
    C           -0.965027739475     0.775709066033    -0.100515496249
    C            0.353685389059     0.041342983206    -0.033154063009
    H           -1.033862129495     1.195584606135    -1.094165296498
    H           -0.926657257100     1.577262138544     0.627368481678
    F            0.460413670184    -0.874866013572    -0.970689836981
    F            1.354805775345     0.879690659283    -0.172238822777
    F            0.500728902792    -0.575353992154     1.126282499883

  Mulliken Charges: (a.u.)
   Center  Symbol    Alpha    Beta     Spin     Total
       1     H     0.38647  0.38647  0.00000  0.22706
       2     O     4.19536  4.19536  0.00000 -0.39072
       3     C     2.97122  2.97122  0.00000  0.05755
       4     C     2.68925  2.68925  0.00000  0.62149
       5     H     0.45765  0.45765  0.00000  0.08469
       6     H     0.46489  0.46489  0.00000  0.07023
       7     F     4.61022  4.61022  0.00000 -0.22044
       8     F     4.60804  4.60804  0.00000 -0.21608
       9     F     4.61690  4.61690  0.00000 -0.23379

   Total alpha = 25.00000, Total beta = 25.00000, Total charge =  0.00000
