  ==> Input File <==

--------------------------------------------------------------------------
set {
	reference rhf
	basis 6-31G*
}

set_num_threads( 4 )
memory 2 gb

molecule MOL {
0 1

H	 3.290678	 3.309784	 -3.409781
C	 3.493583	 2.623512	 -2.593459
C	 2.275203	 2.471690	 -1.683691
H	 3.777340	 1.668954	 -3.026637
H	 4.349929	 3.006066	 -2.044712
C	 2.529749	 1.514881	 -0.516843
H	 1.433945	 2.113620	 -2.268218
H	 1.994241	 3.448529	 -1.293129
C	 1.333400	 1.356657	 0.421763
H	 2.808033	 0.539603	 -0.900294
H	 3.373933	 1.879613	 0.063988
C	 0.169600	 0.576866	 -0.172154
H	 1.638979	 0.821437	 1.319500
H	 0.977332	 2.325698	 0.764328
C	 -1.181045	 0.701995	 0.511084
O	 0.309504	 -0.124148	 -1.128926
C	 -2.285934	 -0.139295	 -0.145128
H	 -1.449051	 1.751551	 0.493206
H	 -1.071135	 0.403303	 1.551943
C	 -3.651768	 0.085446	 0.506485
H	 -2.346596	 0.110469	 -1.202272
H	 -2.034737	 -1.195320	 -0.088721
C	 -4.759797	 -0.746382	 -0.137905
H	 -3.908762	 1.140117	 0.445781
H	 -3.588286	 -0.154158	 1.565709
H	 -4.868882	 -0.505166	 -1.191300
H	 -4.548009	 -1.809175	 -0.062213
H	 -5.715422	 -0.564821	 0.343442

	symmetry c1
}
set optking {
	frozen_dihedral = ("
		16 12 15 17
	")
}

ee = optimize('scf')
oeprop('DIPOLE', 'QUADRUPOLE', 'MULLIKEN_CHARGES')
f=open( 'psi4out.xyz', 'w' )
f.write( "28  " )
f.write( str(ee) + "\n" )
f.write( MOL.save_string_xyz() )
f.close()
--------------------------------------------------------------------------

    Molecular point group: c1
  Charge       = 0
  Multiplicity = 1
  Basis Set: 6-31G*
  Basis Set:
  @DF-RHF Final Energy:  -426.17097119925563
    Total Energy =                       -426.1709711992557459
    Molecular point group: c1
  Basis Set: 6-31G*
  Basis Set:
  Basis Set: 6-31G*
  Basis Set:
  @DF-RHF Final Energy:  -426.17122888416293
    Total Energy =                       -426.1712288841630425
  Basis Set: 6-31G*
  Basis Set:
  Basis Set: 6-31G*
  Basis Set:
  @DF-RHF Final Energy:  -426.17146078834071
    Total Energy =                       -426.1714607883411645
  Basis Set: 6-31G*
  Basis Set:
  Basis Set: 6-31G*
  Basis Set:
  @DF-RHF Final Energy:  -426.17155203129016
    Total Energy =                       -426.1715520312907302
  Basis Set: 6-31G*
  Basis Set:
  Charge       = 0
  Multiplicity = 1
  Basis Set: 6-31G*
  Basis Set:

    Orbital Energies (a.u.)
    -----------------------

    Doubly Occupied:

       1A    -20.550317     2A    -11.324190     3A    -11.231163
       4A    -11.230860     5A    -11.219009     6A    -11.217007
       7A    -11.216604     8A    -11.212714     9A    -11.209755
      10A    -11.206051    11A     -1.395728    12A     -1.088353
      13A     -1.077368    14A     -1.022166    15A     -0.990667
      16A     -0.910628    17A     -0.865196    18A     -0.806123
      19A     -0.791195    20A     -0.723995    21A     -0.668207
      22A     -0.656122    23A     -0.625527    24A     -0.618331
      25A     -0.609744    26A     -0.581354    27A     -0.580272
      28A     -0.574260    29A     -0.535169    30A     -0.528266
      31A     -0.519956    32A     -0.507587    33A     -0.489862
      34A     -0.482371    35A     -0.473861    36A     -0.469405
      37A     -0.468687    38A     -0.466018    39A     -0.456912
      40A     -0.395057

  @DF-RHF Final Energy:  -426.17155160874086

   => Energetics <=

    Nuclear Repulsion Energy =            529.8527158104510590
    One-Electron Energy =               -1628.0564280108667390
    Two-Electron Energy =                 672.0321605916749377
    DFT Exchange-Correlation Energy =       0.0000000000000000
    Empirical Dispersion Energy =           0.0000000000000000
    PCM Polarization Energy =               0.0000000000000000
    EFP Energy =                            0.0000000000000000
    Total Energy =                       -426.1715516087408560
    Molecular point group: c1
  Basis Set: 6-31G*
  Basis Set:

  -Total Gradient:
     Atom            X                  Y                   Z
    ------   -----------------  -----------------  -----------------
       1        0.000004107596    -0.000003186243    -0.000004729219
       2        0.000001229379     0.000005357182    -0.000024802356
       3        0.000065955139     0.000064329113     0.000036413983
       4        0.000004072001    -0.000001816988    -0.000000421472
       5       -0.000009158354    -0.000002100348    -0.000000339314
       6       -0.000003921162    -0.000044881283    -0.000048387814
       7       -0.000014333357     0.000000140733    -0.000009580911
       8        0.000001735929     0.000005651113    -0.000008542896
       9       -0.000131635487     0.000170003089    -0.000009856455
      10       -0.000004353489     0.000006480804     0.000000020480
      11       -0.000018013917    -0.000008768428     0.000017310639
      12       -0.000449328565     0.000893611027    -0.000667332645
      13        0.000036166372    -0.000082173410     0.000019994252
      14        0.000062338169    -0.000063055348    -0.000002693177
      15        0.000221492428    -0.000904339998     0.000477166136
      16        0.000271108939    -0.000570962956     0.000363760491
      17       -0.000069849137     0.000336827868    -0.000245986733
      18       -0.000054347198    -0.000051801777     0.000068356660
      19        0.000029549180     0.000002826653     0.000075812741
      20       -0.000044818602     0.000153800413    -0.000038967422
      21        0.000081817828    -0.000000451003    -0.000109261224
      22        0.000009906657     0.000115891243     0.000045954262
      23        0.000054431922    -0.000051004951     0.000058924207
      24       -0.000059206844     0.000003133440    -0.000015392201
      25       -0.000011327671     0.000031724336     0.000004905056
      26        0.000006772518     0.000024408912     0.000018746397
      27        0.000001554458    -0.000016858109    -0.000023681355
      28        0.000018055265    -0.000012785083     0.000022609890

  **** Optimization is complete! (in 5 steps) ****
    Final optimized geometry and variables:
    Molecular point group: c1

    Geometry (in Angstrom), charge = 0, multiplicity = 1:

    H            3.618498139202     2.451298030023    -2.854574415609
    C            3.773077382851     1.760424937165    -2.031595992361
    C            2.519062499630     1.642664311523    -1.166329013136
    H            4.046131755827     0.798147545650    -2.454472071954
    H            4.619216444331     2.119965771707    -1.452288961102
    C            2.705198561951     0.680683783328     0.009273282148
    H            1.689826506538     1.306822520775    -1.780430019154
    H            2.250879487943     2.627139519593    -0.786135271141
    C            1.469813665362     0.552077226831     0.900158468481
    H            2.975388901170    -0.301128398934    -0.363533741543
    H            3.534547651347     1.025542899683     0.622613488689
    C            0.316462803957    -0.218894962747     0.275977706826
    H            1.725488242897     0.023444814635     1.818190956035
    H            1.115460331051     1.530555242684     1.215964290326
    C           -1.020015960026    -0.116171812677     0.989979003022
    O            0.461931044998    -0.894075510735    -0.697597330592
    C           -2.131701518300    -0.943678635692     0.352144433372
    H           -1.298423794205     0.936149841467     1.022641347706
    H           -0.867922348187    -0.406356465434     2.028915517350
    C           -3.468178107391    -0.792010687074     1.080701483792
    H           -2.242720420263    -0.650407239411    -0.687118685470
    H           -1.836557185456    -1.988225230856     0.339067020081
    C           -4.579837422026    -1.633977825792     0.455820644058
    H           -3.766282167499     0.254658794564     1.080560273356
    H           -3.347648369841    -1.073820309655     2.124957241551
    H           -4.751145982518    -1.350114732454    -0.578470971070
    H           -4.326004081105    -2.689955296846     0.469910467583
    H           -5.515267153077    -1.510732821044     0.992717684049

  Mulliken Charges: (a.u.)
   Center  Symbol    Alpha    Beta     Spin     Total
       1     H     0.41932  0.41932  0.00000  0.16137
       2     C     3.24015  3.24015  0.00000 -0.48029
       3     C     3.15638  3.15638  0.00000 -0.31276
       4     H     0.41832  0.41832  0.00000  0.16336
       5     H     0.42357  0.42357  0.00000  0.15286
       6     C     3.14950  3.14950  0.00000 -0.29899
       7     H     0.41022  0.41022  0.00000  0.17956
       8     H     0.42759  0.42759  0.00000  0.14483
       9     C     3.20813  3.20813  0.00000 -0.41626
      10     H     0.40715  0.40715  0.00000  0.18571
      11     H     0.42166  0.42166  0.00000  0.15668
      12     C     2.73326  2.73326  0.00000  0.53349
      13     H     0.40502  0.40502  0.00000  0.18997
      14     H     0.41202  0.41202  0.00000  0.17596
      15     C     3.20811  3.20811  0.00000 -0.41621
      16     O     4.26786  4.26786  0.00000 -0.53572
      17     C     3.14686  3.14686  0.00000 -0.29373
      18     H     0.40939  0.40939  0.00000  0.18122
      19     H     0.40963  0.40963  0.00000  0.18074
      20     C     3.15366  3.15366  0.00000 -0.30731
      21     H     0.41226  0.41226  0.00000  0.17548
      22     H     0.41313  0.41313  0.00000  0.17374
      23     C     3.23920  3.23920  0.00000 -0.47840
      24     H     0.42393  0.42393  0.00000  0.15213
      25     H     0.42417  0.42417  0.00000  0.15166
      26     H     0.42007  0.42007  0.00000  0.15985
      27     H     0.42017  0.42017  0.00000  0.15967
      28     H     0.41930  0.41930  0.00000  0.16139

   Total alpha = 40.00000, Total beta = 40.00000, Total charge =  0.00000
