  ==> Input File <==

--------------------------------------------------------------------------
set {
	reference rhf
	basis 6-31G*
}

set_num_threads( 4 )
memory 2 gb

molecule MOL {
0 1

H	 2.591676	 2.013956	 0.335017
O	 3.341076	 1.666752	 -0.126416
C	 3.569581	 0.339145	 0.272707
C	 2.539767	 -0.640285	 -0.279495
H	 4.553106	 0.084646	 -0.100901
H	 3.608576	 0.269204	 1.359154
C	 1.115811	 -0.397273	 0.226630
H	 2.556196	 -0.582511	 -1.364741
H	 2.852081	 -1.648031	 -0.010655
C	 0.115918	 -1.429151	 -0.302766
H	 0.797950	 0.599468	 -0.066350
H	 1.109961	 -0.420744	 1.316472
C	 0.106105	 -1.593200	 -1.827014
H	 0.316493	 -2.392988	 0.161600
H	 -0.882493	 -1.140212	 0.018776
C	 1.387825	 -2.185086	 -2.419757
H	 -0.729351	 -2.236172	 -2.096118
H	 -0.093992	 -0.628581	 -2.291026
C	 1.290767	 -2.427431	 -3.927499
H	 1.613643	 -3.125762	 -1.919513
H	 2.230036	 -1.525892	 -2.223676
C	 2.571104	 -3.012242	 -4.522811
H	 0.459133	 -3.098486	 -4.131355
H	 1.055577	 -1.490437	 -4.428111
H	 2.815843	 -3.966707	 -4.065292
H	 2.470177	 -3.174278	 -5.591545
H	 3.415672	 -2.346610	 -4.367880

	symmetry c1
}
set optking {
	frozen_dihedral = ("
		14 10 7 4
	")
}

ee = optimize('scf')
oeprop('DIPOLE', 'QUADRUPOLE', 'MULLIKEN_CHARGES')
f=open( 'psi4out.xyz', 'w' )
f.write( "27  " )
f.write( str(ee) + "\n" )
f.write( MOL.save_string_xyz() )
f.close()
--------------------------------------------------------------------------

    Molecular point group: c1
  Charge       = 0
  Multiplicity = 1
  Basis Set: 6-31G*
  Basis Set:
  @DF-RHF Final Energy:  -388.25179517080397
    Total Energy =                       -388.2517951708035753
    Molecular point group: c1
  Basis Set: 6-31G*
  Basis Set:
  Basis Set: 6-31G*
  Basis Set:
  @DF-RHF Final Energy:  -388.26984443337915
    Total Energy =                       -388.2698444333786938
  Basis Set: 6-31G*
  Basis Set:
  Basis Set: 6-31G*
  Basis Set:
  @DF-RHF Final Energy:  -388.27438288820292
    Total Energy =                       -388.2743828882033768
  Basis Set: 6-31G*
  Basis Set:
  Basis Set: 6-31G*
  Basis Set:
  @DF-RHF Final Energy:  -388.27581766340705
    Total Energy =                       -388.2758176634064284
  Basis Set: 6-31G*
  Basis Set:
  @DF-RHF Final Energy:  -388.27664595129403
    Total Energy =                       -388.2766459512934034
  @DF-RHF Final Energy:  -388.27674728783148
    Total Energy =                       -388.2767472878319950
  @DF-RHF Final Energy:  -388.27689569491633
    Total Energy =                       -388.2768956949166750
  @DF-RHF Final Energy:  -388.27691632502399
    Total Energy =                       -388.2769163250243309
  Basis Set: 6-31G*
  Basis Set:
  @DF-RHF Final Energy:  -388.27692077226993
    Total Energy =                       -388.2769207722700457
  Basis Set: 6-31G*
  Basis Set:
  Basis Set: 6-31G*
  Basis Set:
  @DF-RHF Final Energy:  -388.27692198688072
    Total Energy =                       -388.2769219868803248
  Basis Set: 6-31G*
  Basis Set:
  Basis Set: 6-31G*
  Basis Set:
  @DF-RHF Final Energy:  -388.27692341995214
    Total Energy =                       -388.2769234199522543
  Basis Set: 6-31G*
  Basis Set:
  Charge       = 0
  Multiplicity = 1
  Basis Set: 6-31G*
  Basis Set:

    Orbital Energies (a.u.)
    -----------------------

    Doubly Occupied:

       1A    -20.552482     2A    -11.267245     3A    -11.221072
       4A    -11.217640     5A    -11.214998     6A    -11.214678
       7A    -11.214174     8A    -11.212284     9A    -11.207954
      10A     -1.359249    11A     -1.093268    12A     -1.059482
      13A     -1.008747    14A     -0.951682    15A     -0.885199
      16A     -0.830755    17A     -0.792143    18A     -0.774541
      19A     -0.696139    20A     -0.647237    21A     -0.634697
      22A     -0.614751    23A     -0.606171    24A     -0.586424
      25A     -0.567000    26A     -0.553629    27A     -0.548907
      28A     -0.517923    29A     -0.515116    30A     -0.497213
      31A     -0.483078    32A     -0.472078    33A     -0.465175
      34A     -0.458786    35A     -0.455197    36A     -0.435131
      37A     -0.422963

  @DF-RHF Final Energy:  -388.27692362994475

   => Energetics <=

    Nuclear Repulsion Energy =            468.3735185960178455
    One-Electron Energy =               -1454.7904636871267030
    Two-Electron Energy =                 598.1400214611644515
    DFT Exchange-Correlation Energy =       0.0000000000000000
    Empirical Dispersion Energy =           0.0000000000000000
    PCM Polarization Energy =               0.0000000000000000
    EFP Energy =                            0.0000000000000000
    Total Energy =                       -388.2769236299443492
    Molecular point group: c1
  Basis Set: 6-31G*
  Basis Set:

  -Total Gradient:
     Atom            X                  Y                   Z
    ------   -----------------  -----------------  -----------------
       1        0.000002578015     0.000002547477     0.000000311642
       2       -0.000003010140     0.000016016244     0.000002211870
       3       -0.000006078057    -0.000006995504    -0.000010318996
       4       -0.000472160231     0.001114020847    -0.001362710592
       5       -0.000001007934     0.000004158992     0.000001024284
       6        0.000003324649    -0.000003993189    -0.000004771163
       7        0.000308990039    -0.001602817089     0.002425777160
       8        0.000010462018     0.000009506693    -0.000006862568
       9       -0.000005296992    -0.000000804624     0.000006847879
      10        0.001769690185     0.000307822710    -0.002875916976
      11        0.000000552997    -0.000017358874    -0.000000923974
      12        0.000002019440     0.000012348139     0.000013554842
      13       -0.000007983554    -0.000025303110    -0.000005223050
      14       -0.001605806203     0.000184296068     0.001827254082
      15       -0.000004297562    -0.000000596685     0.000009669998
      16        0.000001712274     0.000009449774     0.000001137827
      17        0.000004280706     0.000001041020    -0.000017284764
      18        0.000002478051    -0.000000928280    -0.000001466246
      19        0.000007193655     0.000007351652     0.000007346414
      20       -0.000011407396    -0.000002200539     0.000011436728
      21        0.000000050546    -0.000007411754    -0.000018675763
      22        0.000006276175     0.000003114435    -0.000003445172
      23        0.000001570503    -0.000001586858     0.000010038572
      24       -0.000005901684     0.000000775923    -0.000009187148
      25       -0.000002471812    -0.000001028334    -0.000002124382
      26        0.000002553530     0.000000860465     0.000001074040
      27        0.000001688776    -0.000002285604     0.000001225452

  **** Optimization is complete! (in 12 steps) ****
    Final optimized geometry and variables:
    Molecular point group: c1

    Geometry (in Angstrom), charge = 0, multiplicity = 1:

    H            0.400997901244     3.169804512791     2.192382323251
    O            1.223640632942     3.035467516430     1.744730657246
    C            1.677831710264     1.725468374269     1.971771708853
    C            0.875752775633     0.671957737632     1.214229627803
    H            2.707713343990     1.709753988335     1.638944159957
    H            1.679057247009     1.501601032386     3.037886520297
    C           -0.587772883647     0.591610951906     1.655812230946
    H            0.936166373614     0.898657883506     0.154834405288
    H            1.358411499458    -0.292254064956     1.365070862783
    C           -1.428484488783    -0.526970365672     1.022198424910
    H           -1.070987947275     1.541370562443     1.433639740365
    H           -0.627058898520     0.471697914038     2.737796333656
    C           -1.479025057631    -0.556021708133    -0.516787014698
    H           -1.099098370006    -1.491020853046     1.405468394535
    H           -2.441453590066    -0.404273723311     1.397631623091
    C           -0.451448649135    -1.476873603707    -1.183166869537
    H           -2.468215525230    -0.885732088419    -0.825096893340
    H           -1.370573001695     0.455467052862    -0.904092522497
    C           -0.544798164287    -1.467285907545    -2.710223628963
    H           -0.604272176678    -2.492726398318    -0.822044174330
    H            0.556057246885    -1.199573423853    -0.887321975694
    C            0.460309704070    -2.406471608531    -3.376257036416
    H           -1.552608721667    -1.745459914519    -3.011588653620
    H           -0.387058255913    -0.454159171328    -3.074100353745
    H            0.305731285890    -3.434307540206    -3.060026979541
    H            0.370491723508    -2.376470115286    -4.457762933261
    H            1.480582485774    -2.133350989837    -3.121805482439

  Mulliken Charges: (a.u.)
   Center  Symbol    Alpha    Beta     Spin     Total
       1     H     0.27967  0.27967  0.00000  0.44066
       2     O     4.37115  4.37115  0.00000 -0.74230
       3     C     2.99728  2.99728  0.00000  0.00544
       4     C     3.16337  3.16337  0.00000 -0.32674
       5     H     0.41445  0.41445  0.00000  0.17109
       6     H     0.43194  0.43194  0.00000  0.13612
       7     C     3.16237  3.16237  0.00000 -0.32473
       8     H     0.41304  0.41304  0.00000  0.17392
       9     H     0.42417  0.42417  0.00000  0.15165
      10     C     3.15391  3.15391  0.00000 -0.30781
      11     H     0.42518  0.42518  0.00000  0.14964
      12     H     0.42424  0.42424  0.00000  0.15153
      13     C     3.15812  3.15812  0.00000 -0.31624
      14     H     0.42193  0.42193  0.00000  0.15613
      15     H     0.41987  0.41987  0.00000  0.16026
      16     C     3.15288  3.15288  0.00000 -0.30576
      17     H     0.42070  0.42070  0.00000  0.15861
      18     H     0.42052  0.42052  0.00000  0.15896
      19     C     3.15215  3.15215  0.00000 -0.30430
      20     H     0.42446  0.42446  0.00000  0.15107
      21     H     0.42028  0.42028  0.00000  0.15944
      22     C     3.23921  3.23921  0.00000 -0.47843
      23     H     0.42337  0.42337  0.00000  0.15325
      24     H     0.42251  0.42251  0.00000  0.15498
      25     H     0.42211  0.42211  0.00000  0.15578
      26     H     0.41928  0.41928  0.00000  0.16144
      27     H     0.42182  0.42182  0.00000  0.15636

   Total alpha = 37.00000, Total beta = 37.00000, Total charge = -0.00000
