                              Psi4 1.0.54 Driver

  ==> Input File <==

--------------------------------------------------------------------------
set {
	reference rhf
	basis cc-pvtz
}

set_num_threads( 4 )
memory 2 gb

molecule MOL {
0 1

H	 -3.436473	 1.252944	 -1.023892
O	 -3.458596	 0.315260	 -0.960865
C	 -3.176635	 -0.080824	 0.355601
C	 -1.763371	 0.265266	 0.799691
H	 -3.321825	 -1.153438	 0.379502
H	 -3.895468	 0.357385	 1.043382
C	 -0.673390	 -0.426948	 -0.013392
H	 -1.631049	 1.344913	 0.747560
H	 -1.664587	 -0.001624	 1.849167
C	 0.737842	 -0.043159	 0.423759
H	 -0.806103	 -0.190518	 -1.063345
H	 -0.797221	 -1.503753	 0.074146
C	 1.824000	 -0.743224	 -0.390623
H	 0.850588	 1.033777	 0.343840
H	 0.868587	 -0.286314	 1.476203
C	 3.255957	 -0.453067	 0.062319
H	 1.718250	 -0.470599	 -1.438164
H	 1.658105	 -1.815850	 -0.339904
C	 4.239312	 -1.600518	 -0.155653
H	 3.237951	 -0.207675	 1.119785
H	 3.620201	 0.435014	 -0.447640
H	 3.897912	 -2.504623	 0.338430
H	 5.214476	 -1.352975	 0.248104
H	 4.371307	 -1.827923	 -1.206590

	symmetry c1
}
set optking {
	frozen_dihedral = ("
		20 16 13 17
	")
}

ee,wfn = optimize('scf', return_wfn=True)
oeprop( wfn, 'DIPOLE', 'QUADRUPOLE', 'MULLIKEN_CHARGES')
f=open( 'psi4out.xyz', 'w' )
f.write( "24  " )
f.write( str(ee) + "\n" )
f.write( MOL.save_string_xyz() )
f.close()
--------------------------------------------------------------------------

    Molecular point group: c1
  Charge       = 0
  Multiplicity = 1
  Basis Set: CC-PVTZ
  Basis Set:
  @DF-RHF Final Energy:  -349.37877173682426
    Total Energy =                       -349.3787717368242056
    Molecular point group: c1
  Basis Set: CC-PVTZ
  Basis Set:
  Basis Set: CC-PVTZ
  Basis Set:
  @DF-RHF Final Energy:  -349.37926273732342
    Total Energy =                       -349.3792627373236428
  Basis Set: CC-PVTZ
  Basis Set:
  Basis Set: CC-PVTZ
  Basis Set:
  @DF-RHF Final Energy:  -349.37958311955771
    Total Energy =                       -349.3795831195576511
  Basis Set: CC-PVTZ
  Basis Set:
  Basis Set: CC-PVTZ
  Basis Set:
  @DF-RHF Final Energy:  -349.37959309267762
    Total Energy =                       -349.3795930926776236
  Basis Set: CC-PVTZ
  Basis Set:
  Basis Set: CC-PVTZ
  Basis Set:
  @DF-RHF Final Energy:  -349.37959826209516
    Total Energy =                       -349.3795982620952145
  Basis Set: CC-PVTZ
  Basis Set:
  Charge       = 0
  Multiplicity = 1
  Basis Set: CC-PVTZ
  Basis Set:

    Orbital Energies (a.u.)
    -----------------------

    Doubly Occupied:

       1A    -20.546309     2A    -11.265531     3A    -11.215203
       4A    -11.211484     5A    -11.210634     6A    -11.209141
       7A    -11.208875     8A    -11.205713     9A     -1.364158
      10A     -1.089425    11A     -1.049557    12A     -0.989117
      13A     -0.914892    14A     -0.842929    15A     -0.798238
      16A     -0.788466    17A     -0.681682    18A     -0.657712
      19A     -0.630250    20A     -0.615924    21A     -0.592493
      22A     -0.587603    23A     -0.552890    24A     -0.540052
      25A     -0.530989    26A     -0.502114    27A     -0.496384
      28A     -0.473808    29A     -0.465831    30A     -0.460691
      31A     -0.457171    32A     -0.455763    33A     -0.420416

  @DF-RHF Final Energy:  -349.37959888029820

   => Energetics <=

    Nuclear Repulsion Energy =            380.9637766261340630
    One-Electron Energy =               -1228.6238657390981643
    Two-Electron Energy =                 498.2804902326661249
    DFT Exchange-Correlation Energy =       0.0000000000000000
    Empirical Dispersion Energy =           0.0000000000000000
    PCM Polarization Energy =               0.0000000000000000
    EFP Energy =                            0.0000000000000000
    Total Energy =                       -349.3795988802979764
    Molecular point group: c1
  Basis Set: CC-PVTZ
  Basis Set:

  -Total Gradient:
     Atom            X                  Y                   Z
    ------   -----------------  -----------------  -----------------
       1       -0.000000333333    -0.000000834829    -0.000000776001
       2        0.000001170667     0.000001627039    -0.000001841831
       3        0.000000274258    -0.000003206629     0.000005893949
       4        0.000006785680    -0.000008822156     0.000003213344
       5       -0.000002064487    -0.000000727265    -0.000001535101
       6       -0.000000564939    -0.000001282943     0.000000549176
       7       -0.000003209183     0.000018834846     0.000002605605
       8       -0.000000310017    -0.000002559539    -0.000003015841
       9       -0.000000613982     0.000003655314     0.000001851085
      10       -0.000032205915    -0.000003551824     0.000005675251
      11       -0.000000187918     0.000004622874     0.000000433370
      12        0.000003409865     0.000000086514     0.000000758964
      13        0.001613927659    -0.003761968037    -0.001577258095
      14       -0.000009359135    -0.000001519888    -0.000008232199
      15        0.000004352237     0.000006376154     0.000001887036
      16        0.000763352394    -0.004178034854     0.001565229539
      17       -0.001492860502     0.003841254302     0.001057247854
      18        0.000011929991     0.000022588840    -0.000004702404
      19        0.000047119030     0.000006332563     0.000013186690
      20       -0.000911393063     0.004030077411    -0.001053630827
      21        0.000001007981     0.000021580705    -0.000011175389
      22        0.000002912306     0.000015789903    -0.000000588754
      23        0.000005863004    -0.000017428803    -0.000018204971
      24       -0.000009002607     0.000007110302     0.000022429547

  **** Optimization is complete! (in 6 steps) ****
    Final optimized geometry and variables:
    Molecular point group: c1

    Geometry (in Angstrom), charge = 0, multiplicity = 1:

    H           -3.479245722979     1.594452716439    -1.038352032768
    O           -3.511755948966     0.655945175984    -0.995649900393
    C           -3.259522761024     0.229712935013     0.317359928573
    C           -1.851512073897     0.551155901540     0.795401039120
    H           -3.416383106729    -0.841531483280     0.315702448095
    H           -3.987003899723     0.661188738223     1.000293087749
    C           -0.753222528439    -0.134480045877    -0.012120540000
    H           -1.707129171485     1.630219570048     0.769358544698
    H           -1.775381849021     0.260643710968     1.840444462796
    C            0.652748200664     0.224779014969     0.459095240696
    H           -0.864481995144     0.124954337023    -1.059081923399
    H           -0.888870423483    -1.211790035149     0.050486141419
    C            1.755293441323    -0.478400073500    -0.331077680262
    H            0.792028652510     1.301367773250     0.385528391581
    H            0.755755672559    -0.022134009819     1.513235411430
    C            3.165080112371    -0.051119401609     0.094046254112
    H            1.611979396096    -0.245086160265    -1.382348497662
    H            1.642228679183    -1.553247710925    -0.222665584131
    C            4.233595914728    -1.103516309417    -0.175673033918
    H            3.162531184511     0.225308046737     1.144502546979
    H            3.426146607548     0.862570355233    -0.433358939815
    H            4.042618675601    -2.008257344833     0.391695771971
    H            5.219711751387    -0.743713425249     0.095110886744
    H            4.257411425205    -1.373839524815    -1.226368363431

  Mulliken Charges: (a.u.)
   Center  Symbol    Alpha    Beta     Spin     Total
       1     H     0.39531  0.39531  0.00000  0.20937
       2     O     4.20371  4.20371  0.00000 -0.40741
       3     C     2.97773  2.97773  0.00000  0.04454
       4     C     3.10234  3.10234  0.00000 -0.20467
       5     H     0.45889  0.45889  0.00000  0.08223
       6     H     0.46026  0.46026  0.00000  0.07948
       7     C     3.08844  3.08844  0.00000 -0.17688
       8     H     0.45902  0.45902  0.00000  0.08195
       9     H     0.45333  0.45333  0.00000  0.09334
      10     C     3.08915  3.08915  0.00000 -0.17831
      11     H     0.44645  0.44645  0.00000  0.10711
      12     H     0.45526  0.45526  0.00000  0.08948
      13     C     3.08737  3.08737  0.00000 -0.17473
      14     H     0.45502  0.45502  0.00000  0.08995
      15     H     0.45611  0.45611  0.00000  0.08778
      16     C     3.08549  3.08549  0.00000 -0.17098
      17     H     0.45349  0.45349  0.00000  0.09302
      18     H     0.45491  0.45491  0.00000  0.09018
      19     C     3.14862  3.14862  0.00000 -0.29725
      20     H     0.45551  0.45551  0.00000  0.08898
      21     H     0.45420  0.45420  0.00000  0.09160
      22     H     0.45569  0.45569  0.00000  0.08862
      23     H     0.44938  0.44938  0.00000  0.10125
      24     H     0.45431  0.45431  0.00000  0.09138

   Total alpha = 33.00000, Total beta = 33.00000, Total charge =  0.00000

*** Psi4 exiting successfully. Buy a developer a beer!
