                              Psi4 1.0.54 Driver

  ==> Input File <==

--------------------------------------------------------------------------
set {
	reference rhf
	basis cc-pvtz
}

set_num_threads( 4 )
memory 2 gb

molecule MOL {
0 1

H	 -3.436473	 1.252944	 -1.023892
O	 -3.458596	 0.315260	 -0.960865
C	 -3.176635	 -0.080824	 0.355601
C	 -1.763371	 0.265266	 0.799691
H	 -3.321825	 -1.153438	 0.379502
H	 -3.895468	 0.357385	 1.043382
C	 -0.673390	 -0.426948	 -0.013392
H	 -1.631049	 1.344913	 0.747560
H	 -1.664587	 -0.001624	 1.849167
C	 0.697102	 0.227768	 0.138492
H	 -0.958772	 -0.435399	 -1.059527
H	 -0.611059	 -1.468304	 0.293527
C	 1.784458	 -0.472839	 -0.673822
H	 0.624730	 1.269337	 -0.159478
H	 0.981918	 0.229960	 1.188602
C	 3.192161	 0.097314	 -0.491767
H	 1.519935	 -0.442071	 -1.728303
H	 1.800764	 -1.523555	 -0.397506
C	 3.379034	 1.517388	 -1.020551
H	 3.895154	 -0.556884	 -0.998326
H	 3.457389	 0.067670	 0.561892
H	 3.115353	 1.578994	 -2.071624
H	 4.411800	 1.831701	 -0.921338
H	 2.768705	 2.233898	 -0.484158

	symmetry c1
}
set optking {
	frozen_dihedral = ("
		11 7 4 3
	")
}

ee,wfn = optimize('scf', return_wfn=True)
oeprop( wfn, 'DIPOLE', 'QUADRUPOLE', 'MULLIKEN_CHARGES')
f=open( 'psi4out.xyz', 'w' )
f.write( "24  " )
f.write( str(ee) + "\n" )
f.write( MOL.save_string_xyz() )
f.close()
--------------------------------------------------------------------------

    Molecular point group: c1
  Charge       = 0
  Multiplicity = 1
  Basis Set: CC-PVTZ
  Basis Set:
  @DF-RHF Final Energy:  -349.37955770188012
    Total Energy =                       -349.3795577018806853
    Molecular point group: c1
  Basis Set: CC-PVTZ
  Basis Set:
  Basis Set: CC-PVTZ
  Basis Set:
  @DF-RHF Final Energy:  -349.37962225508551
    Total Energy =                       -349.3796222550854509
  Basis Set: CC-PVTZ
  Basis Set:
  Basis Set: CC-PVTZ
  Basis Set:
  @DF-RHF Final Energy:  -349.37965914262958
    Total Energy =                       -349.3796591426296345
  Basis Set: CC-PVTZ
  Basis Set:
  Basis Set: CC-PVTZ
  Basis Set:
  @DF-RHF Final Energy:  -349.37966032627730
    Total Energy =                       -349.3796603262767348
  Basis Set: CC-PVTZ
  Basis Set:
  Charge       = 0
  Multiplicity = 1
  Basis Set: CC-PVTZ
  Basis Set:

    Orbital Energies (a.u.)
    -----------------------

    Doubly Occupied:

       1A    -20.546779     2A    -11.265710     3A    -11.215136
       4A    -11.212022     5A    -11.210223     6A    -11.209295
       7A    -11.208462     8A    -11.205174     9A     -1.364743
      10A     -1.089483    11A     -1.049021    12A     -0.986702
      13A     -0.915819    14A     -0.851300    15A     -0.802022
      16A     -0.776654    17A     -0.682285    18A     -0.653863
      19A     -0.625018    20A     -0.623048    21A     -0.597329
      22A     -0.585323    23A     -0.560702    24A     -0.538631
      25A     -0.515879    26A     -0.514700    27A     -0.497965
      28A     -0.471196    29A     -0.467862    30A     -0.460305
      31A     -0.455842    32A     -0.451728    33A     -0.421965

  @DF-RHF Final Energy:  -349.37966087269871

   => Energetics <=

    Nuclear Repulsion Energy =            385.5638065757463551
    One-Electron Energy =               -1237.8225753891915701
    Two-Electron Energy =                 502.8791079407462803
    DFT Exchange-Correlation Energy =       0.0000000000000000
    Empirical Dispersion Energy =           0.0000000000000000
    PCM Polarization Energy =               0.0000000000000000
    EFP Energy =                            0.0000000000000000
    Total Energy =                       -349.3796608726988779
    Molecular point group: c1
  Basis Set: CC-PVTZ
  Basis Set:

  -Total Gradient:
     Atom            X                  Y                   Z
    ------   -----------------  -----------------  -----------------
       1       -0.000003036347    -0.000017377156    -0.000012618969
       2       -0.000000245329     0.000050156719    -0.000027379139
       3       -0.000009914856     0.001502188810    -0.001192889124
       4       -0.000280730330    -0.002708745667     0.001806169878
       5        0.000003326505     0.000015549522     0.000013022451
       6        0.000011658397    -0.000012272388    -0.000011351998
       7        0.001479187202     0.003561214270    -0.000907575584
       8        0.000003652422    -0.000002341520     0.000003781940
       9       -0.000000873654    -0.000000752025    -0.000009900171
      10       -0.000005786740    -0.000001056947     0.000004329198
      11       -0.001199693665    -0.002376060982     0.000331716398
      12        0.000010611194     0.000007510577     0.000007735829
      13        0.000007394046    -0.000008375016     0.000004771397
      14        0.000003408559    -0.000007245720     0.000005654084
      15       -0.000007817624    -0.000002049980    -0.000019375601
      16        0.000008089877    -0.000009562635    -0.000016565475
      17        0.000004374294    -0.000004323251     0.000015229626
      18       -0.000003167694     0.000012792116     0.000001547228
      19       -0.000010145610     0.000001211643     0.000002747585
      20        0.000000681589     0.000006638731    -0.000000068372
      21       -0.000003053818    -0.000004508251    -0.000007885810
      22        0.000002470694    -0.000001621200     0.000007937109
      23       -0.000003530485    -0.000000657051     0.000002043165
      24       -0.000006858625    -0.000000312598    -0.000001075644

  **** Optimization is complete! (in 5 steps) ****
    Final optimized geometry and variables:
    Molecular point group: c1

    Geometry (in Angstrom), charge = 0, multiplicity = 1:

    H           -3.408737658108     1.071271967158    -0.728582168999
    O           -3.418330938092     0.131952266130    -0.693231815895
    C           -3.119068530774    -0.298833253934     0.608024702128
    C           -1.707005810123     0.060648903791     1.047016709071
    H           -3.248181397064    -1.373993472390     0.600666089297
    H           -3.838491995695     0.106971533644     1.314605841301
    C           -0.613985638524    -0.608179670268     0.214039218385
    H           -1.599027910974     1.143102043523     0.991536903270
    H           -1.590345861588    -0.200160957539     2.095347733475
    C            0.758576529306     0.037189879242     0.377565534444
    H           -0.908464084193    -0.606078627568    -0.829438105115
    H           -0.552137797884    -1.656044794311     0.499588313863
    C            1.851368670787    -0.677175537334    -0.415003589348
    H            0.696150252848     1.076474450687     0.070218006844
    H            1.029923311130     0.046544017283     1.431415752636
    C            3.258592942362    -0.106693823461    -0.229883595630
    H            1.595272775400    -0.661531761035    -1.471888567547
    H            1.863578919351    -1.723640362394    -0.122997999867
    C            3.452509611107     1.305165102188    -0.777842997503
    H            3.964477107148    -0.769354125351    -0.721178123881
    H            3.515334707837    -0.121518002985     0.826201196585
    H            3.196001219488     1.352207290314    -1.831404578266
    H            4.485358599058     1.618425176391    -0.676199364022
    H            2.840425872185     2.030866193560    -0.256025387435

  Mulliken Charges: (a.u.)
   Center  Symbol    Alpha    Beta     Spin     Total
       1     H     0.39544  0.39544  0.00000  0.20912
       2     O     4.20299  4.20299  0.00000 -0.40598
       3     C     2.97742  2.97742  0.00000  0.04517
       4     C     3.10019  3.10019  0.00000 -0.20037
       5     H     0.45862  0.45862  0.00000  0.08276
       6     H     0.45982  0.45982  0.00000  0.08035
       7     C     3.09296  3.09296  0.00000 -0.18592
       8     H     0.46147  0.46147  0.00000  0.07706
       9     H     0.45169  0.45169  0.00000  0.09662
      10     C     3.09081  3.09081  0.00000 -0.18162
      11     H     0.44403  0.44403  0.00000  0.11194
      12     H     0.45529  0.45529  0.00000  0.08943
      13     C     3.09472  3.09472  0.00000 -0.18943
      14     H     0.45342  0.45342  0.00000  0.09316
      15     H     0.45595  0.45595  0.00000  0.08810
      16     C     3.09011  3.09011  0.00000 -0.18022
      17     H     0.45315  0.45315  0.00000  0.09370
      18     H     0.44979  0.44979  0.00000  0.10041
      19     C     3.15246  3.15246  0.00000 -0.30492
      20     H     0.44863  0.44863  0.00000  0.10274
      21     H     0.45530  0.45530  0.00000  0.08939
      22     H     0.45466  0.45466  0.00000  0.09067
      23     H     0.44667  0.44667  0.00000  0.10666
      24     H     0.45440  0.45440  0.00000  0.09120

   Total alpha = 33.00000, Total beta = 33.00000, Total charge = -0.00000

*** Psi4 exiting successfully. Buy a developer a beer!
