  ==> Input File <==

--------------------------------------------------------------------------
set {
	reference rhf
	basis 6-31G*
}

set_num_threads( 4 )
memory 2 gb

molecule MOL {
0 1

H	 -3.479185	 1.555398	 0.296894
C	 -2.952919	 0.661949	 0.571580
C	 -1.862021	 0.320382	 -0.074388
H	 -3.338810	 0.065903	 1.377016
O	 -1.180634	 -0.819263	 0.215062
H	 -1.455223	 0.907226	 -0.878953
C	 0.051604	 -1.018856	 -0.387932
C	 1.043764	 0.054862	 -0.001873
H	 -0.017620	 -1.041351	 -1.469781
H	 0.437898	 -1.966374	 -0.042284
F	 2.212596	 -0.199467	 -0.571921
F	 0.652529	 1.252447	 -0.405055
F	 1.230877	 0.110694	 1.300533

	symmetry c1
}
set optking {
	frozen_dihedral = ("
		3 5 7 9
	")
}

ee = optimize('scf')
oeprop('DIPOLE', 'QUADRUPOLE', 'MULLIKEN_CHARGES')
f=open( 'psi4out.xyz', 'w' )
f.write( "13  " )
f.write( str(ee) + "\n" )
f.write( MOL.save_string_xyz() )
f.close()
--------------------------------------------------------------------------

    Molecular point group: c1
  Charge       = 0
  Multiplicity = 1
  Basis Set: 6-31G*
  Basis Set:
  @DF-RHF Final Energy:  -527.53175194262667
    Total Energy =                       -527.5317519426264425
    Molecular point group: c1
  Basis Set: 6-31G*
  Basis Set:
  Basis Set: 6-31G*
  Basis Set:
  @DF-RHF Final Energy:  -527.53374606752800
    Total Energy =                       -527.5337460675281136
  Basis Set: 6-31G*
  Basis Set:
  Basis Set: 6-31G*
  Basis Set:
  @DF-RHF Final Energy:  -527.53412417971981
    Total Energy =                       -527.5341241797194698
  Basis Set: 6-31G*
  Basis Set:
  Basis Set: 6-31G*
  Basis Set:
  @DF-RHF Final Energy:  -527.53423625451649
    Total Energy =                       -527.5342362545167134
  Basis Set: 6-31G*
  Basis Set:
  Basis Set: 6-31G*
  Basis Set:
  @DF-RHF Final Energy:  -527.53424817452014
    Total Energy =                       -527.5342481745195755
  Basis Set: 6-31G*
  Basis Set:
  Basis Set: 6-31G*
  Basis Set:
  @DF-RHF Final Energy:  -527.53425224146611
    Total Energy =                       -527.5342522414657651
  Basis Set: 6-31G*
  Basis Set:
  Charge       = 0
  Multiplicity = 1
  Basis Set: 6-31G*
  Basis Set:

    Orbital Energies (a.u.)
    -----------------------

    Doubly Occupied:

       1A    -26.345569     2A    -26.345335     3A    -26.342099
       4A    -20.606334     5A    -11.505410     6A    -11.317823
       7A    -11.296773     8A    -11.216935     9A     -1.743378
      10A     -1.641028    11A     -1.639917    12A     -1.435250
      13A     -1.082287    14A     -1.017717    15A     -0.926499
      16A     -0.836736    17A     -0.831798    18A     -0.827042
      19A     -0.784031    20A     -0.720428    21A     -0.711794
      22A     -0.694382    23A     -0.675773    24A     -0.662204
      25A     -0.655788    26A     -0.644428    27A     -0.637966
      28A     -0.588114    29A     -0.562726    30A     -0.522998
      31A     -0.502307    32A     -0.354287

  @DF-RHF Final Energy:  -527.53425263738427

   => Energetics <=

    Nuclear Repulsion Energy =            416.1234261776991730
    One-Electron Energy =               -1555.9650484832363873
    Two-Electron Energy =                 612.3073696681526599
    DFT Exchange-Correlation Energy =       0.0000000000000000
    Empirical Dispersion Energy =           0.0000000000000000
    PCM Polarization Energy =               0.0000000000000000
    EFP Energy =                            0.0000000000000000
    Total Energy =                       -527.5342526373844976
    Molecular point group: c1
  Basis Set: 6-31G*
  Basis Set:

  -Total Gradient:
     Atom            X                  Y                   Z
    ------   -----------------  -----------------  -----------------
       1        0.000001858792     0.000002548355     0.000003704257
       2       -0.000018788093     0.000023672481     0.000012408657
       3        0.001316919312     0.001561870743     0.002680491239
       4       -0.000003807773    -0.000004587591    -0.000000923532
       5       -0.002060685813    -0.003483741591    -0.003974492325
       6       -0.000004930113    -0.000001396398     0.000012518589
       7        0.001094002387     0.005893333984     0.001322474663
       8        0.000033594405     0.000033979011    -0.000060678356
       9       -0.000372907768    -0.004007647912    -0.000022865170
      10        0.000006756613     0.000004423787    -0.000011060885
      11        0.000025193461     0.000020465356    -0.000017616806
      12        0.000007336864    -0.000050248288     0.000017859632
      13       -0.000024542272     0.000007328062     0.000038180034

  **** Optimization is complete! (in 7 steps) ****
    Final optimized geometry and variables:
    Molecular point group: c1

    Geometry (in Angstrom), charge = 0, multiplicity = 1:

    H           -3.535830419277     1.474025294027     0.235499663737
    C           -2.945265325226     0.623268408371     0.515538229689
    C           -1.989265554271     0.198370498141    -0.277365176891
    H           -3.160399764289     0.133161826847     1.446508302449
    O           -1.261459140347    -0.915625177758     0.009625516031
    H           -1.751853491525     0.674287403306    -1.212406110484
    C            0.007263741415    -1.036536640687    -0.537845813552
    C            0.997352645032    -0.001287297306    -0.048820611013
    H           -0.012514717293    -1.028050175438    -1.623033613226
    H            0.382994597484    -1.998931497500    -0.223073825905
    F            2.200831522552    -0.307070905846    -0.510522893467
    F            0.711438943186     1.219950116689    -0.470525186482
    F            1.060522172478     0.034090251459     1.266084557700

  Mulliken Charges: (a.u.)
   Center  Symbol    Alpha    Beta     Spin     Total
       1     H     0.40686  0.40686  0.00000  0.18628
       2     C     3.23013  3.23013  0.00000 -0.46026
       3     C     2.90268  2.90268  0.00000  0.19465
       4     H     0.40181  0.40181  0.00000  0.19639
       5     O     4.30200  4.30200  0.00000 -0.60401
       6     H     0.40550  0.40550  0.00000  0.18901
       7     C     3.05909  3.05909  0.00000 -0.11819
       8     C     2.46110  2.46110  0.00000  1.07780
       9     H     0.40549  0.40549  0.00000  0.18902
      10     H     0.38957  0.38957  0.00000  0.22086
      11     F     4.68236  4.68236  0.00000 -0.36472
      12     F     4.67942  4.67942  0.00000 -0.35884
      13     F     4.67399  4.67399  0.00000 -0.34799

   Total alpha = 32.00000, Total beta = 32.00000, Total charge =  0.00000
