  ==> Input File <==

--------------------------------------------------------------------------
set {
	reference rhf
	basis cc-pvtz
}

set_num_threads( 4 )
memory 2 gb

molecule MOL {
0 1

O	 1.434664	 0.499990	 -1.028480
C	 0.860843	 0.273204	 -0.013120
C	 -0.623368	 -0.117453	 -0.005652
C	 1.599603	 0.375837	 1.306623
C	 -0.892588	 -1.253841	 -1.002900
C	 -1.473463	 1.100646	 -0.372896
C	 -0.981836	 -0.579025	 1.418506
H	 -0.609333	 -0.970024	 -2.010649
H	 -1.950451	 -1.487353	 -1.013175
H	 -0.360848	 -2.161259	 -0.746463
H	 -1.232203	 1.461623	 -1.364827
H	 -2.524364	 0.834451	 -0.354500
H	 -1.312381	 1.914833	 0.318657
H	 -2.035706	 -0.826342	 1.468082
H	 -0.425078	 -1.458934	 1.716857
H	 -0.788494	 0.205047	 2.140903
H	 1.859666	 -0.620128	 1.647481
H	 2.508017	 0.937654	 1.152954
H	 1.004206	 0.840174	 2.080656

	symmetry c1
}
set optking {
	frozen_dihedral = ("
		1 2 3 5
	")
}

ee = optimize('scf')
oeprop('DIPOLE', 'QUADRUPOLE', 'MULLIKEN_CHARGES')
f=open( 'psi4out.xyz', 'w' )
f.write( "19  " )
f.write( str(ee) + "\n" )
f.write( MOL.save_string_xyz() )
f.close()
--------------------------------------------------------------------------

    Molecular point group: c1
  Charge       = 0
  Multiplicity = 1
  Basis Set: CC-PVTZ
  Basis Set:
  @DF-RHF Final Energy:  -309.16808981561269
    Total Energy =                       -309.1680898156129160
    Molecular point group: c1
  Basis Set: CC-PVTZ
  Basis Set:
  Basis Set: CC-PVTZ
  Basis Set:
  @DF-RHF Final Energy:  -309.16972536767605
    Total Energy =                       -309.1697253676760511
  Basis Set: CC-PVTZ
  Basis Set:
  Basis Set: CC-PVTZ
  Basis Set:
  @DF-RHF Final Energy:  -309.17233821858076
    Total Energy =                       -309.1723382185811602
  Basis Set: CC-PVTZ
  Basis Set:
  Basis Set: CC-PVTZ
  Basis Set:
  @DF-RHF Final Energy:  -309.17281732338205
    Total Energy =                       -309.1728173233822190
  Basis Set: CC-PVTZ
  Basis Set:
  @DF-RHF Final Energy:  -309.17289105983252
    Total Energy =                       -309.1728910598325228
  @DF-RHF Final Energy:  -309.17295944937661
    Total Energy =                       -309.1729594493763784
  @DF-RHF Final Energy:  -309.17299409548417
    Total Energy =                       -309.1729940954841140
  @DF-RHF Final Energy:  -309.17304351311043
    Total Energy =                       -309.1730435131107697
  @DF-RHF Final Energy:  -309.17307068023416
    Total Energy =                       -309.1730706802346162
  Basis Set: CC-PVTZ
  Basis Set:
  @DF-RHF Final Energy:  -309.17308207770651
    Total Energy =                       -309.1730820777065674
  Basis Set: CC-PVTZ
  Basis Set:
  Basis Set: CC-PVTZ
  Basis Set:
  @DF-RHF Final Energy:  -309.17308012051211
    Total Energy =                       -309.1730801205119405
  Basis Set: CC-PVTZ
  Basis Set:
  Basis Set: CC-PVTZ
  Basis Set:
  @DF-RHF Final Energy:  -309.17308288742663
    Total Energy =                       -309.1730828874269150
  Basis Set: CC-PVTZ
  Basis Set:
  Charge       = 0
  Multiplicity = 1
  Basis Set: CC-PVTZ
  Basis Set:

    Orbital Energies (a.u.)
    -----------------------

    Doubly Occupied:

       1A    -20.536348     2A    -11.318515     3A    -11.245507
       4A    -11.226116     5A    -11.219842     6A    -11.216878
       7A    -11.211736     8A     -1.398283     9A     -1.109034
      10A     -1.004740    11A     -0.943166    12A     -0.939298
      13A     -0.834003    14A     -0.705715    15A     -0.666834
      16A     -0.633605    17A     -0.624159    18A     -0.589024
      19A     -0.586573    20A     -0.573392    21A     -0.552641
      22A     -0.546686    23A     -0.523510    24A     -0.514998
      25A     -0.503122    26A     -0.472450    27A     -0.463023
      28A     -0.393773

  @DF-RHF Final Energy:  -309.17308305417379

   => Energetics <=

    Nuclear Repulsion Energy =            326.7933589995602119
    One-Electron Energy =               -1066.8269433498880971
    Two-Electron Energy =                 430.8605012961539273
    DFT Exchange-Correlation Energy =       0.0000000000000000
    Empirical Dispersion Energy =           0.0000000000000000
    PCM Polarization Energy =               0.0000000000000000
    EFP Energy =                            0.0000000000000000
    Total Energy =                       -309.1730830541739010
    Molecular point group: c1
  Basis Set: CC-PVTZ
  Basis Set:

  -Total Gradient:
     Atom            X                  Y                   Z
    ------   -----------------  -----------------  -----------------
       1       -0.000243496512     0.000891296886     0.000112112453
       2        0.000386887334    -0.001366381658    -0.000005219397
       3       -0.000282855106     0.000928873350    -0.000568214622
       4        0.000002289178    -0.000002411442    -0.000001715570
       5        0.000140687176    -0.000458591796     0.000465655786
       6       -0.000003440039     0.000001827054     0.000008156632
       7       -0.000003222157     0.000002597925    -0.000004024101
       8       -0.000000420987     0.000000028539     0.000004227228
       9       -0.000004718229    -0.000004208760    -0.000003347550
      10       -0.000001917939    -0.000000473594    -0.000001840547
      11        0.000007174441     0.000003777708     0.000005319447
      12       -0.000000506369    -0.000001321301    -0.000004179036
      13       -0.000004264061     0.000000593213     0.000000189534
      14        0.000000212380    -0.000001954268    -0.000000712873
      15        0.000002928093     0.000001525793    -0.000000366596
      16       -0.000001773751     0.000001371495    -0.000002535561
      17        0.000002077275     0.000001076236    -0.000001945311
      18        0.000002878919     0.000002131812     0.000002054786
      19        0.000001480355     0.000000242810    -0.000003614699

  **** Optimization is complete! (in 13 steps) ****
    Final optimized geometry and variables:
    Molecular point group: c1

    Geometry (in Angstrom), charge = 0, multiplicity = 1:

    O            1.369777300414     0.496008928624    -1.108591710666
    C            0.872692541465     0.236124159969    -0.060611559945
    C           -0.608394423534    -0.182060065869    -0.002513770968
    C            1.681621722122     0.360111000042     1.211209384089
    C           -0.831431453357    -1.290520755556    -1.040134648737
    C           -1.432056474378     1.059852030063    -0.380644424778
    C           -1.047355256284    -0.685905195626     1.377026866319
    H           -0.536687187857    -0.962040477209    -2.025778495714
    H           -1.878606879259    -1.570074603483    -1.065147812710
    H           -0.256666662820    -2.177433697428    -0.795457668461
    H           -1.157363074148     1.417339424703    -1.363194748438
    H           -2.488730794350     0.818117776699    -0.382917765223
    H           -1.279775082544     1.867562502617     0.328063021621
    H           -2.094121973871    -0.963263487678     1.343377074813
    H           -0.490115398299    -1.563359370004     1.683793886721
    H           -0.937672450514     0.069150500134     2.145596921162
    H            1.735101180306    -0.589660276772     1.728972925620
    H            2.676363177802     0.693429646782     0.959851797233
    H            1.220823788081     1.070187183268     1.887905696788

  Mulliken Charges: (a.u.)
   Center  Symbol    Alpha    Beta     Spin     Total
       1     O     4.18141  4.18141  0.00000 -0.36283
       2     C     2.84612  2.84612  0.00000  0.30777
       3     C     3.00577  3.00577  0.00000 -0.01153
       4     C     3.16275  3.16275  0.00000 -0.32550
       5     C     3.15348  3.15348  0.00000 -0.30697
       6     C     3.15339  3.15339  0.00000 -0.30679
       7     C     3.16564  3.16564  0.00000 -0.33128
       8     H     0.43506  0.43506  0.00000  0.12989
       9     H     0.45074  0.45074  0.00000  0.09853
      10     H     0.45029  0.45029  0.00000  0.09943
      11     H     0.43683  0.43683  0.00000  0.12634
      12     H     0.44915  0.44915  0.00000  0.10170
      13     H     0.44976  0.44976  0.00000  0.10049
      14     H     0.44252  0.44252  0.00000  0.11496
      15     H     0.44549  0.44549  0.00000  0.10903
      16     H     0.44575  0.44575  0.00000  0.10850
      17     H     0.44718  0.44718  0.00000  0.10564
      18     H     0.43169  0.43169  0.00000  0.13661
      19     H     0.44699  0.44699  0.00000  0.10602

   Total alpha = 28.00000, Total beta = 28.00000, Total charge =  0.00000
