                              Psi4 1.0.54 Driver

  ==> Input File <==

--------------------------------------------------------------------------
set {
	reference rhf
	basis cc-pvtz
}

set_num_threads( 4 )
memory 2 gb

molecule MOL {
0 1

H	 3.891268	 0.351838	 -0.035377
N	 3.091618	 -0.244489	 -0.011457
C	 1.860978	 0.530248	 0.016256
H	 3.172917	 -0.813501	 0.805222
C	 0.644130	 -0.381765	 -0.031064
H	 1.857104	 1.177247	 -0.854539
H	 1.788444	 1.180250	 0.889292
C	 -0.678115	 0.376691	 0.025731
H	 0.693998	 -0.977147	 -0.936845
H	 0.693309	 -1.082142	 0.800523
C	 -1.900706	 -0.535531	 -0.022488
H	 -0.725296	 1.079516	 -0.802982
H	 -0.715474	 0.974884	 0.933278
C	 -3.220513	 0.226854	 0.028039
H	 -1.865036	 -1.134397	 -0.928236
H	 -1.857948	 -1.236381	 0.806820
H	 -3.309098	 0.911849	 -0.808725
H	 -4.066838	 -0.449485	 -0.008086
H	 -3.301685	 0.809374	 0.939860

	symmetry c1
}
set optking {
	frozen_dihedral = ("
		6 3 5 9
	")
}

ee,wfn = optimize('scf', return_wfn=True)
oeprop( wfn, 'DIPOLE', 'QUADRUPOLE', 'MULLIKEN_CHARGES')
f=open( 'psi4out.xyz', 'w' )
f.write( "19  " )
f.write( str(ee) + "\n" )
f.write( MOL.save_string_xyz() )
f.close()
--------------------------------------------------------------------------

    Molecular point group: c1
  Charge       = 0
  Multiplicity = 1
  Basis Set: CC-PVTZ
  Basis Set:
  @DF-RHF Final Energy:  -251.44812233488443
    Total Energy =                       -251.4481223348843741
    Molecular point group: c1
  Basis Set: CC-PVTZ
  Basis Set:
  Basis Set: CC-PVTZ
  Basis Set:
  @DF-RHF Final Energy:  -251.44812541255067
    Total Energy =                       -251.4481254125506098
  Basis Set: CC-PVTZ
  Basis Set:
  Charge       = 0
  Multiplicity = 1
  Basis Set: CC-PVTZ
  Basis Set:

    Orbital Energies (a.u.)
    -----------------------

    Doubly Occupied:

       1A    -15.526335     2A    -11.237946     3A    -11.211874
       4A    -11.210424     5A    -11.207696     6A    -11.205459
       7A     -1.178094     8A     -1.074281     9A     -0.999599
      10A     -0.900945    11A     -0.813335    12A     -0.789549
      13A     -0.666435    14A     -0.642903    15A     -0.618051
      16A     -0.589381    17A     -0.565926    18A     -0.549386
      19A     -0.530331    20A     -0.499171    21A     -0.480921
      22A     -0.465115    23A     -0.461520    24A     -0.450901
      25A     -0.383763

  @DF-RHF Final Energy:  -251.44812646724159

   => Energetics <=

    Nuclear Repulsion Energy =            246.0654203686117967
    One-Electron Energy =                -826.5084115482757170
    Two-Electron Energy =                 328.9948647124223839
    DFT Exchange-Correlation Energy =       0.0000000000000000
    Empirical Dispersion Energy =           0.0000000000000000
    PCM Polarization Energy =               0.0000000000000000
    EFP Energy =                            0.0000000000000000
    Total Energy =                       -251.4481264672415932
    Molecular point group: c1
  Basis Set: CC-PVTZ
  Basis Set:

  -Total Gradient:
     Atom            X                  Y                   Z
    ------   -----------------  -----------------  -----------------
       1        0.000010636889    -0.000001912170     0.000001260223
       2       -0.000027375804     0.000015178995     0.000004052204
       3       -0.000372652908     0.000473304443     0.000253123161
       4        0.000009360283    -0.000013552080     0.000004701897
       5        0.000370634685    -0.000475506138     0.000243222332
       6        0.000252268899    -0.000330233266    -0.000271059801
       7        0.000002295682     0.000013700344     0.000019882011
       8        0.000020382361    -0.000017646403    -0.000015232057
       9       -0.000259181971     0.000339734839    -0.000258468250
      10        0.000002110802    -0.000008482841     0.000011450510
      11       -0.000005725800     0.000004187073     0.000013656521
      12       -0.000000746521     0.000004427424    -0.000003280267
      13       -0.000003875631    -0.000001633371    -0.000001844917
      14        0.000000755298    -0.000000643996    -0.000004815933
      15       -0.000000239464     0.000005489262    -0.000000658293
      16        0.000001386238    -0.000005911507     0.000003606096
      17        0.000000396947     0.000002309258     0.000000496026
      18       -0.000001446930    -0.000000941506    -0.000001566883
      19        0.000001016940    -0.000001868359     0.000001475421

  **** Optimization is complete! (in 3 steps) ****
    Final optimized geometry and variables:
    Molecular point group: c1

    Geometry (in Angstrom), charge = 0, multiplicity = 1:

    H            3.889873730521     0.364280165455    -0.057558317160
    N            3.092095294728    -0.234181143288    -0.025218888095
    C            1.859112747522     0.536765967230     0.008478643591
    H            3.181353940963    -0.799907696561     0.792898381254
    C            0.645624197214    -0.380170434545    -0.033705163052
    H            1.850057811715     1.181138485791    -0.864234466150
    H            1.788914684295     1.187204721597     0.881314297322
    C           -0.679101232048     0.374520553887     0.018903793635
    H            0.695585344549    -0.977788502411    -0.937993956679
    H            0.696988595287    -1.076449870799     0.800999052639
    C           -1.898833805566    -0.541079748389    -0.035961493181
    H           -0.725034397411     1.078826889498    -0.808710694567
    H           -0.721859921103     0.970850604680     0.927389899018
    C           -3.220931184382     0.217181227997     0.015713534274
    H           -1.859784761666    -1.135483929942    -0.944480578076
    H           -1.855540383203    -1.245679050050     0.790153140135
    H           -3.309712894416     0.906172070198    -0.817739317402
    H           -4.065228428653    -0.461436179188    -0.025616350451
    H           -3.305635442627     0.794763062049     0.930351565801

  Mulliken Charges: (a.u.)
   Center  Symbol    Alpha    Beta     Spin     Total
       1     H     0.43019  0.43019  0.00000  0.13963
       2     N     3.68939  3.68939  0.00000 -0.37877
       3     C     3.02709  3.02709  0.00000 -0.05417
       4     H     0.43098  0.43098  0.00000  0.13804
       5     C     3.08099  3.08099  0.00000 -0.16198
       6     H     0.45685  0.45685  0.00000  0.08631
       7     H     0.46858  0.46858  0.00000  0.06284
       8     C     3.09338  3.09338  0.00000 -0.18676
       9     H     0.44917  0.44917  0.00000  0.10165
      10     H     0.46021  0.46021  0.00000  0.07958
      11     C     3.08334  3.08334  0.00000 -0.16668
      12     H     0.45515  0.45515  0.00000  0.08971
      13     H     0.45672  0.45672  0.00000  0.08657
      14     C     3.14982  3.14982  0.00000 -0.29965
      15     H     0.45378  0.45378  0.00000  0.09243
      16     H     0.45496  0.45496  0.00000  0.09008
      17     H     0.45522  0.45522  0.00000  0.08957
      18     H     0.44854  0.44854  0.00000  0.10291
      19     H     0.45565  0.45565  0.00000  0.08870

   Total alpha = 25.00000, Total beta = 25.00000, Total charge =  0.00000

*** Psi4 exiting successfully. Buy a developer a beer!
