                              Psi4 1.0.54 Driver

  ==> Input File <==

--------------------------------------------------------------------------
set {
	reference rhf
	basis cc-pvtz
}

set_num_threads( 4 )
memory 2 gb

molecule MOL {
0 1

H	 2.828711	 -0.346904	 0.001083
C	 1.876752	 0.015931	 -0.363450
C	 0.776285	 -0.474665	 0.563092
H	 1.728113	 -0.357244	 -1.367440
H	 1.906171	 1.096574	 -0.386153
N	 -0.540022	 0.017605	 0.071630
H	 0.707111	 -1.548969	 0.573035
H	 0.886169	 -0.084184	 1.560432
O	 -1.319526	 0.385336	 0.884860
O	 -0.729556	 -0.018440	 -1.097632

	symmetry c1
}
set optking {
	frozen_dihedral = ("
		9 6 3 2
	")
}

ee,wfn = optimize('scf', return_wfn=True)
oeprop( wfn, 'DIPOLE', 'QUADRUPOLE', 'MULLIKEN_CHARGES')
f=open( 'psi4out.xyz', 'w' )
f.write( "10  " )
f.write( str(ee) + "\n" )
f.write( MOL.save_string_xyz() )
f.close()
--------------------------------------------------------------------------

    Molecular point group: c1
  Charge       = 0
  Multiplicity = 1
  Basis Set: CC-PVTZ
  Basis Set:
  @DF-RHF Final Energy:  -282.81238279447689
    Total Energy =                       -282.8123827944767754
    Molecular point group: c1
  Basis Set: CC-PVTZ
  Basis Set:
  Basis Set: CC-PVTZ
  Basis Set:
  @DF-RHF Final Energy:  -282.81264987627071
    Total Energy =                       -282.8126498762707115
  Basis Set: CC-PVTZ
  Basis Set:
  Basis Set: CC-PVTZ
  Basis Set:
  @DF-RHF Final Energy:  -282.42922858498662
    Total Energy =                       -282.4292285849866744
  Basis Set: CC-PVTZ
  Basis Set:
  Basis Set: CC-PVTZ
  Basis Set:
  @DF-RHF Final Energy:  -282.58171224651568
    Total Energy =                       -282.5817122465157354
  Basis Set: CC-PVTZ
  Basis Set:
  @DF-RHF Final Energy:  -282.33963486010055
    Total Energy =                       -282.3396348601005457
  @DF-RHF Final Energy:  -282.60793008728217
    Total Energy =                       -282.6079300872821705
  @DF-RHF Final Energy:  -282.78820324384185
    Total Energy =                       -282.7882032438419060
  @DF-RHF Final Energy:  -282.55956076324151
    Total Energy =                       -282.5595607632416204
  @DF-RHF Final Energy:  -282.77606635532004
    Total Energy =                       -282.7760663553200402
  @DF-RHF Final Energy:  -282.65738141144681
    Total Energy =                       -282.6573814114466359
  @DF-RHF Final Energy:  -282.78362863250220
    Total Energy =                       -282.7836286325021433
  @DF-RHF Final Energy:  -282.62014616047878
    Total Energy =                       -282.6201461604786687
  @DF-RHF Final Energy:  -282.77592119250653
    Total Energy =                       -282.7759211925064733
  @DF-RHF Final Energy:  -282.80963760381917
    Total Energy =                       -282.8096376038192261
  @DF-RHF Final Energy:  -282.80917710689857
    Total Energy =                       -282.8091771068985736
  @DF-RHF Final Energy:  -282.40953769131715
    Total Energy =                       -282.4095376913169844
  @DF-RHF Final Energy:  -282.67580450380012
    Total Energy =                       -282.6758045038001228
  @DF-RHF Final Energy:  -282.78937378496448
    Total Energy =                       -282.7893737849644253
  @DF-RHF Final Energy:  -282.61830766570341
    Total Energy =                       -282.6183076657032416
  @DF-RHF Final Energy:  -282.77035911470625
    Total Energy =                       -282.7703591147063662
  @DF-RHF Final Energy:  -282.80932567169646
    Total Energy =                       -282.8093256716965698
  @DF-RHF Final Energy:  -282.81236363106905
    Total Energy =                       -282.8123636310690472
  @DF-RHF Final Energy:  -282.81190683880726
    Total Energy =                       -282.8119068388070332
  Basis Set: CC-PVTZ
  Basis Set:
  @DF-RHF Final Energy:  -282.81302650352325
    Total Energy =                       -282.8130265035233037
  Basis Set: CC-PVTZ
  Basis Set:
  Basis Set: CC-PVTZ
  Basis Set:
  @DF-RHF Final Energy:  -282.81304604280081
    Total Energy =                       -282.8130460428007495
  Basis Set: CC-PVTZ
  Basis Set:
  Basis Set: CC-PVTZ
  Basis Set:
  @DF-RHF Final Energy:  -282.81304962144065
    Total Energy =                       -282.8130496214407117
  Basis Set: CC-PVTZ
  Basis Set:
  Charge       = 0
  Multiplicity = 1
  Basis Set: CC-PVTZ
  Basis Set:

    Orbital Energies (a.u.)
    -----------------------

    Doubly Occupied:

       1A    -20.592866     2A    -20.591590     3A    -15.839188
       4A    -11.302722     5A    -11.246002     6A     -1.638360
       7A     -1.422589     8A     -1.124692     9A     -0.966994
      10A     -0.836873    11A     -0.764725    12A     -0.745867
      13A     -0.731618    14A     -0.648834    15A     -0.592009
      16A     -0.563635    17A     -0.540668    18A     -0.489749
      19A     -0.479516    20A     -0.455939

  @DF-RHF Final Energy:  -282.81305390121469

   => Energetics <=

    Nuclear Repulsion Energy =            186.5820460081021679
    One-Electron Energy =                -755.6413273735906841
    Two-Electron Energy =                 286.2462274642737157
    DFT Exchange-Correlation Energy =       0.0000000000000000
    Empirical Dispersion Energy =           0.0000000000000000
    PCM Polarization Energy =               0.0000000000000000
    EFP Energy =                            0.0000000000000000
    Total Energy =                       -282.8130539012147437
    Molecular point group: c1
  Basis Set: CC-PVTZ
  Basis Set:

  -Total Gradient:
     Atom            X                  Y                   Z
    ------   -----------------  -----------------  -----------------
       1        0.000005211895     0.000004312455    -0.000009837780
       2        0.000023045751    -0.000057429225    -0.000194584736
       3       -0.000090557248     0.000033119609     0.000194794769
       4        0.000001893304    -0.000014502209     0.000012225458
       5       -0.000001143030     0.000002134206     0.000006218522
       6        0.000182324807     0.000030550631     0.000226525376
       7        0.000004282994    -0.000008084190    -0.000011038845
       8        0.000002623522     0.000029465456    -0.000012710932
       9       -0.000128353569    -0.000043134821    -0.000203560945
      10        0.000000671579     0.000023568088    -0.000008030888

  **** Optimization is complete! (in 27 steps) ****
    Final optimized geometry and variables:
    Molecular point group: c1

    Geometry (in Angstrom), charge = 0, multiplicity = 1:

    H            0.748846221022    -2.465335091419     1.270449646061
    C            0.938130826954    -1.493352982347     0.832629291298
    C           -0.381168631819    -0.911247488990     0.370103560223
    H            1.625257802149    -1.608920741222     0.009174507008
    H            1.397765958844    -0.865694792710     1.585016036697
    N           -0.219472367852     0.445096447076    -0.232778565283
    H           -0.826589058059    -1.504809917603    -0.415915735899
    H           -1.092463007235    -0.786728904053     1.167449163051
    O           -1.047275971614     1.251321466727     0.027058528591
    O            0.704818700711     0.618683091824    -0.953456035908

  Mulliken Charges: (a.u.)
   Center  Symbol    Alpha    Beta     Spin     Total
       1     H     0.44915  0.44915  0.00000  0.10171
       2     C     3.14079  3.14079  0.00000 -0.28159
       3     C     3.04024  3.04024  0.00000 -0.08047
       4     H     0.43649  0.43649  0.00000  0.12702
       5     H     0.44534  0.44534  0.00000  0.10931
       6     N     3.27759  3.27759  0.00000  0.44482
       7     H     0.43712  0.43712  0.00000  0.12575
       8     H     0.43133  0.43133  0.00000  0.13733
       9     O     4.16945  4.16945  0.00000 -0.33889
      10     O     4.17249  4.17249  0.00000 -0.34499

   Total alpha = 20.00000, Total beta = 20.00000, Total charge =  0.00000

*** Psi4 exiting successfully. Buy a developer a beer!
