  ==> Input File <==

--------------------------------------------------------------------------
set {
	reference rhf
	basis 6-31G*
}

set_num_threads( 1 )
memory 2 gb

molecule MOL {
0 1

H	 -3.419533	 -0.306918	 1.148286
C	 -3.359283	 -0.198583	 0.058215
C	 -2.613999	 1.021153	 -0.420748
O	 -3.861185	 -1.008937	 -0.651130
C	 -1.220012	 1.144545	 0.209990
H	 -2.560268	 0.986274	 -1.502693
H	 -3.210465	 1.889619	 -0.143891
C	 -0.252658	 0.041456	 -0.226725
H	 -0.806706	 2.112904	 -0.055987
H	 -1.312975	 1.142970	 1.294938
C	 1.180775	 0.282413	 0.250794
H	 -0.266029	 -0.034465	 -1.312038
H	 -0.597733	 -0.921000	 0.146291
C	 2.148627	 -0.814315	 -0.201312
H	 1.516199	 1.249228	 -0.115937
H	 1.192670	 0.346017	 1.338083
C	 3.580890	 -0.659131	 0.322722
H	 2.166869	 -0.852443	 -1.289387
H	 1.762857	 -1.776509	 0.128956
C	 4.324889	 0.564933	 -0.213704
H	 4.142010	 -1.551473	 0.056605
H	 3.564836	 -0.624694	 1.410140
H	 4.342616	 0.565491	 -1.300421
H	 3.866655	 1.493402	 0.110242
H	 5.353900	 0.572371	 0.132816

	symmetry c1
}
set optking {
	frozen_dihedral = ("
		6 3 5 8,
		6 3 2 4,
		12 8 11 14,
		8 11 14 18,
		20 17 14 18
	")
}

ee = energy('scf')
oeprop('DIPOLE', 'QUADRUPOLE', 'MULLIKEN_CHARGES')
f=open( 'psi4out.xyz', 'w' )
f.write( "25  " )
f.write( str(ee) + "\n" )
f.write( MOL.save_string_xyz() )
f.close()
--------------------------------------------------------------------------

    Molecular point group: c1

    Geometry (in Angstrom), charge = 0, multiplicity = 1:

       Center              X                  Y                   Z               Mass
    ------------   -----------------  -----------------  -----------------  -----------------
           H         -3.416172502827    -0.344196613649     1.249890824253     1.007825032070
           C         -3.355922502827    -0.235861613649     0.159819824253    12.000000000000
           C         -2.610638502827     0.983874386351    -0.319143175747    12.000000000000
           O         -3.857824502827    -1.046215613649    -0.549525175747    15.994914619560
           C         -1.216651502827     1.107266386351     0.311594824253    12.000000000000
           H         -2.556907502827     0.948995386351    -1.401088175747     1.007825032070
           H         -3.207104502827     1.852340386351    -0.042286175747     1.007825032070
           C         -0.249297502827     0.004177386351    -0.125120175747    12.000000000000
           H         -0.803345502827     2.075625386351     0.045617824253     1.007825032070
           H         -1.309614502827     1.105691386351     1.396542824253     1.007825032070
           C          1.184135497173     0.245134386351     0.352398824253    12.000000000000
           H         -0.262668502827    -0.071743613649    -1.210433175747     1.007825032070
           H         -0.594372502827    -0.958278613649     0.247895824253     1.007825032070
           C          2.151987497173    -0.851593613649    -0.099707175747    12.000000000000
           H          1.519559497173     1.211949386351    -0.014332175747     1.007825032070
           H          1.196030497173     0.308738386351     1.439687824253     1.007825032070
           C          3.584250497173    -0.696409613649     0.424326824253    12.000000000000
           H          2.170229497173    -0.889721613649    -1.187782175747     1.007825032070
           H          1.766217497173    -1.813787613649     0.230560824253     1.007825032070
           C          4.328249497173     0.527654386351    -0.112099175747    12.000000000000
           H          4.145370497173    -1.588751613649     0.158209824253     1.007825032070
           H          3.568196497173    -0.661972613649     1.511744824253     1.007825032070
           H          4.345976497173     0.528212386351    -1.198816175747     1.007825032070
           H          3.870015497173     1.456123386351     0.211846824253     1.007825032070
           H          5.357260497173     0.535092386351     0.234420824253     1.007825032070

  Charge       = 0
  Multiplicity = 1
  Basis Set: 6-31G*
  Basis Set:

    Orbital Energies (a.u.)
    -----------------------

    Doubly Occupied:

       1A    -20.561898     2A    -11.326070     3A    -11.235319
       4A    -11.234643     5A    -11.223893     6A    -11.219926
       7A    -11.218054     8A    -11.217023     9A    -11.210715
      10A     -1.401867    11A     -1.104026    12A     -1.069754
      13A     -1.013417    14A     -0.942478    15A     -0.875183
      16A     -0.820830    17A     -0.787919    18A     -0.781507
      19A     -0.664682    20A     -0.661557    21A     -0.632790
      22A     -0.626114    23A     -0.600298    24A     -0.595717
      25A     -0.576089    26A     -0.548417    27A     -0.536456
      28A     -0.524864    29A     -0.508220    30A     -0.495167
      31A     -0.492152    32A     -0.479185    33A     -0.464705
      34A     -0.459080    35A     -0.441167    36A     -0.409400

  @DF-RHF Final Energy:  -387.12185823502335

   => Energetics <=

    Nuclear Repulsion Energy =            438.9510279831842468
    One-Electron Energy =               -1394.2246642883831100
    Two-Electron Energy =                 568.1517780701738047
    DFT Exchange-Correlation Energy =       0.0000000000000000
    Empirical Dispersion Energy =           0.0000000000000000
    PCM Polarization Energy =               0.0000000000000000
    EFP Energy =                            0.0000000000000000
    Total Energy =                       -387.1218582350250017

  Mulliken Charges: (a.u.)
   Center  Symbol    Alpha    Beta     Spin     Total
       1     H     0.43265  0.43265  0.00000  0.13471
       2     C     2.83079  2.83079  0.00000  0.33841
       3     C     3.20845  3.20845  0.00000 -0.41690
       4     O     4.23767  4.23767  0.00000 -0.47535
       5     C     3.16642  3.16642  0.00000 -0.33284
       6     H     0.39964  0.39964  0.00000  0.20073
       7     H     0.40674  0.40674  0.00000  0.18652
       8     C     3.15480  3.15480  0.00000 -0.30961
       9     H     0.41298  0.41298  0.00000  0.17405
      10     H     0.41930  0.41930  0.00000  0.16141
      11     C     3.15430  3.15430  0.00000 -0.30859
      12     H     0.41764  0.41764  0.00000  0.16472
      13     H     0.41883  0.41883  0.00000  0.16234
      14     C     3.15311  3.15311  0.00000 -0.30622
      15     H     0.42078  0.42078  0.00000  0.15843
      16     H     0.42371  0.42371  0.00000  0.15257
      17     C     3.15275  3.15275  0.00000 -0.30551
      18     H     0.42284  0.42284  0.00000  0.15433
      19     H     0.42082  0.42082  0.00000  0.15836
      20     C     3.24135  3.24135  0.00000 -0.48270
      21     H     0.41997  0.41997  0.00000  0.16006
      22     H     0.42326  0.42326  0.00000  0.15348
      23     H     0.42184  0.42184  0.00000  0.15632
      24     H     0.42069  0.42069  0.00000  0.15862
      25     H     0.41867  0.41867  0.00000  0.16267

   Total alpha = 36.00000, Total beta = 36.00000, Total charge = -0.00000
