  ==> Input File <==

--------------------------------------------------------------------------
set {
	reference rhf
	basis 6-31G*
}

set_num_threads( 4 )
memory 2 gb

molecule MOL {
0 1

H	 -2.499100	 -0.730091	 -0.745082
O	 -2.347518	 -0.290803	 0.079804
C	 -1.184022	 0.487508	 -0.006784
C	 0.062599	 -0.378592	 0.031606
H	 -1.176523	 1.099369	 -0.904519
H	 -1.187323	 1.153111	 0.844927
O	 1.171513	 0.459272	 -0.058250
H	 0.050699	 -1.089204	 -0.797170
H	 0.078739	 -0.954914	 0.954740
C	 1.228575	 1.218380	 -1.224287
H	 0.366322	 1.876602	 -1.313130
H	 2.125540	 1.820278	 -1.178715
H	 1.272357	 0.585672	 -2.108343

	symmetry c1
}
set optking {
	frozen_dihedral = ("
		10 7 4 8
	")
}

ee = optimize('scf')
oeprop('DIPOLE', 'QUADRUPOLE', 'MULLIKEN_CHARGES')
f=open( 'psi4out.xyz', 'w' )
f.write( "13  " )
f.write( str(ee) + "\n" )
f.write( MOL.save_string_xyz() )
f.close()
--------------------------------------------------------------------------

    Molecular point group: c1
  Charge       = 0
  Multiplicity = 1
  Basis Set: 6-31G*
  Basis Set:
  @DF-RHF Final Energy:  -267.93901657197381
    Total Energy =                       -267.9390165719739230
    Molecular point group: c1
  Basis Set: 6-31G*
  Basis Set:
  Basis Set: 6-31G*
  Basis Set:
  @DF-RHF Final Energy:  -267.94029374278114
    Total Energy =                       -267.9402937427812503
  Basis Set: 6-31G*
  Basis Set:
  Basis Set: 6-31G*
  Basis Set:
  @DF-RHF Final Energy:  -267.94505326248390
    Total Energy =                       -267.9450532624838388
  Basis Set: 6-31G*
  Basis Set:
  Basis Set: 6-31G*
  Basis Set:
  @DF-RHF Final Energy:  -267.94619873913274
    Total Energy =                       -267.9461987391325692
  Basis Set: 6-31G*
  Basis Set:
  Basis Set: 6-31G*
  Basis Set:
  @DF-RHF Final Energy:  -267.94642301912029
    Total Energy =                       -267.9464230191204024
  Basis Set: 6-31G*
  Basis Set:
  Basis Set: 6-31G*
  Basis Set:
  @DF-RHF Final Energy:  -267.94645011806745
    Total Energy =                       -267.9464501180671618
  Basis Set: 6-31G*
  Basis Set:
  Basis Set: 6-31G*
  Basis Set:
  @DF-RHF Final Energy:  -267.94645268112106
    Total Energy =                       -267.9464526811211726
  Basis Set: 6-31G*
  Basis Set:
  Charge       = 0
  Multiplicity = 1
  Basis Set: 6-31G*
  Basis Set:

    Orbital Energies (a.u.)
    -----------------------

    Doubly Occupied:

       1A    -20.563941     2A    -20.561828     3A    -11.273260
       4A    -11.271498     5A    -11.271342     6A     -1.386339
       7A     -1.368161     8A     -1.013997     9A     -0.932587
      10A     -0.834534    11A     -0.711175    12A     -0.674289
      13A     -0.663806    14A     -0.635720    15A     -0.599297
      16A     -0.574864    17A     -0.535576    18A     -0.495507
      19A     -0.492426    20A     -0.452382    21A     -0.407578

  @DF-RHF Final Energy:  -267.94645299293836

   => Energetics <=

    Nuclear Repulsion Energy =            192.3258556136800337
    One-Electron Energy =                -747.1044026856371829
    Two-Electron Energy =                 286.8320940790187024
    DFT Exchange-Correlation Energy =       0.0000000000000000
    Empirical Dispersion Energy =           0.0000000000000000
    PCM Polarization Energy =               0.0000000000000000
    EFP Energy =                            0.0000000000000000
    Total Energy =                       -267.9464529929384753
    Molecular point group: c1
  Basis Set: 6-31G*
  Basis Set:

  -Total Gradient:
     Atom            X                  Y                   Z
    ------   -----------------  -----------------  -----------------
       1        0.000002475668     0.000010942029     0.000003008729
       2       -0.000000941090    -0.000012101299     0.000010533288
       3       -0.000001619957     0.000004881633    -0.000019253367
       4       -0.001919629056     0.002604591995    -0.001396242395
       5        0.000004829161     0.000003651727    -0.000006268256
       6       -0.000002907071    -0.000009902945     0.000001318583
       7        0.001790563580    -0.002543851129    -0.000790638639
       8        0.001139275984    -0.001552458100     0.001395473422
       9       -0.000005149601     0.000011793113    -0.000007720980
      10       -0.001001862580     0.001480510349     0.000816690329
      11       -0.000002947133     0.000003363389    -0.000004258571
      12        0.000000290136     0.000000506464    -0.000005917604
      13       -0.000002378038    -0.000001927224     0.000003275462

  **** Optimization is complete! (in 8 steps) ****
    Final optimized geometry and variables:
    Molecular point group: c1

    Geometry (in Angstrom), charge = 0, multiplicity = 1:

    H           -2.270845070322    -1.207212147724    -0.348108160946
    O           -2.119253404094    -0.694715354072     0.433597292347
    C           -1.038166140917     0.175647051739     0.226931099221
    C            0.274841454108    -0.599431739718     0.217626487694
    H           -1.175414652820     0.746443796884    -0.687651183784
    H           -1.035494493435     0.873952442962     1.052983997485
    O            1.416904083618     0.201914804646     0.176285562070
    H            0.287510094286    -1.320019964335    -0.602842453982
    H            0.335850578741    -1.165382305166     1.137427071928
    C            1.602398789270     0.960631957767    -0.979382539519
    H            0.911996338989     1.796865559855    -1.039235252747
    H            2.610291997499     1.350776088113    -0.947225285782
    H            1.492187014444     0.353530394659    -1.876563126434

  Mulliken Charges: (a.u.)
   Center  Symbol    Alpha    Beta     Spin     Total
       1     H     0.28113  0.28113  0.00000  0.43773
       2     O     4.36926  4.36926  0.00000 -0.73853
       3     C     3.01180  3.01180  0.00000 -0.02360
       4     C     3.00188  3.00188  0.00000 -0.00377
       5     H     0.42898  0.42898  0.00000  0.14205
       6     H     0.40797  0.40797  0.00000  0.18405
       7     O     4.30519  4.30519  0.00000 -0.61039
       8     H     0.43691  0.43691  0.00000  0.12618
       9     H     0.40556  0.40556  0.00000  0.18888
      10     C     3.08348  3.08348  0.00000 -0.16697
      11     H     0.42724  0.42724  0.00000  0.14552
      12     H     0.40956  0.40956  0.00000  0.18088
      13     H     0.43102  0.43102  0.00000  0.13796

   Total alpha = 21.00000, Total beta = 21.00000, Total charge = -0.00000
