                              Psi4 1.0.54 Driver

  ==> Input File <==

--------------------------------------------------------------------------
set {
	reference rhf
	basis cc-pvtz
}

set_num_threads( 4 )
memory 2 gb

molecule MOL {
0 1

H	 -4.191583	 0.675082	 -0.240969
O	 -3.491901	 0.062562	 -0.373106
C	 -2.277004	 0.617139	 0.056882
C	 -1.175688	 -0.398187	 -0.171891
H	 -2.059398	 1.530162	 -0.493399
H	 -2.328983	 0.875607	 1.112497
C	 0.196029	 0.106276	 0.266738
H	 -1.158406	 -0.654721	 -1.226458
H	 -1.428576	 -1.306594	 0.365475
C	 1.330220	 -0.826136	 -0.155230
H	 0.359542	 1.097229	 -0.145561
H	 0.212134	 0.218135	 1.348778
C	 2.719700	 -0.407669	 0.328325
H	 1.339388	 -0.911200	 -1.239363
H	 1.119001	 -1.821953	 0.224128
C	 3.241564	 0.893452	 -0.276737
H	 3.418299	 -1.204729	 0.093035
H	 2.711776	 -0.323368	 1.411960
H	 3.254204	 0.841071	 -1.360784
H	 2.634460	 1.745075	 0.005842
H	 4.254264	 1.092401	 0.054971

	symmetry c1
}
set optking {
	frozen_dihedral = ("
		8 4 7 10
	")
}

ee,wfn = optimize('scf', return_wfn=True)
oeprop( wfn, 'DIPOLE', 'QUADRUPOLE', 'MULLIKEN_CHARGES')
f=open( 'psi4out.xyz', 'w' )
f.write( "21  " )
f.write( str(ee) + "\n" )
f.write( MOL.save_string_xyz() )
f.close()
--------------------------------------------------------------------------

    Molecular point group: c1
  Charge       = 0
  Multiplicity = 1
  Basis Set: CC-PVTZ
  Basis Set:
  @DF-RHF Final Energy:  -310.33281513398259
    Total Energy =                       -310.3328151339825354
    Molecular point group: c1
  Basis Set: CC-PVTZ
  Basis Set:
  Basis Set: CC-PVTZ
  Basis Set:
  @DF-RHF Final Energy:  -310.33283704552440
    Total Energy =                       -310.3328370455244567
  Basis Set: CC-PVTZ
  Basis Set:
  Basis Set: CC-PVTZ
  Basis Set:
  @DF-RHF Final Energy:  -310.33284694282332
    Total Energy =                       -310.3328469428234939
  Basis Set: CC-PVTZ
  Basis Set:
  Basis Set: CC-PVTZ
  Basis Set:
  @DF-RHF Final Energy:  -310.33285396496314
    Total Energy =                       -310.3328539649628510
  Basis Set: CC-PVTZ
  Basis Set:
  Charge       = 0
  Multiplicity = 1
  Basis Set: CC-PVTZ
  Basis Set:

    Orbital Energies (a.u.)
    -----------------------

    Doubly Occupied:

       1A    -20.545437     2A    -11.265070     3A    -11.213167
       4A    -11.213061     5A    -11.211325     6A    -11.208899
       7A    -11.206137     8A     -1.363286     9A     -1.087423
      10A     -1.034408    11A     -0.955566    12A     -0.876541
      13A     -0.807903    14A     -0.779245    15A     -0.696390
      16A     -0.661794    17A     -0.624353    18A     -0.607645
      19A     -0.587368    20A     -0.573653    21A     -0.535171
      22A     -0.521960    23A     -0.512608    24A     -0.485570
      25A     -0.481583    26A     -0.461117    27A     -0.455804
      28A     -0.444296    29A     -0.437299

  @DF-RHF Final Energy:  -310.33285487693252

   => Energetics <=

    Nuclear Repulsion Energy =            312.9901690987418306
    One-Electron Energy =               -1040.9379012043145849
    Two-Electron Energy =                 417.6148772286401254
    DFT Exchange-Correlation Energy =       0.0000000000000000
    Empirical Dispersion Energy =           0.0000000000000000
    PCM Polarization Energy =               0.0000000000000000
    EFP Energy =                            0.0000000000000000
    Total Energy =                       -310.3328548769326289
    Molecular point group: c1
  Basis Set: CC-PVTZ
  Basis Set:

  -Total Gradient:
     Atom            X                  Y                   Z
    ------   -----------------  -----------------  -----------------
       1       -0.000015346831    -0.000004868718    -0.000001428948
       2       -0.000033994715    -0.000001325448    -0.000020723601
       3        0.000034396862     0.000003694166     0.000002095183
       4       -0.000421727542     0.001821444940    -0.000725320388
       5        0.000005080137    -0.000021178866     0.000019646216
       6        0.000024323163    -0.000015967705    -0.000038432409
       7       -0.000039685660    -0.000979774107     0.001264084163
       8        0.000373809868    -0.001288084837     0.000363729822
       9       -0.000024465168     0.000005181328     0.000011940020
      10        0.000087293345     0.000488732239    -0.000874796639
      11        0.000000684217     0.000002769597     0.000014509019
      12        0.000001229254    -0.000021530259    -0.000020576174
      13       -0.000004097949    -0.000004847051     0.000003457474
      14       -0.000007066576     0.000001969080     0.000004092698
      15       -0.000003559453     0.000006290766    -0.000002730233
      16        0.000013056075     0.000008529938     0.000001655744
      17        0.000004052257    -0.000001391997    -0.000001409925
      18        0.000009434825    -0.000001083204    -0.000000488071
      19        0.000005189035    -0.000004288577     0.000002478705
      20       -0.000002105743     0.000000263958    -0.000000484587
      21       -0.000006499410     0.000005464759    -0.000001298068

  **** Optimization is complete! (in 5 steps) ****
    Final optimized geometry and variables:
    Molecular point group: c1

    Geometry (in Angstrom), charge = 0, multiplicity = 1:

    H           -4.206668472438     0.636764810431    -0.177320828424
    O           -3.506004428546     0.023889235877    -0.302140996477
    C           -2.286323957143     0.598993307670     0.084986482031
    C           -1.182808707797    -0.415051671215    -0.134777139445
    H           -2.086256242404     1.495597191441    -0.497714524505
    H           -2.317888913086     0.890040370479     1.132991973694
    C            0.190179337108     0.095518971921     0.294532782706
    H           -1.166476428866    -0.695054797526    -1.183317912176
    H           -1.430957928329    -1.316495674664     0.416727870536
    C            1.321667608963    -0.849452736643    -0.105950308326
    H            0.360337033813     1.073858542087    -0.145177691281
    H            0.203638554917     0.238177801041     1.372491619796
    C            2.707070626157    -0.444523159086     0.400050115243
    H            1.347032787606    -0.935237226996    -1.189560876428
    H            1.094620389680    -1.843085488859     0.270581895118
    C            3.246749394294     0.856651548107    -0.188962016087
    H            3.403167731304    -1.245159405107     0.169585658180
    H            2.684258274991    -0.366963133390     1.483916780284
    H            3.273503162253     0.811635184960    -1.273083554190
    H            2.642139637652     1.710732111133     0.091519091830
    H            4.256335681222     1.045706704180     0.157597148840

  Mulliken Charges: (a.u.)
   Center  Symbol    Alpha    Beta     Spin     Total
       1     H     0.39761  0.39761  0.00000  0.20478
       2     O     4.19428  4.19428  0.00000 -0.38855
       3     C     2.96310  2.96310  0.00000  0.07380
       4     C     3.08386  3.08386  0.00000 -0.16773
       5     H     0.47466  0.47466  0.00000  0.05069
       6     H     0.47519  0.47519  0.00000  0.04962
       7     C     3.10337  3.10337  0.00000 -0.20674
       8     H     0.45147  0.45147  0.00000  0.09707
       9     H     0.45012  0.45012  0.00000  0.09977
      10     C     3.09425  3.09425  0.00000 -0.18849
      11     H     0.45491  0.45491  0.00000  0.09017
      12     H     0.45420  0.45420  0.00000  0.09160
      13     C     3.08977  3.08977  0.00000 -0.17954
      14     H     0.45313  0.45313  0.00000  0.09373
      15     H     0.44891  0.44891  0.00000  0.10219
      16     C     3.15262  3.15262  0.00000 -0.30524
      17     H     0.44850  0.44850  0.00000  0.10301
      18     H     0.45484  0.45484  0.00000  0.09031
      19     H     0.45469  0.45469  0.00000  0.09061
      20     H     0.45415  0.45415  0.00000  0.09170
      21     H     0.44638  0.44638  0.00000  0.10723

   Total alpha = 29.00000, Total beta = 29.00000, Total charge = -0.00000

*** Psi4 exiting successfully. Buy a developer a beer!
