  ==> Input File <==

--------------------------------------------------------------------------
set {
	reference rhf
	basis cc-pvtz
}

set_num_threads( 4 )
memory 2 gb

molecule MOL {
0 1

H	 2.566360	 2.057125	 1.168495
N	 1.746130	 1.493033	 1.100376
C	 1.860978	 0.530248	 0.016256
H	 0.975935	 2.110371	 0.948577
C	 0.644130	 -0.381765	 -0.031064
H	 2.748691	 -0.066859	 0.196078
H	 1.993598	 1.002380	 -0.958146
C	 -0.678115	 0.376691	 0.025731
H	 0.693998	 -0.977147	 -0.936845
H	 0.693309	 -1.082142	 0.800523
C	 -1.900706	 -0.535531	 -0.022488
H	 -0.725296	 1.079516	 -0.802982
H	 -0.715474	 0.974884	 0.933278
C	 -3.220513	 0.226854	 0.028039
H	 -1.865036	 -1.134397	 -0.928236
H	 -1.857948	 -1.236381	 0.806820
H	 -3.309098	 0.911849	 -0.808725
H	 -4.066838	 -0.449485	 -0.008086
H	 -3.301685	 0.809374	 0.939860

	symmetry c1
}
set optking {
	frozen_dihedral = ("
		6 3 5 9
	")
}

ee = optimize('scf')
oeprop('DIPOLE', 'QUADRUPOLE', 'MULLIKEN_CHARGES')
f=open( 'psi4out.xyz', 'w' )
f.write( "19  " )
f.write( str(ee) + "\n" )
f.write( MOL.save_string_xyz() )
f.close()
--------------------------------------------------------------------------

    Molecular point group: c1
  Charge       = 0
  Multiplicity = 1
  Basis Set: CC-PVTZ
  Basis Set:
  @DF-RHF Final Energy:  -251.44500136922306
    Total Energy =                       -251.4450013692235189
    Molecular point group: c1
  Basis Set: CC-PVTZ
  Basis Set:
  Basis Set: CC-PVTZ
  Basis Set:
  @DF-RHF Final Energy:  -251.44561849029819
    Total Energy =                       -251.4456184902979317
  Basis Set: CC-PVTZ
  Basis Set:
  Basis Set: CC-PVTZ
  Basis Set:
  @DF-RHF Final Energy:  -251.44620695710395
    Total Energy =                       -251.4462069571040956
  Basis Set: CC-PVTZ
  Basis Set:
  Basis Set: CC-PVTZ
  Basis Set:
  @DF-RHF Final Energy:  -251.44624969040063
    Total Energy =                       -251.4462496904006912
  Basis Set: CC-PVTZ
  Basis Set:
  Basis Set: CC-PVTZ
  Basis Set:
  @DF-RHF Final Energy:  -251.44625486977344
    Total Energy =                       -251.4462548697732700
  Basis Set: CC-PVTZ
  Basis Set:
  Charge       = 0
  Multiplicity = 1
  Basis Set: CC-PVTZ
  Basis Set:

    Orbital Energies (a.u.)
    -----------------------

    Doubly Occupied:

       1A    -15.526316     2A    -11.238740     3A    -11.210955
       4A    -11.208569     5A    -11.207416     6A    -11.204773
       7A     -1.178181     8A     -1.071465     9A     -0.997571
      10A     -0.907184    11A     -0.814341    12A     -0.778896
      13A     -0.665135    14A     -0.654337    15A     -0.613563
      16A     -0.586094    17A     -0.561041    18A     -0.551075
      19A     -0.528055    20A     -0.500698    21A     -0.488526
      22A     -0.463039    23A     -0.460608    24A     -0.445105
      25A     -0.383328

  @DF-RHF Final Energy:  -251.44625524352384

   => Energetics <=

    Nuclear Repulsion Energy =            249.9784141463228195
    One-Electron Energy =                -834.3593172494040573
    Two-Electron Energy =                 332.9346478595574581
    DFT Exchange-Correlation Energy =       0.0000000000000000
    Empirical Dispersion Energy =           0.0000000000000000
    PCM Polarization Energy =               0.0000000000000000
    EFP Energy =                            0.0000000000000000
    Total Energy =                       -251.4462552435237512
    Molecular point group: c1
  Basis Set: CC-PVTZ
  Basis Set:

  -Total Gradient:
     Atom            X                  Y                   Z
    ------   -----------------  -----------------  -----------------
       1       -0.000005587887    -0.000004881087    -0.000006734617
       2       -0.000015125810    -0.000012556890    -0.000005991473
       3       -0.000031296417    -0.000024826238    -0.004844677138
       4       -0.000004552171    -0.000000666028     0.000004577217
       5        0.002272666043    -0.003020452759     0.003014740724
       6       -0.000305384726     0.000481327985     0.003638001698
       7       -0.000000120343    -0.000005983273    -0.000003680949
       8        0.000015507505     0.000012697738    -0.000034219161
       9       -0.001929085840     0.002585385052    -0.001766296276
      10        0.000013169858    -0.000009599643     0.000002805440
      11       -0.000012878700    -0.000006606651    -0.000010450361
      12       -0.000014982421     0.000014198446    -0.000000515559
      13        0.000010306711    -0.000004639653    -0.000000155318
      14        0.000005112702    -0.000003601277     0.000015753572
      15        0.000008190928    -0.000001539864    -0.000001589552
      16       -0.000008991600     0.000003084005    -0.000000247988
      17        0.000003801651    -0.000004821403    -0.000001910452
      18        0.000002064776    -0.000001017092     0.000001144374
      19       -0.000002814258     0.000004498634    -0.000000554182

  **** Optimization is complete! (in 6 steps) ****
    Final optimized geometry and variables:
    Molecular point group: c1

    Geometry (in Angstrom), charge = 0, multiplicity = 1:

    H            2.963191717659     1.651900036894     0.974674951949
    N            2.078074582964     1.199105430994     0.892921042025
    C            2.096024844463     0.226986457406    -0.192386212316
    H            1.399571304472     1.912741319493     0.733800152376
    C            0.868557562156    -0.679803474526    -0.172050972496
    H            2.976544178900    -0.385625507674    -0.037598979995
    H            2.186905212115     0.692403102988    -1.174007774203
    C           -0.465275109167     0.065243454911    -0.140957759748
    H            0.888124880187    -1.287371916474    -1.073284386758
    H            0.928728239833    -1.346782641567     0.681375654116
    C           -1.670125854913    -0.866660673208    -0.240250490128
    H           -0.500704632774     0.779853787859    -0.962131715430
    H           -0.541522848063     0.639706009879     0.776354557981
    C           -3.004183979019    -0.129265517035    -0.194043604311
    H           -1.607350112479    -1.439764095595    -1.161306300260
    H           -1.630046910647    -1.588734485302     0.570615453721
    H           -3.089350664671     0.577759867262    -1.012818662591
    H           -3.837466868075    -0.818932732328    -0.265724400491
    H           -3.112737047423     0.425150924045     0.732210133036

  Mulliken Charges: (a.u.)
   Center  Symbol    Alpha    Beta     Spin     Total
       1     H     0.42928  0.42928  0.00000  0.14144
       2     N     3.69214  3.69214  0.00000 -0.38428
       3     C     3.03984  3.03984  0.00000 -0.07969
       4     H     0.42784  0.42784  0.00000  0.14431
       5     C     3.07668  3.07668  0.00000 -0.15336
       6     H     0.45255  0.45255  0.00000  0.09490
       7     H     0.46386  0.46386  0.00000  0.07228
       8     C     3.09720  3.09720  0.00000 -0.19440
       9     H     0.45658  0.45658  0.00000  0.08684
      10     H     0.45349  0.45349  0.00000  0.09302
      11     C     3.08417  3.08417  0.00000 -0.16834
      12     H     0.45673  0.45673  0.00000  0.08655
      13     H     0.45102  0.45102  0.00000  0.09796
      14     C     3.14998  3.14998  0.00000 -0.29996
      15     H     0.45519  0.45519  0.00000  0.08962
      16     H     0.45368  0.45368  0.00000  0.09264
      17     H     0.45609  0.45609  0.00000  0.08783
      18     H     0.44864  0.44864  0.00000  0.10272
      19     H     0.45503  0.45503  0.00000  0.08994

   Total alpha = 25.00000, Total beta = 25.00000, Total charge = -0.00000
