  ==> Input File <==

--------------------------------------------------------------------------
set {
	reference rhf
	basis 6-31G*
}

set_num_threads( 1 )
memory 2 gb

molecule MOL {
0 1

H	 -2.566393	 -0.811513	 1.774526
C	 -2.564112	 -1.327279	 0.816339
O	 -1.320206	 -1.247739	 0.198513
H	 -2.779790	 -2.373844	 0.981650
H	 -3.349082	 -0.900828	 0.193130
C	 -0.906847	 0.051277	 -0.085989
C	 0.494022	 0.017251	 -0.650448
H	 -1.576039	 0.509865	 -0.815080
H	 -0.916850	 0.666045	 0.811766
O	 1.392611	 -0.295398	 0.366430
H	 0.541047	 -0.720480	 -1.448914
H	 0.731715	 0.991856	 -1.078630
C	 2.706965	 -0.449871	 -0.062409
H	 2.756559	 -0.644779	 -1.131878
H	 3.305899	 0.433456	 0.155466
H	 3.125548	 -1.294566	 0.467107

	symmetry c1
}
set optking {
	frozen_dihedral = ("
		3 6 7 11,
		2 3 6 7
	")
}

ee = energy('scf')
oeprop('DIPOLE', 'QUADRUPOLE', 'MULLIKEN_CHARGES')
f=open( 'psi4out.xyz', 'w' )
f.write( "16  " )
f.write( str(ee) + "\n" )
f.write( MOL.save_string_xyz() )
f.close()
--------------------------------------------------------------------------

    Molecular point group: c1

    Geometry (in Angstrom), charge = 0, multiplicity = 1:

       Center              X                  Y                   Z               Mass
    ------------   -----------------  -----------------  -----------------  -----------------
           H         -2.535142971805    -0.263449469596     1.672885517204     1.007825032070
           C         -2.532861971805    -0.779215469596     0.714698517204    12.000000000000
           O         -1.288955971805    -0.699675469596     0.096872517204    15.994914619560
           H         -2.748539971805    -1.825780469596     0.880009517204     1.007825032070
           H         -3.317831971805    -0.352764469596     0.091489517204     1.007825032070
           C         -0.875596971805     0.599340530404    -0.187629482796    12.000000000000
           C          0.525272028195     0.565314530404    -0.752088482796    12.000000000000
           H         -1.544788971805     1.057928530404    -0.916720482796     1.007825032070
           H         -0.885599971805     1.214108530404     0.710125517204     1.007825032070
           O          1.423861028195     0.252665530404     0.264789517204    15.994914619560
           H          0.572297028195    -0.172416469596    -1.550554482796     1.007825032070
           H          0.762965028195     1.539919530404    -1.180270482796     1.007825032070
           C          2.738215028195     0.098192530404    -0.164049482796    12.000000000000
           H          2.787809028195    -0.096715469596    -1.233518482796     1.007825032070
           H          3.337149028195     0.981519530404     0.053825517204     1.007825032070
           H          3.156798028195    -0.746502469596     0.365466517204     1.007825032070

  Charge       = 0
  Multiplicity = 1
  Basis Set: 6-31G*
  Basis Set:

    Orbital Energies (a.u.)
    -----------------------

    Doubly Occupied:

       1A    -20.553495     2A    -20.551381     3A    -11.269265
       4A    -11.268262     5A    -11.263468     6A    -11.262595
       7A     -1.387841     8A     -1.370195     9A     -1.030505
      10A     -0.935612    11A     -0.892029    12A     -0.824822
      13A     -0.683248    14A     -0.679352    15A     -0.657709
      16A     -0.635636    17A     -0.627892    18A     -0.596508
      19A     -0.553667    20A     -0.536007    21A     -0.507101
      22A     -0.478079    23A     -0.463505    24A     -0.418295
      25A     -0.407869

  @DF-RHF Final Energy:  -306.97440462181152

   => Energetics <=

    Nuclear Repulsion Energy =            258.8658862886256316
    One-Electron Energy =                -931.9718199563724284
    Two-Electron Energy =                 366.1315290459349399
    DFT Exchange-Correlation Energy =       0.0000000000000000
    Empirical Dispersion Energy =           0.0000000000000000
    PCM Polarization Energy =               0.0000000000000000
    EFP Energy =                            0.0000000000000000
    Total Energy =                       -306.9744046218118001

  Mulliken Charges: (a.u.)
   Center  Symbol    Alpha    Beta     Spin     Total
       1     H     0.42805  0.42805  0.00000  0.14390
       2     C     3.07947  3.07947  0.00000 -0.15894
       3     O     4.30094  4.30094  0.00000 -0.60189
       4     H     0.41135  0.41135  0.00000  0.17731
       5     H     0.43191  0.43191  0.00000  0.13618
       6     C     2.99357  2.99357  0.00000  0.01285
       7     C     2.99495  2.99495  0.00000  0.01011
       8     H     0.43237  0.43237  0.00000  0.13525
       9     H     0.42270  0.42270  0.00000  0.15460
      10     O     4.30230  4.30230  0.00000 -0.60461
      11     H     0.42170  0.42170  0.00000  0.15661
      12     H     0.43240  0.43240  0.00000  0.13520
      13     C     3.07708  3.07708  0.00000 -0.15416
      14     H     0.43062  0.43062  0.00000  0.13876
      15     H     0.42608  0.42608  0.00000  0.14785
      16     H     0.41451  0.41451  0.00000  0.17098

   Total alpha = 25.00000, Total beta = 25.00000, Total charge = -0.00000
