  ==> Input File <==

--------------------------------------------------------------------------
set {
	reference rhf
	basis 6-31G*
}

set_num_threads( 4 )
memory 2 gb

molecule MOL {
0 1

H	 2.591676	 2.013956	 0.335017
O	 3.341076	 1.666752	 -0.126416
C	 3.569581	 0.339145	 0.272707
C	 2.539767	 -0.640285	 -0.279495
H	 4.553106	 0.084646	 -0.100901
H	 3.608576	 0.269204	 1.359154
C	 1.115811	 -0.397273	 0.226630
H	 2.556196	 -0.582511	 -1.364741
H	 2.852081	 -1.648031	 -0.010655
C	 0.115918	 -1.429151	 -0.302766
H	 0.797950	 0.599468	 -0.066350
H	 1.109961	 -0.420744	 1.316472
C	 0.174878	 -2.796381	 0.388283
H	 -0.891992	 -1.026744	 -0.218911
H	 0.296991	 -1.572730	 -1.365921
C	 -0.249656	 -2.793755	 1.859419
H	 -0.469245	 -3.482990	 -0.157143
H	 1.183538	 -3.198175	 0.304602
C	 -0.275460	 -4.194450	 2.474907
H	 -1.238451	 -2.345719	 1.946929
H	 0.421493	 -2.166853	 2.441532
C	 -0.692714	 -4.193997	 3.945133
H	 -0.956585	 -4.824598	 1.907042
H	 0.709211	 -4.647485	 2.379680
H	 -1.687826	 -3.776440	 4.070120
H	 -0.703231	 -5.200563	 4.351763
H	 -0.009088	 -3.601683	 4.546950

	symmetry c1
}
set optking {
	frozen_dihedral = ("
		14 10 7 4
	")
}

ee = optimize('scf')
oeprop('DIPOLE', 'QUADRUPOLE', 'MULLIKEN_CHARGES')
f=open( 'psi4out.xyz', 'w' )
f.write( "27  " )
f.write( str(ee) + "\n" )
f.write( MOL.save_string_xyz() )
f.close()
--------------------------------------------------------------------------

    Molecular point group: c1
  Charge       = 0
  Multiplicity = 1
  Basis Set: 6-31G*
  Basis Set:
  @DF-RHF Final Energy:  -388.27921673716850
    Total Energy =                       -388.2792167371680989
    Molecular point group: c1
  Basis Set: 6-31G*
  Basis Set:
  Basis Set: 6-31G*
  Basis Set:
  @DF-RHF Final Energy:  -388.27939103711714
    Total Energy =                       -388.2793910371173070
  Basis Set: 6-31G*
  Basis Set:
  Basis Set: 6-31G*
  Basis Set:
  @DF-RHF Final Energy:  -388.27961138934336
    Total Energy =                       -388.2796113893434722
  Basis Set: 6-31G*
  Basis Set:
  Basis Set: 6-31G*
  Basis Set:
  @DF-RHF Final Energy:  -388.27957311882534
    Total Energy =                       -388.2795731188257378
  Basis Set: 6-31G*
  Basis Set:
  Basis Set: 6-31G*
  Basis Set:
  @DF-RHF Final Energy:  -388.27964297102528
    Total Energy =                       -388.2796429710253960
  Basis Set: 6-31G*
  Basis Set:
  Charge       = 0
  Multiplicity = 1
  Basis Set: 6-31G*
  Basis Set:

    Orbital Energies (a.u.)
    -----------------------

    Doubly Occupied:

       1A    -20.552243     2A    -11.267180     3A    -11.219936
       4A    -11.217520     5A    -11.216555     6A    -11.215720
       7A    -11.215022     8A    -11.214669     9A    -11.209935
      10A     -1.359056    11A     -1.095094    12A     -1.060925
      13A     -1.010140    14A     -0.950103    15A     -0.887875
      16A     -0.828282    17A     -0.802077    18A     -0.768894
      19A     -0.693765    20A     -0.655844    21A     -0.631048
      22A     -0.616800    23A     -0.604276    24A     -0.582751
      25A     -0.578064    26A     -0.553942    27A     -0.542861
      28A     -0.527901    29A     -0.511278    30A     -0.502041
      31A     -0.481971    32A     -0.476728    33A     -0.463670
      34A     -0.456775    35A     -0.449175    36A     -0.442145
      37A     -0.425545

  @DF-RHF Final Energy:  -388.27964249377300

   => Energetics <=

    Nuclear Repulsion Energy =            463.0373266833458388
    One-Electron Energy =               -1444.0583162767650265
    Two-Electron Energy =                 592.7413470996465321
    DFT Exchange-Correlation Energy =       0.0000000000000000
    Empirical Dispersion Energy =           0.0000000000000000
    PCM Polarization Energy =               0.0000000000000000
    EFP Energy =                            0.0000000000000000
    Total Energy =                       -388.2796424937727124
    Molecular point group: c1
  Basis Set: 6-31G*
  Basis Set:

  -Total Gradient:
     Atom            X                  Y                   Z
    ------   -----------------  -----------------  -----------------
       1       -0.000032231344     0.000002575865     0.000001249850
       2       -0.000037569906    -0.000005040659     0.000028225451
       3        0.000051751892    -0.000022017427    -0.000088334739
       4       -0.000303698170     0.000809702607    -0.001044669286
       5        0.000019882307     0.000001111032     0.000001512788
       6       -0.000016692848    -0.000002473852    -0.000016402766
       7        0.000356890284    -0.000949478679     0.001068327966
       8        0.000009945060    -0.000013999195     0.000011765398
       9        0.000000968441    -0.000011320208     0.000018736085
      10       -0.000161139150    -0.000630577998     0.001779144063
      11        0.000017342217     0.000061529254     0.000028778103
      12       -0.000008826036    -0.000058981452     0.000027702023
      13        0.000007693197     0.000044074313     0.000006210610
      14        0.000117154108     0.000741830098    -0.001743889980
      15        0.000026205769    -0.000025509149    -0.000025809078
      16       -0.000035901642     0.000000645259    -0.000019337284
      17       -0.000016446301     0.000031388950     0.000007311110
      18        0.000033095520     0.000023860792    -0.000029347804
      19       -0.000020996115    -0.000009092055    -0.000004840952
      20       -0.000017852552    -0.000001737233    -0.000026989735
      21       -0.000022329308     0.000005819879     0.000005806312
      22        0.000051154333     0.000008102289     0.000017174898
      23       -0.000027687780     0.000010308086     0.000018483196
      24       -0.000008703929    -0.000011994811    -0.000026876108
      25        0.000007462838    -0.000010017710    -0.000013885999
      26        0.000015336275     0.000001290009     0.000004870131
      27       -0.000004807160     0.000010001983     0.000015085747

  **** Optimization is complete! (in 6 steps) ****
    Final optimized geometry and variables:
    Molecular point group: c1

    Geometry (in Angstrom), charge = 0, multiplicity = 1:

    H            1.480682270797     3.585271788505    -0.648707189132
    O            2.225903650158     3.247717105948    -1.123911364389
    C            2.490338702017     1.929657928221    -0.715882469604
    C            1.466705255988     0.923417221744    -1.230829292335
    H            3.469130854720     1.690238932863    -1.111279357868
    H            2.557964367806     1.873303142558     0.369973613007
    C            0.048467261787     1.160280542959    -0.703000810315
    H            1.458025618463     0.964705375363    -2.316798131955
    H            1.808270589329    -0.071686016463    -0.953946305551
    C           -0.979088430673     0.132918310148    -1.201455667723
    H           -0.279537970586     2.144831636165    -1.028025972937
    H            0.059650583199     1.185980857405     0.384575361637
    C           -0.931945731680    -1.245060761161    -0.528765223052
    H           -1.978507476562     0.548166116719    -1.092107953781
    H           -0.834771286448     0.001988884878    -2.271953432127
    C           -1.385747139509    -1.258107818505     0.933588387060
    H           -1.571735603589    -1.919278007105    -1.094204370987
    H            0.071696027922    -1.658820008324    -0.599096806436
    C           -1.398205022712    -2.662251612094     1.541809815163
    H           -2.384354031169    -0.829084293227     1.002306179162
    H           -0.739490194874    -0.621796845462     1.533481647938
    C           -1.840082228866    -2.676323610910     3.004762143985
    H           -2.058795755300    -3.301002513083     0.959493503187
    H           -0.404561263461    -3.098172855860     1.461302926794
    H           -2.844892596632    -2.278165518789     3.114595367734
    H           -1.838510212534    -3.684742342405     3.406872287399
    H           -1.177964330234    -2.074039805784     3.620594577956

  Mulliken Charges: (a.u.)
   Center  Symbol    Alpha    Beta     Spin     Total
       1     H     0.27979  0.27979  0.00000  0.44042
       2     O     4.37101  4.37101  0.00000 -0.74202
       3     C     2.99695  2.99695  0.00000  0.00610
       4     C     3.16224  3.16224  0.00000 -0.32448
       5     H     0.41445  0.41445  0.00000  0.17110
       6     H     0.43223  0.43223  0.00000  0.13554
       7     C     3.16547  3.16547  0.00000 -0.33094
       8     H     0.41504  0.41504  0.00000  0.16992
       9     H     0.42332  0.42332  0.00000  0.15337
      10     C     3.15516  3.15516  0.00000 -0.31031
      11     H     0.42300  0.42300  0.00000  0.15399
      12     H     0.42277  0.42277  0.00000  0.15447
      13     C     3.15510  3.15510  0.00000 -0.31021
      14     H     0.42094  0.42094  0.00000  0.15812
      15     H     0.41983  0.41983  0.00000  0.16035
      16     C     3.15188  3.15188  0.00000 -0.30376
      17     H     0.42085  0.42085  0.00000  0.15831
      18     H     0.42258  0.42258  0.00000  0.15484
      19     C     3.15115  3.15115  0.00000 -0.30229
      20     H     0.42412  0.42412  0.00000  0.15177
      21     H     0.42387  0.42387  0.00000  0.15225
      22     C     3.23919  3.23919  0.00000 -0.47838
      23     H     0.42272  0.42272  0.00000  0.15456
      24     H     0.42330  0.42330  0.00000  0.15341
      25     H     0.42169  0.42169  0.00000  0.15662
      26     H     0.41910  0.41910  0.00000  0.16179
      27     H     0.42226  0.42226  0.00000  0.15549

   Total alpha = 37.00000, Total beta = 37.00000, Total charge = -0.00000
