  ==> Input File <==

--------------------------------------------------------------------------
set {
	reference rhf
	basis cc-pvtz
}

set_num_threads( 4 )
memory 2 gb

molecule MOL {
0 1

H	 -0.366580	 2.045936	 -0.305741
C	 0.351829	 1.335402	 0.083179
N	 -0.000018	 0.000080	 -0.334836
H	 1.327156	 1.599860	 -0.305475
H	 0.380566	 1.445403	 1.171445
C	 0.203912	 -0.193749	 -1.750188
C	 0.672840	 -1.006439	 0.450290
H	 -0.134840	 -1.180095	 -2.040808
H	 -0.369497	 0.534597	 -2.309564
H	 1.253110	 -0.096302	 -2.044736
H	 0.442192	 -0.872399	 1.499584
H	 0.333779	 -1.991954	 0.157166
H	 1.760654	 -0.975649	 0.337044

	symmetry c1
}
set optking {
	frozen_dihedral = ("
		6 3 2 1
	")
}

ee = optimize('scf')
oeprop('DIPOLE', 'QUADRUPOLE', 'MULLIKEN_CHARGES')
f=open( 'psi4out.xyz', 'w' )
f.write( "13  " )
f.write( str(ee) + "\n" )
f.write( MOL.save_string_xyz() )
f.close()
--------------------------------------------------------------------------

    Molecular point group: c1
  Charge       = 0
  Multiplicity = 1
  Basis Set: CC-PVTZ
  Basis Set:
  @DF-RHF Final Energy:  -173.33243659066048
    Total Energy =                       -173.3324365906605067
    Molecular point group: c1
  Basis Set: CC-PVTZ
  Basis Set:
  Basis Set: CC-PVTZ
  Basis Set:
  @DF-RHF Final Energy:  -173.33329435019621
    Total Energy =                       -173.3332943501962973
  Basis Set: CC-PVTZ
  Basis Set:
  Basis Set: CC-PVTZ
  Basis Set:
  @DF-RHF Final Energy:  -173.33338739186854
    Total Energy =                       -173.3333873918686550
  Basis Set: CC-PVTZ
  Basis Set:
  Charge       = 0
  Multiplicity = 1
  Basis Set: CC-PVTZ
  Basis Set:

    Orbital Energies (a.u.)
    -----------------------

    Doubly Occupied:

       1A    -15.539889     2A    -11.234231     3A    -11.234136
       4A    -11.234101     5A     -1.226990     6A     -0.952338
       7A     -0.951697     8A     -0.807254     9A     -0.643869
      10A     -0.631384    11A     -0.630039    12A     -0.546822
      13A     -0.543443    14A     -0.515980    15A     -0.502027
      16A     -0.500442    17A     -0.350702

  @DF-RHF Final Energy:  -173.33338892644628

   => Energetics <=

    Nuclear Repulsion Energy =            139.4706313295512814
    One-Electron Energy =                -509.5173471618331291
    Two-Electron Energy =                 196.7133269058355722
    DFT Exchange-Correlation Energy =       0.0000000000000000
    Empirical Dispersion Energy =           0.0000000000000000
    PCM Polarization Energy =               0.0000000000000000
    EFP Energy =                            0.0000000000000000
    Total Energy =                       -173.3333889264462755
    Molecular point group: c1
  Basis Set: CC-PVTZ
  Basis Set:

  -Total Gradient:
     Atom            X                  Y                   Z
    ------   -----------------  -----------------  -----------------
       1       -0.001613581215    -0.000259391789     0.002405415475
       2        0.002693739455     0.000067484028    -0.002962879123
       3       -0.003116454356     0.000818143884     0.000092372118
       4        0.000030439572    -0.000016084814    -0.000016597718
       5       -0.000005623837    -0.000036615303    -0.000025437309
       6        0.002054101854    -0.000533053905     0.000522930460
       7       -0.000101277511     0.000031343917    -0.000046475179
       8        0.000002569852     0.000001759820     0.000053838462
       9       -0.000014616998     0.000011325496    -0.000042882578
      10        0.000015491621    -0.000021430656    -0.000016760168
      11        0.000024800878    -0.000013138292     0.000006637496
      12        0.000023303004    -0.000043890762     0.000021661186
      13        0.000007107682    -0.000006451624     0.000008176877

  **** Optimization is complete! (in 4 steps) ****
    Final optimized geometry and variables:
    Molecular point group: c1

    Geometry (in Angstrom), charge = 0, multiplicity = 1:

    H           -0.680600101541     2.019093395488     0.070325068926
    C            0.031875940279     1.303849809965     0.463417800316
    N           -0.334366513671    -0.035003590339     0.063070143559
    H            1.035212716184     1.588790972512     0.136100724991
    H           -0.000669797416     1.383595512615     1.542613478786
    C           -0.135103875374    -0.237520772512    -1.352165909745
    C            0.353064833900    -1.039912379786     0.840162182008
    H           -0.493619623309    -1.217300292475    -1.641538598119
    H           -0.693273422536     0.501168317347    -1.914312458552
    H            0.916121765877    -0.160195852735    -1.645373612557
    H            0.127603934713    -0.914861682922     1.891449061527
    H            0.020087576289    -2.026448892225     0.542956756223
    H            1.440177257763    -1.002027950018     0.719965226946

  Mulliken Charges: (a.u.)
   Center  Symbol    Alpha    Beta     Spin     Total
       1     H     0.45128  0.45128  0.00000  0.09745
       2     C     3.08914  3.08914  0.00000 -0.17828
       3     N     3.59634  3.59634  0.00000 -0.19267
       4     H     0.47278  0.47278  0.00000  0.05444
       5     H     0.45417  0.45417  0.00000  0.09166
       6     C     3.08975  3.08975  0.00000 -0.17950
       7     C     3.08882  3.08882  0.00000 -0.17764
       8     H     0.45261  0.45261  0.00000  0.09478
       9     H     0.45267  0.45267  0.00000  0.09467
      10     H     0.47331  0.47331  0.00000  0.05338
      11     H     0.45220  0.45220  0.00000  0.09559
      12     H     0.45268  0.45268  0.00000  0.09464
      13     H     0.47426  0.47426  0.00000  0.05148

   Total alpha = 17.00000, Total beta = 17.00000, Total charge = -0.00000
