  ==> Input File <==

--------------------------------------------------------------------------
set {
	reference rhf
	basis 6-31G*
}

set_num_threads( 4 )
memory 2 gb

molecule MOL {
0 1

H	 -2.195663	 1.087246	 -1.997792
N	 -1.215393	 0.995918	 -1.814206
C	 -0.777363	 -0.372476	 -2.025708
H	 -1.065802	 1.250529	 -0.857176
C	 0.697569	 -0.498373	 -1.706549
H	 -1.322114	 -1.105011	 -1.428514
H	 -0.927691	 -0.627351	 -3.070324
O	 0.874168	 -0.245412	 -0.342030
H	 1.051538	 -1.499786	 -1.950507
H	 1.262416	 0.217800	 -2.299236
C	 2.202317	 -0.244239	 0.074611
H	 2.711377	 -1.041390	 -0.449894
H	 2.692099	 0.699270	 -0.159667
H	 2.283185	 -0.418429	 1.145558

	symmetry c1
}
set optking {
	frozen_dihedral = ("
		5 8 11 13
	")
}

ee = optimize('scf')
oeprop('DIPOLE', 'QUADRUPOLE', 'MULLIKEN_CHARGES')
f=open( 'psi4out.xyz', 'w' )
f.write( "14  " )
f.write( str(ee) + "\n" )
f.write( MOL.save_string_xyz() )
f.close()
--------------------------------------------------------------------------

    Molecular point group: c1
  Charge       = 0
  Multiplicity = 1
  Basis Set: 6-31G*
  Basis Set:
  @DF-RHF Final Energy:  -248.12313053031389
    Total Energy =                       -248.1231305303137447
    Molecular point group: c1
  Basis Set: 6-31G*
  Basis Set:
  Basis Set: 6-31G*
  Basis Set:
  @DF-RHF Final Energy:  -248.12410026727355
    Total Energy =                       -248.1241002672734339
  Basis Set: 6-31G*
  Basis Set:
  Basis Set: 6-31G*
  Basis Set:
  @DF-RHF Final Energy:  -248.12436753511358
    Total Energy =                       -248.1243675351135494
  Basis Set: 6-31G*
  Basis Set:
  Basis Set: 6-31G*
  Basis Set:
  @DF-RHF Final Energy:  -248.12436880189293
    Total Energy =                       -248.1243688018926719
  Basis Set: 6-31G*
  Basis Set:
  Charge       = 0
  Multiplicity = 1
  Basis Set: 6-31G*
  Basis Set:

    Orbital Energies (a.u.)
    -----------------------

    Doubly Occupied:

       1A    -20.556574     2A    -15.528374     3A    -11.266023
       4A    -11.265686     5A    -11.240662     6A     -1.380201
       7A     -1.173499     8A     -0.998998     9A     -0.907224
      10A     -0.814984    11A     -0.683842    12A     -0.673277
      13A     -0.644047    14A     -0.610457    15A     -0.604803
      16A     -0.540402    17A     -0.531874    18A     -0.496295
      19A     -0.472506    20A     -0.416260    21A     -0.380026

  @DF-RHF Final Energy:  -248.12436913070587

   => Energetics <=

    Nuclear Repulsion Energy =            194.5936050017511434
    One-Electron Energy =                -723.0639229532632726
    Two-Electron Energy =                 280.3459488208063703
    DFT Exchange-Correlation Energy =       0.0000000000000000
    Empirical Dispersion Energy =           0.0000000000000000
    PCM Polarization Energy =               0.0000000000000000
    EFP Energy =                            0.0000000000000000
    Total Energy =                       -248.1243691307057588
    Molecular point group: c1
  Basis Set: 6-31G*
  Basis Set:

  -Total Gradient:
     Atom            X                  Y                   Z
    ------   -----------------  -----------------  -----------------
       1       -0.000000679443     0.000002691302     0.000004446584
       2       -0.000002626911    -0.000002172148     0.000001027443
       3        0.000008277882     0.000012767148    -0.000017440313
       4       -0.000003781158    -0.000000120196     0.000005551039
       5       -0.000122312140    -0.002035117130     0.000383421875
       6        0.000011235388     0.000004504823     0.000000634116
       7       -0.000002066370    -0.000002040763    -0.000004815197
       8       -0.000018432713     0.003136401249     0.000120463410
       9        0.000005595546    -0.000001810238     0.000000009333
      10       -0.000008933104    -0.000001066035     0.000005504170
      11        0.000861404971    -0.002036878820    -0.002782360932
      12        0.000001340502    -0.000000234423    -0.000002258741
      13       -0.000726963494     0.000921172231     0.002283137195
      14       -0.000002058959     0.000001902999     0.000002680016

  **** Optimization is complete! (in 5 steps) ****
    Final optimized geometry and variables:
    Molecular point group: c1

    Geometry (in Angstrom), charge = 0, multiplicity = 1:

    H           -2.559476050225     1.156656605442    -0.832463326910
    N           -1.578181112610     1.063750701409    -0.655423529339
    C           -1.141961988983    -0.303688226846    -0.877068982662
    H           -1.422769725973     1.312956153541     0.302100786221
    C            0.335304386853    -0.432114232077    -0.570262856471
    H           -1.681918764482    -1.038894821812    -0.278796792626
    H           -1.300780988707    -0.553648365607    -1.921600057910
    O            0.520919032045    -0.187754064185     0.795022205438
    H            0.687001964576    -1.432403890368    -0.820390204811
    H            0.894765270311     0.286398501823    -1.165307385536
    C            1.850917437936    -0.186079264687     1.210784861185
    H            2.415909727387    -0.996302841344     0.756340503635
    H            2.335303700382     0.760206172102     0.980828275341
    H            1.858580005800    -0.318611359298     2.284917301729

  Mulliken Charges: (a.u.)
   Center  Symbol    Alpha    Beta     Spin     Total
       1     H     0.33285  0.33285  0.00000  0.33431
       2     N     3.92524  3.92524  0.00000 -0.85049
       3     C     3.06894  3.06894  0.00000 -0.13789
       4     H     0.32374  0.32374  0.00000  0.35252
       5     C     2.99019  2.99019  0.00000  0.01962
       6     H     0.42665  0.42665  0.00000  0.14669
       7     H     0.42051  0.42051  0.00000  0.15898
       8     O     4.31070  4.31070  0.00000 -0.62140
       9     H     0.43060  0.43060  0.00000  0.13880
      10     H     0.42279  0.42279  0.00000  0.15443
      11     C     3.07826  3.07826  0.00000 -0.15652
      12     H     0.43015  0.43015  0.00000  0.13970
      13     H     0.42550  0.42550  0.00000  0.14900
      14     H     0.41387  0.41387  0.00000  0.17226

   Total alpha = 21.00000, Total beta = 21.00000, Total charge = -0.00000
