                              Psi4 1.0.54 Driver

  ==> Input File <==

--------------------------------------------------------------------------
set {
	reference rhf
	basis cc-pvtz
}

set_num_threads( 4 )
memory 2 gb

molecule MOL {
0 1

H	 -2.461661	 0.063187	 2.082865
C	 -2.344904	 -0.590723	 1.221672
O	 -1.065690	 -0.505992	 0.688780
H	 -2.505144	 -1.611644	 1.536205
H	 -3.102994	 -0.328740	 0.485772
C	 -0.718530	 0.758693	 0.228682
C	 0.718529	 0.758687	 -0.228709
H	 -1.355404	 1.043552	 -0.608705
H	 -0.844001	 1.501636	 1.013362
O	 1.401606	 -0.295166	 0.366636
H	 0.748705	 0.673477	 -1.312803
H	 1.176496	 1.708671	 0.046552
C	 2.714315	 -0.441627	 -0.061017
H	 2.765292	 -0.641548	 -1.128869
H	 3.305661	 0.447341	 0.150952
H	 3.143725	 -1.278506	 0.470147

	symmetry c1
}
set optking {
	frozen_dihedral = ("
		3 6 7 11
	")
}

ee,wfn = optimize('scf', return_wfn=True)
oeprop( wfn, 'DIPOLE', 'QUADRUPOLE', 'MULLIKEN_CHARGES')
f=open( 'psi4out.xyz', 'w' )
f.write( "16  " )
f.write( str(ee) + "\n" )
f.write( MOL.save_string_xyz() )
f.close()
--------------------------------------------------------------------------

    Molecular point group: c1
  Charge       = 0
  Multiplicity = 1
  Basis Set: CC-PVTZ
  Basis Set:
  @DF-RHF Final Energy:  -307.08605801046156
    Total Energy =                       -307.0860580104614996
    Molecular point group: c1
  Basis Set: CC-PVTZ
  Basis Set:
  Basis Set: CC-PVTZ
  Basis Set:
  @DF-RHF Final Energy:  -307.08718411274407
    Total Energy =                       -307.0871841127442394
  Basis Set: CC-PVTZ
  Basis Set:
  Basis Set: CC-PVTZ
  Basis Set:
  @DF-RHF Final Energy:  -307.08784500273975
    Total Energy =                       -307.0878450027397548
  Basis Set: CC-PVTZ
  Basis Set:
  Basis Set: CC-PVTZ
  Basis Set:
  @DF-RHF Final Energy:  -307.08787382109671
    Total Energy =                       -307.0878738210968777
  Basis Set: CC-PVTZ
  Basis Set:
  Charge       = 0
  Multiplicity = 1
  Basis Set: CC-PVTZ
  Basis Set:

    Orbital Energies (a.u.)
    -----------------------

    Doubly Occupied:

       1A    -20.547569     2A    -20.545814     3A    -11.269651
       4A    -11.269041     5A    -11.261322     6A    -11.260528
       7A     -1.393534     8A     -1.373243     9A     -1.026978
      10A     -0.935513    11A     -0.897784    12A     -0.819609
      13A     -0.688870    14A     -0.676827    15A     -0.661038
      16A     -0.646327    17A     -0.621803    18A     -0.594109
      19A     -0.571598    20A     -0.518135    21A     -0.508817
      22A     -0.472915    23A     -0.469788    24A     -0.424822
      25A     -0.403578

  @DF-RHF Final Energy:  -307.08787504654163

   => Energetics <=

    Nuclear Repulsion Energy =            259.8857955354792466
    One-Electron Energy =                -934.2289177025920708
    Two-Electron Energy =                 367.2552471205714255
    DFT Exchange-Correlation Energy =       0.0000000000000000
    Empirical Dispersion Energy =           0.0000000000000000
    PCM Polarization Energy =               0.0000000000000000
    EFP Energy =                            0.0000000000000000
    Total Energy =                       -307.0878750465413987
    Molecular point group: c1
  Basis Set: CC-PVTZ
  Basis Set:

  -Total Gradient:
     Atom            X                  Y                   Z
    ------   -----------------  -----------------  -----------------
       1        0.000004619938    -0.000003534524    -0.000000063631
       2       -0.000033037931     0.000012456235     0.000005722541
       3        0.002065848919     0.001431327811     0.005931524841
       4        0.000018874212     0.000006879761    -0.000007802600
       5        0.000008852853    -0.000008221476     0.000000451941
       6       -0.002732699250     0.000105427217    -0.008033825795
       7        0.000532157689    -0.009657525439     0.002500484505
       8       -0.000015944709    -0.000032378760     0.000012683667
       9        0.000041737251     0.000028576722    -0.000033928274
      10        0.000052574281    -0.000065106541     0.000026099249
      11        0.000039761715     0.008195592975    -0.000397669919
      12        0.000011080601    -0.000002167336    -0.000009530776
      13       -0.000003797909    -0.000007358191    -0.000002641390
      14        0.000003259662    -0.000004290346     0.000004474354
      15        0.000000262836     0.000000243569     0.000006321780
      16        0.000006449843     0.000000078322    -0.000002300493

  **** Optimization is complete! (in 5 steps) ****
    Final optimized geometry and variables:
    Molecular point group: c1

    Geometry (in Angstrom), charge = 0, multiplicity = 1:

    H           -2.692543336041     0.195536045748     1.628768736014
    C           -2.553583202957    -0.484225062386     0.790230834673
    O           -1.246254856239    -0.457459483302     0.325786678407
    H           -2.765120448580    -1.490700771324     1.120269576361
    H           -3.263244485118    -0.215182650156     0.010026709200
    C           -0.831867375029     0.789147238958    -0.115756020040
    C            0.616603212678     0.752045955178    -0.609531152689
    H           -1.469454236634     1.153158155967    -0.919907936000
    H           -0.912170613713     1.501011331153     0.704721601004
    O            1.337889550064    -0.264259383575    -0.013126660000
    H            0.645989172280     0.694412199309    -1.696992726210
    H            1.064246506015     1.718328721040    -0.370296518933
    C            2.671113202463    -0.309936851270    -0.397231778030
    H            2.772153976716    -0.466504614632    -1.469182262210
    H            3.195472438616     0.606586460383    -0.133305289689
    H            3.134065871351    -1.137216199696     0.120254398417

  Mulliken Charges: (a.u.)
   Center  Symbol    Alpha    Beta     Spin     Total
       1     H     0.47288  0.47288  0.00000  0.05425
       2     C     3.03133  3.03133  0.00000 -0.06267
       3     O     4.15893  4.15893  0.00000 -0.31787
       4     H     0.44561  0.44561  0.00000  0.10877
       5     H     0.47327  0.47327  0.00000  0.05347
       6     C     2.96484  2.96484  0.00000  0.07032
       7     C     2.96315  2.96315  0.00000  0.07369
       8     H     0.47645  0.47645  0.00000  0.04709
       9     H     0.47693  0.47693  0.00000  0.04613
      10     O     4.15761  4.15761  0.00000 -0.31522
      11     H     0.47640  0.47640  0.00000  0.04721
      12     H     0.48030  0.48030  0.00000  0.03941
      13     C     3.03205  3.03205  0.00000 -0.06409
      14     H     0.47176  0.47176  0.00000  0.05648
      15     H     0.47300  0.47300  0.00000  0.05400
      16     H     0.44549  0.44549  0.00000  0.10903

   Total alpha = 25.00000, Total beta = 25.00000, Total charge = -0.00000

*** Psi4 exiting successfully. Buy a developer a beer!
