                              Psi4 1.0.54 Driver

  ==> Input File <==

--------------------------------------------------------------------------
set {
	reference rhf
	basis cc-pvtz
}

set_num_threads( 4 )
memory 2 gb

molecule MOL {
0 1

H	 2.805474	 2.687947	 -4.215332
C	 3.114507	 2.297848	 -3.252426
C	 1.944090	 2.248641	 -2.276195
H	 3.527635	 1.308129	 -3.413663
H	 3.911811	 2.932329	 -2.878876
C	 2.344991	 1.713504	 -0.903287
H	 1.158420	 1.627605	 -2.690894
H	 1.528258	 3.247274	 -2.163772
C	 1.194702	 1.658716	 0.097073
H	 2.766954	 0.721846	 -1.010010
H	 3.125362	 2.346426	 -0.490716
C	 0.166485	 0.574257	 -0.177158
H	 1.581955	 1.462486	 1.093715
H	 0.689552	 2.617967	 0.161722
C	 -1.180025	 0.697761	 0.509157
O	 0.407772	 -0.349977	 -0.884864
C	 -2.285431	 -0.137488	 -0.145671
H	 -1.447360	 1.745713	 0.496200
H	 -1.065514	 0.394096	 1.546399
C	 -3.646545	 0.082747	 0.508954
H	 -2.348635	 0.118247	 -1.199806
H	 -2.034895	 -1.192387	 -0.096473
C	 -4.757412	 -0.737227	 -0.138149
H	 -3.900211	 1.137405	 0.459735
H	 -3.580878	 -0.166775	 1.564416
H	 -4.867876	 -0.486707	 -1.187777
H	 -4.549650	 -1.800049	 -0.072540
H	 -5.709585	 -0.556397	 0.346597

	symmetry c1
}
set optking {
	frozen_dihedral = ("
		16 12 15 17
	")
}

ee,wfn = optimize('scf', return_wfn=True)
oeprop( wfn, 'DIPOLE', 'QUADRUPOLE', 'MULLIKEN_CHARGES')
f=open( 'psi4out.xyz', 'w' )
f.write( "28  " )
f.write( str(ee) + "\n" )
f.write( MOL.save_string_xyz() )
f.close()
--------------------------------------------------------------------------

    Molecular point group: c1
  Charge       = 0
  Multiplicity = 1
  Basis Set: CC-PVTZ
  Basis Set:
  @DF-RHF Final Energy:  -426.32049375062365
    Total Energy =                       -426.3204937506236547
    Molecular point group: c1
  Basis Set: CC-PVTZ
  Basis Set:
  Basis Set: CC-PVTZ
  Basis Set:
  @DF-RHF Final Energy:  -426.31036424539059
    Total Energy =                       -426.3103642453911561
  Basis Set: CC-PVTZ
  Basis Set:
  Basis Set: CC-PVTZ
  Basis Set:
  @DF-RHF Final Energy:  -426.31996082685816
    Total Energy =                       -426.3199608268582779
  Basis Set: CC-PVTZ
  Basis Set:
  Basis Set: CC-PVTZ
  Basis Set:
  @DF-RHF Final Energy:  -426.32087198607690
    Total Energy =                       -426.3208719860776910
  Basis Set: CC-PVTZ
  Basis Set:
  @DF-RHF Final Energy:  -426.32136822081202
    Total Energy =                       -426.3213682208117916
  @DF-RHF Final Energy:  -426.32148088367319
    Total Energy =                       -426.3214808836730754
  @DF-RHF Final Energy:  -426.32133947176419
    Total Energy =                       -426.3213394717639630
  Basis Set: CC-PVTZ
  Basis Set:
  @DF-RHF Final Energy:  -426.32153196162983
    Total Energy =                       -426.3215319616293755
  Basis Set: CC-PVTZ
  Basis Set:
  Basis Set: CC-PVTZ
  Basis Set:
  @DF-RHF Final Energy:  -426.32152975899885
    Total Energy =                       -426.3215297589985084
  Basis Set: CC-PVTZ
  Basis Set:
  Basis Set: CC-PVTZ
  Basis Set:
  @DF-RHF Final Energy:  -426.32153744218772
    Total Energy =                       -426.3215374421873776
  Basis Set: CC-PVTZ
  Basis Set:
  Charge       = 0
  Multiplicity = 1
  Basis Set: CC-PVTZ
  Basis Set:

    Orbital Energies (a.u.)
    -----------------------

    Doubly Occupied:

       1A    -20.538107     2A    -11.318265     3A    -11.229313
       4A    -11.228772     5A    -11.217487     6A    -11.215463
       7A    -11.214891     8A    -11.209268     9A    -11.208147
      10A    -11.203190    11A     -1.398697    12A     -1.089564
      13A     -1.078345    14A     -1.023232    15A     -0.991233
      16A     -0.911460    17A     -0.865433    18A     -0.805803
      19A     -0.792379    20A     -0.725681    21A     -0.670235
      22A     -0.656371    23A     -0.629601    24A     -0.618150
      25A     -0.610008    26A     -0.582792    27A     -0.580187
      28A     -0.574243    29A     -0.534242    30A     -0.533098
      31A     -0.519016    32A     -0.507872    33A     -0.493993
      34A     -0.483115    35A     -0.474560    36A     -0.470026
      37A     -0.469156    38A     -0.465760    39A     -0.457915
      40A     -0.395907

  @DF-RHF Final Energy:  -426.32153750384487

   => Energetics <=

    Nuclear Repulsion Energy =            530.1292068841262335
    One-Electron Energy =               -1628.9195331360733690
    Two-Electron Energy =                 672.4687887481023836
    DFT Exchange-Correlation Energy =       0.0000000000000000
    Empirical Dispersion Energy =           0.0000000000000000
    PCM Polarization Energy =               0.0000000000000000
    EFP Energy =                            0.0000000000000000
    Total Energy =                       -426.3215375038447519
    Molecular point group: c1
  Basis Set: CC-PVTZ
  Basis Set:

  -Total Gradient:
     Atom            X                  Y                   Z
    ------   -----------------  -----------------  -----------------
       1       -0.000003345422    -0.000000787404     0.000000214923
       2       -0.000002291656    -0.000004984279     0.000003310873
       3       -0.000002588799     0.000007933715     0.000000533312
       4        0.000004129500    -0.000002761736    -0.000001184445
       5       -0.000000847611     0.000000091682    -0.000000316691
       6        0.000001596546    -0.000004963002     0.000003701392
       7        0.000000194012     0.000000408920     0.000003160408
       8        0.000000570758     0.000004714890     0.000000072639
       9       -0.000003476362    -0.000000738032    -0.000014276208
      10        0.000003079011    -0.000002680510     0.000000341874
      11       -0.000002128559     0.000001245358     0.000001615959
      12       -0.000591246085     0.001144084904    -0.000778655876
      13        0.000002350515    -0.000000234293    -0.000003070613
      14        0.000002155021     0.000008581944     0.000003043652
      15        0.000378959967    -0.001104545730     0.000493970442
      16        0.000374136774    -0.000640926812     0.000492812268
      17       -0.000164351076     0.000595614305    -0.000207600511
      18       -0.000001237492     0.000002139956     0.000002479258
      19        0.000003101837     0.000001520086    -0.000001909598
      20       -0.000001470971    -0.000001996196     0.000003121508
      21       -0.000003306379    -0.000004123754     0.000000890851
      22        0.000002302413    -0.000000815901     0.000001491547
      23        0.000000139543     0.000004454028    -0.000002231288
      24        0.000003272110     0.000002210259     0.000003632856
      25        0.000002917126    -0.000002260586    -0.000000099690
      26       -0.000002193834    -0.000001148709    -0.000003178641
      27       -0.000001349066    -0.000001785759     0.000000347093
      28        0.000000928182     0.000001752658    -0.000002217296

  **** Optimization is complete! (in 11 steps) ****
    Final optimized geometry and variables:
    Molecular point group: c1

    Geometry (in Angstrom), charge = 0, multiplicity = 1:

    H            3.589390474800     2.086302512777    -3.232355120301
    C            3.742544906907     1.518749700803    -2.321696938049
    C            2.488106818965     1.519568714402    -1.454809610671
    H            4.018800966818     0.508752405110    -2.604443437019
    H            4.584924727223     1.957369339689    -1.796330831644
    C            2.672698255572     0.741371119110    -0.153619150093
    H            1.663659360721     1.095759070143    -2.014726432459
    H            2.215127560041     2.545881231756    -1.220163834488
    C            1.434995128796     0.720321308824     0.737390948034
    H            2.964470904724    -0.277526141905    -0.379606659230
    H            3.489339261249     1.184803146357     0.408802888681
    C            0.318970292046    -0.197646597676     0.274272341655
    H            1.696154360297     0.403446599389     1.744548413527
    H            1.022657004580     1.719784885966     0.848703212255
    C           -0.914833183172    -0.238656395146     1.157254035340
    O            0.418214608629    -0.880868027950    -0.692651528358
    C           -2.150073503372    -0.817455355866     0.479195278452
    H           -1.114127969024     0.760653962338     1.531789370076
    H           -0.648162714263    -0.832107051224     2.029974698971
    C           -3.358837253859    -0.875321981630     1.408838751456
    H           -2.390448320468    -0.218528689993    -0.393804188764
    H           -1.921374437015    -1.809144861793     0.109106675447
    C           -4.599799445235    -1.447615842347     0.732200575850
    H           -3.580114703544     0.121783714669     1.780757584720
    H           -3.114865832856    -1.477366715109     2.280285503481
    H           -4.890167100106    -0.847414354543    -0.123503353122
    H           -4.421435512385    -2.457872016364     0.380012742088
    H           -5.440583503638    -1.478311805978     1.415556988751

  Mulliken Charges: (a.u.)
   Center  Symbol    Alpha    Beta     Spin     Total
       1     H     0.44874  0.44874  0.00000  0.10253
       2     C     3.15172  3.15172  0.00000 -0.30344
       3     C     3.08379  3.08379  0.00000 -0.16758
       4     H     0.45215  0.45215  0.00000  0.09570
       5     H     0.45728  0.45728  0.00000  0.08544
       6     C     3.08713  3.08713  0.00000 -0.17426
       7     H     0.44376  0.44376  0.00000  0.11248
       8     H     0.45892  0.45892  0.00000  0.08216
       9     C     3.12057  3.12057  0.00000 -0.24115
      10     H     0.44648  0.44648  0.00000  0.10703
      11     H     0.44791  0.44791  0.00000  0.10418
      12     C     2.87577  2.87577  0.00000  0.24847
      13     H     0.43562  0.43562  0.00000  0.12876
      14     H     0.44311  0.44311  0.00000  0.11379
      15     C     3.10204  3.10204  0.00000 -0.20409
      16     O     4.17709  4.17709  0.00000 -0.35419
      17     C     3.08033  3.08033  0.00000 -0.16067
      18     H     0.44560  0.44560  0.00000  0.10881
      19     H     0.44506  0.44506  0.00000  0.10988
      20     C     3.08639  3.08639  0.00000 -0.17279
      21     H     0.45121  0.45121  0.00000  0.09758
      22     H     0.44188  0.44188  0.00000  0.11623
      23     C     3.14967  3.14967  0.00000 -0.29934
      24     H     0.45616  0.45616  0.00000  0.08767
      25     H     0.45512  0.45512  0.00000  0.08976
      26     H     0.45438  0.45438  0.00000  0.09124
      27     H     0.45342  0.45342  0.00000  0.09315
      28     H     0.44868  0.44868  0.00000  0.10264

   Total alpha = 40.00000, Total beta = 40.00000, Total charge =  0.00000

*** Psi4 exiting successfully. Buy a developer a beer!
