  ==> Input File <==

--------------------------------------------------------------------------
set {
	reference rhf
	basis 6-31G*
}

set_num_threads( 4 )
memory 2 gb

molecule MOL {
0 1

O	 0.161643	 0.835271	 -0.929108
C	 0.486307	 0.169203	 0.000779
C	 1.608116	 -0.841643	 0.000302
O	 -0.108845	 0.227430	 1.184000
C	 2.990107	 -0.200498	 -0.000684
H	 1.468623	 -1.481519	 -0.865924
H	 1.469683	 -1.481289	 0.866878
H	 3.129736	 0.423364	 -0.875135
H	 3.757882	 -0.966877	 -0.001197
H	 3.130964	 0.423383	 0.873533
C	 -1.190702	 1.141266	 1.331951
C	 -1.696153	 1.019758	 2.753945
H	 -1.959788	 0.896574	 0.612079
H	 -0.839614	 2.141214	 1.116467
H	 -2.038978	 0.011303	 2.955559
H	 -2.525182	 1.702195	 2.910913
H	 -0.912755	 1.262797	 3.462801

	symmetry c1
}
set optking {
	frozen_dihedral = ("
		4 2 3 6
	")
}

ee = optimize('scf')
oeprop('DIPOLE', 'QUADRUPOLE', 'MULLIKEN_CHARGES')
f=open( 'psi4out.xyz', 'w' )
f.write( "17  " )
f.write( str(ee) + "\n" )
f.write( MOL.save_string_xyz() )
f.close()
--------------------------------------------------------------------------

    Molecular point group: c1
  Charge       = 0
  Multiplicity = 1
  Basis Set: 6-31G*
  Basis Set:
  @DF-RHF Final Energy:  -344.90930127081378
    Total Energy =                       -344.9093012708138417
    Molecular point group: c1
  Basis Set: 6-31G*
  Basis Set:
  Basis Set: 6-31G*
  Basis Set:
  @DF-RHF Final Energy:  -344.90978750869340
    Total Energy =                       -344.9097875086932845
  Basis Set: 6-31G*
  Basis Set:
  Basis Set: 6-31G*
  Basis Set:
  @DF-RHF Final Energy:  -344.90996445302608
    Total Energy =                       -344.9099644530261912
  Basis Set: 6-31G*
  Basis Set:
  Basis Set: 6-31G*
  Basis Set:
  @DF-RHF Final Energy:  -344.91006231456521
    Total Energy =                       -344.9100623145656073
  Basis Set: 6-31G*
  Basis Set:
  Charge       = 0
  Multiplicity = 1
  Basis Set: 6-31G*
  Basis Set:

    Orbital Energies (a.u.)
    -----------------------

    Doubly Occupied:

       1A    -20.603038     2A    -20.540935     3A    -11.370486
       4A    -11.284682     5A    -11.235924     6A    -11.224566
       7A    -11.222450     8A     -1.467640     9A     -1.360353
      10A     -1.070856    11A     -1.032252    12A     -0.909022
      13A     -0.852008    14A     -0.776566    15A     -0.694147
      16A     -0.684776    17A     -0.666391    18A     -0.617711
      19A     -0.597407    20A     -0.574231    21A     -0.555001
      22A     -0.534502    23A     -0.525997    24A     -0.509726
      25A     -0.501269    26A     -0.494660    27A     -0.451089
      28A     -0.432301

  @DF-RHF Final Energy:  -344.91006287646837

   => Energetics <=

    Nuclear Repulsion Energy =            315.5564947578999409
    One-Electron Energy =               -1095.3531469894787733
    Two-Electron Energy =                 434.8865893551099475
    DFT Exchange-Correlation Energy =       0.0000000000000000
    Empirical Dispersion Energy =           0.0000000000000000
    PCM Polarization Energy =               0.0000000000000000
    EFP Energy =                            0.0000000000000000
    Total Energy =                       -344.9100628764688850
    Molecular point group: c1
  Basis Set: 6-31G*
  Basis Set:

  -Total Gradient:
     Atom            X                  Y                   Z
    ------   -----------------  -----------------  -----------------
       1       -0.000079301078    -0.000075438669     0.000145834864
       2       -0.000000399824    -0.000055267286    -0.000329919828
       3       -0.000077648077    -0.000109989934     0.000212309030
       4       -0.000011365899     0.000104697985     0.000064724283
       5       -0.000029476307    -0.000008832585    -0.000027014178
       6        0.000120333479     0.000156587662    -0.000087099166
       7       -0.000002612984    -0.000031094410     0.000009504206
       8        0.000016194039     0.000013831075    -0.000003012326
       9        0.000009107479    -0.000015043115     0.000000397319
      10       -0.000022577200    -0.000010586576    -0.000007257152
      11        0.000204248309     0.000095250381     0.000058408999
      12       -0.000059354983    -0.000019350862    -0.000008038400
      13       -0.000019725462    -0.000031935958    -0.000035057614
      14       -0.000043191604    -0.000007670779     0.000004385384
      15       -0.000003918009    -0.000003446446     0.000015440343
      16       -0.000006713758    -0.000003816560     0.000006358866
      17        0.000006401881     0.000002106076    -0.000019964627

  **** Optimization is complete! (in 5 steps) ****
    Final optimized geometry and variables:
    Molecular point group: c1

    Geometry (in Angstrom), charge = 0, multiplicity = 1:

    O           -0.097135301773     0.491137479618    -1.529218309955
    C            0.181227299907    -0.198141587619    -0.599860580794
    C            1.296101203396    -1.217136427622    -0.610272356961
    O           -0.441640370556    -0.135003742968     0.566877871755
    C            2.663224761363    -0.527656142400    -0.682424252934
    H            1.155088524894    -1.836007134805    -1.489136648360
    H            1.226598974676    -1.845058111874     0.267958207222
    H            2.727664227652     0.100487267587    -1.562423472056
    H            3.454276619332    -1.267686404836    -0.730163043240
    H            2.836185926320     0.090540569583     0.192578476630
    C           -1.496069054088     0.813349927384     0.697272501218
    C           -2.049947985875     0.686386772308     2.100652960219
    H           -2.249291747412     0.606586748213    -0.050574478337
    H           -1.104228935461     1.803597879780     0.509333395336
    H           -2.433004908018    -0.312779393819     2.274298709625
    H           -2.859918398910     1.394325437002     2.243487883956
    H           -1.281650357129     0.890968507509     2.837617181269

  Mulliken Charges: (a.u.)
   Center  Symbol    Alpha    Beta     Spin     Total
       1     O     4.28743  4.28743  0.00000 -0.57486
       2     C     2.61059  2.61059  0.00000  0.77881
       3     C     3.19874  3.19874  0.00000 -0.39747
       4     O     4.30940  4.30940  0.00000 -0.61881
       5     C     3.24941  3.24941  0.00000 -0.49882
       6     H     0.40053  0.40053  0.00000  0.19893
       7     H     0.40177  0.40177  0.00000  0.19647
       8     H     0.40342  0.40342  0.00000  0.19316
       9     H     0.41301  0.41301  0.00000  0.17398
      10     H     0.41422  0.41422  0.00000  0.17156
      11     C     3.00343  3.00343  0.00000 -0.00686
      12     C     3.24858  3.24858  0.00000 -0.49716
      13     H     0.40950  0.40950  0.00000  0.18099
      14     H     0.41007  0.41007  0.00000  0.17986
      15     H     0.41173  0.41173  0.00000  0.17655
      16     H     0.41619  0.41619  0.00000  0.16762
      17     H     0.41197  0.41197  0.00000  0.17607

   Total alpha = 28.00000, Total beta = 28.00000, Total charge =  0.00000
