                              Psi4 1.0.54 Driver

  ==> Input File <==

--------------------------------------------------------------------------
set {
	reference rhf
	basis cc-pvtz
}

set_num_threads( 4 )
memory 2 gb

molecule MOL {
0 1

O	 2.868453	 1.353349	 -0.000734
C	 2.841259	 0.166180	 -0.000295
C	 1.542794	 -0.614730	 -0.000853
C	 4.113372	 -0.651103	 0.000743
C	 0.288398	 0.247429	 0.000314
H	 1.557171	 -1.273139	 -0.866508
H	 1.557484	 -1.274998	 0.863344
C	 0.154029	 1.089342	 -1.265482
H	 0.300803	 0.891882	 0.871887
H	 -0.581059	 -0.390170	 0.112769
C	 -1.099810	 1.958876	 -1.276791
H	 1.030576	 1.724459	 -1.373035
H	 0.144276	 0.436559	 -2.135563
C	 -1.241205	 2.804252	 -2.539361
H	 -1.090851	 2.611920	 -0.407558
H	 -1.976596	 1.324844	 -1.170122
C	 -2.496391	 3.670441	 -2.543271
H	 -0.365775	 3.439196	 -2.646165
H	 -1.251537	 2.152224	 -3.408654
H	 -2.499539	 4.358432	 -1.704402
H	 -2.566335	 4.257187	 -3.452038
H	 -3.391835	 3.061954	 -2.472791
H	 4.145311	 -1.294584	 -0.871587
H	 4.970080	 0.004978	 -0.000091
H	 4.145223	 -1.291980	 0.874988

	symmetry c1
}
set optking {
	frozen_dihedral = ("
		9 5 3 6
	")
}

ee,wfn = optimize('scf', return_wfn=True)
oeprop( wfn, 'DIPOLE', 'QUADRUPOLE', 'MULLIKEN_CHARGES')
f=open( 'psi4out.xyz', 'w' )
f.write( "25  " )
f.write( str(ee) + "\n" )
f.write( MOL.save_string_xyz() )
f.close()
--------------------------------------------------------------------------

    Molecular point group: c1
  Charge       = 0
  Multiplicity = 1
  Basis Set: CC-PVTZ
  Basis Set:
  @DF-RHF Final Energy:  -387.27210541113533
    Total Energy =                       -387.2721054111351577
    Molecular point group: c1
  Basis Set: CC-PVTZ
  Basis Set:
  Basis Set: CC-PVTZ
  Basis Set:
  @DF-RHF Final Energy:  -387.27336529119498
    Total Energy =                       -387.2733652911946365
  Basis Set: CC-PVTZ
  Basis Set:
  Basis Set: CC-PVTZ
  Basis Set:
  @DF-RHF Final Energy:  -387.27117856827061
    Total Energy =                       -387.2711785682702157
  Basis Set: CC-PVTZ
  Basis Set:
  Basis Set: CC-PVTZ
  Basis Set:
  @DF-RHF Final Energy:  -387.27371014636333
    Total Energy =                       -387.2737101463632143
  Basis Set: CC-PVTZ
  Basis Set:
  @DF-RHF Final Energy:  -387.27385591209804
    Total Energy =                       -387.2738559120982700
  @DF-RHF Final Energy:  -387.27390152905372
    Total Energy =                       -387.2739015290534326
  Basis Set: CC-PVTZ
  Basis Set:
  @DF-RHF Final Energy:  -387.27394079540051
    Total Energy =                       -387.2739407954003354
  Basis Set: CC-PVTZ
  Basis Set:
  Basis Set: CC-PVTZ
  Basis Set:
  @DF-RHF Final Energy:  -387.27395186156008
    Total Energy =                       -387.2739518615603629
  Basis Set: CC-PVTZ
  Basis Set:
  Basis Set: CC-PVTZ
  Basis Set:
  @DF-RHF Final Energy:  -387.27395638854784
    Total Energy =                       -387.2739563885479583
  Basis Set: CC-PVTZ
  Basis Set:
  Charge       = 0
  Multiplicity = 1
  Basis Set: CC-PVTZ
  Basis Set:

    Orbital Energies (a.u.)
    -----------------------

    Doubly Occupied:

       1A    -20.538934     2A    -11.321579     3A    -11.230760
       4A    -11.227237     5A    -11.216421     6A    -11.210055
       7A    -11.208925     8A    -11.208086     9A    -11.203863
      10A     -1.399507    11A     -1.092448    12A     -1.056077
      13A     -1.014698    14A     -0.968699    15A     -0.889788
      16A     -0.816126    17A     -0.788383    18A     -0.728416
      19A     -0.669882    20A     -0.638951    21A     -0.632979
      22A     -0.625944    23A     -0.593448    24A     -0.585935
      25A     -0.573093    26A     -0.558260    27A     -0.535119
      28A     -0.527139    29A     -0.516499    30A     -0.499172
      31A     -0.483465    32A     -0.475414    33A     -0.460791
      34A     -0.459412    35A     -0.441544    36A     -0.402315

  @DF-RHF Final Energy:  -387.27395708892715

   => Energetics <=

    Nuclear Repulsion Energy =            448.7619022120694012
    One-Electron Energy =               -1414.4729922784113114
    Two-Electron Energy =                 578.4371329774138530
    DFT Exchange-Correlation Energy =       0.0000000000000000
    Empirical Dispersion Energy =           0.0000000000000000
    PCM Polarization Energy =               0.0000000000000000
    EFP Energy =                            0.0000000000000000
    Total Energy =                       -387.2739570889281140
    Molecular point group: c1
  Basis Set: CC-PVTZ
  Basis Set:

  -Total Gradient:
     Atom            X                  Y                   Z
    ------   -----------------  -----------------  -----------------
       1        0.000001210596    -0.000037477573     0.000000249524
       2        0.000014730832     0.000106016818     0.000025377368
       3        0.000711027775     0.000788550943    -0.000659102790
       4        0.000004288002    -0.000011298272     0.000039549912
       5        0.000673807581     0.000853750542    -0.000658214499
       6       -0.000692858212    -0.000841360337     0.000656461523
       7       -0.000017558065     0.000023814028    -0.000018806103
       8        0.000004405613    -0.000005638795    -0.000036043234
       9       -0.000685820474    -0.000834430949     0.000670977805
      10       -0.000005202316    -0.000007491793    -0.000006133567
      11       -0.000003435955    -0.000000052345     0.000017994525
      12       -0.000033010918    -0.000011283997     0.000007206749
      13        0.000005015510    -0.000016742645    -0.000002575621
      14        0.000015447470     0.000013180714     0.000008893798
      15       -0.000006687501     0.000011872873     0.000001717978
      16        0.000002971173     0.000001789330     0.000001541847
      17       -0.000006790139    -0.000007026841    -0.000000396127
      18        0.000001648308     0.000002255157     0.000001015744
      19        0.000002401305    -0.000001632760     0.000002286553
      20        0.000003842718    -0.000000579613    -0.000002262998
      21       -0.000001141986    -0.000005076361    -0.000001913140
      22       -0.000004960132     0.000001455983     0.000001687114
      23        0.000007359944    -0.000004827542    -0.000049731074
      24        0.000008488244    -0.000003721273    -0.000010949500
      25        0.000000820624    -0.000014045292     0.000011168217

  **** Optimization is complete! (in 10 steps) ****
    Final optimized geometry and variables:
    Molecular point group: c1

    Geometry (in Angstrom), charge = 0, multiplicity = 1:

    O            2.142465271262     0.091753874648     1.305454263136
    C            2.034897401886    -1.047685892714     0.988425624090
    C            0.687922773297    -1.734790713388     0.875941028710
    C            3.246564030815    -1.904070647029     0.701958262568
    C           -0.518167018946    -0.803781929073     0.813919980107
    H            0.700873421323    -2.414757358409     0.028877773159
    H            0.615218214334    -2.374754245134     1.753639834976
    C           -0.613174638667     0.011112731079    -0.473712968393
    H           -0.498624159746    -0.141965282167     1.671405170610
    H           -1.413171690227    -1.411376507511     0.913864934648
    C           -1.844417575158     0.911508314049    -0.515987532089
    H            0.277324694810     0.619124338126    -0.583959992569
    H           -0.637672664831    -0.667533281042    -1.324368194618
    C           -1.954579243763     1.726335853510    -1.801497509874
    H           -1.820674421342     1.587879636444     0.334771488599
    H           -2.740278121945     0.305627642353    -0.398736241124
    C           -3.185198808502     2.626383852466    -1.837314064074
    H           -1.061169652831     2.333345793836    -1.917876962594
    H           -1.977536043572     1.051887467334    -2.653434842030
    H           -3.173685281861     3.337041814809    -1.017641263849
    H           -3.233528629978     3.189786594168    -2.762186012426
    H           -4.098004647021     2.045306638713    -1.756218868687
    H            3.285498845301    -2.123080539237    -0.360257138519
    H            4.144939214391    -1.381198145278     0.992126899490
    H            3.181889360608    -2.851704723752     1.224390365443

  Mulliken Charges: (a.u.)
   Center  Symbol    Alpha    Beta     Spin     Total
       1     O     4.17406  4.17406  0.00000 -0.34813
       2     C     2.85839  2.85839  0.00000  0.28323
       3     C     3.12461  3.12461  0.00000 -0.24922
       4     C     3.15119  3.15119  0.00000 -0.30238
       5     C     3.09119  3.09119  0.00000 -0.18238
       6     H     0.44338  0.44338  0.00000  0.11323
       7     H     0.43513  0.43513  0.00000  0.12975
       8     C     3.09144  3.09144  0.00000 -0.18287
       9     H     0.44495  0.44495  0.00000  0.11010
      10     H     0.44730  0.44730  0.00000  0.10540
      11     C     3.08823  3.08823  0.00000 -0.17645
      12     H     0.44330  0.44330  0.00000  0.11339
      13     H     0.45885  0.45885  0.00000  0.08229
      14     C     3.08354  3.08354  0.00000 -0.16708
      15     H     0.45246  0.45246  0.00000  0.09509
      16     H     0.45663  0.45663  0.00000  0.08673
      17     C     3.15069  3.15069  0.00000 -0.30137
      18     H     0.45311  0.45311  0.00000  0.09379
      19     H     0.45627  0.45627  0.00000  0.08746
      20     H     0.45452  0.45452  0.00000  0.09097
      21     H     0.44882  0.44882  0.00000  0.10236
      22     H     0.45602  0.45602  0.00000  0.08795
      23     H     0.44936  0.44936  0.00000  0.10127
      24     H     0.43587  0.43587  0.00000  0.12826
      25     H     0.45069  0.45069  0.00000  0.09861

   Total alpha = 36.00000, Total beta = 36.00000, Total charge =  0.00000

*** Psi4 exiting successfully. Buy a developer a beer!
