                              Psi4 1.0.54 Driver

  ==> Input File <==

--------------------------------------------------------------------------
set {
	reference rhf
	basis cc-pvtz
}

set_num_threads( 4 )
memory 2 gb

molecule MOL {
0 1

H	 1.682566	 -0.465292	 -1.547590
O	 0.869301	 -0.513173	 -1.080736
C	 0.700177	 0.619554	 -0.266242
C	 -0.713111	 0.588314	 0.266177
H	 0.851879	 1.529363	 -0.839094
H	 1.402724	 0.609851	 0.563042
O	 -1.421673	 -0.521378	 -0.196983
H	 -1.244794	 1.469161	 -0.069059
H	 -0.685100	 0.604721	 1.352683
H	 -0.933408	 -1.297830	 0.014544

	symmetry c1
}
set optking {
	frozen_dihedral = ("
		5 3 4 7
	")
}

ee,wfn = optimize('scf', return_wfn=True)
oeprop( wfn, 'DIPOLE', 'QUADRUPOLE', 'MULLIKEN_CHARGES')
f=open( 'psi4out.xyz', 'w' )
f.write( "10  " )
f.write( str(ee) + "\n" )
f.write( MOL.save_string_xyz() )
f.close()
--------------------------------------------------------------------------

    Molecular point group: c1
  Charge       = 0
  Multiplicity = 1
  Basis Set: CC-PVTZ
  Basis Set:
  @DF-RHF Final Energy:  -229.01325706394755
    Total Energy =                       -229.0132570639475205
    Molecular point group: c1
  Basis Set: CC-PVTZ
  Basis Set:
  Basis Set: CC-PVTZ
  Basis Set:
  @DF-RHF Final Energy:  -229.01548203988762
    Total Energy =                       -229.0154820398877291
  Basis Set: CC-PVTZ
  Basis Set:
  Basis Set: CC-PVTZ
  Basis Set:
  @DF-RHF Final Energy:  -229.01678186641166
    Total Energy =                       -229.0167818664116908
  Basis Set: CC-PVTZ
  Basis Set:
  Basis Set: CC-PVTZ
  Basis Set:
  @DF-RHF Final Energy:  -229.01707423218164
    Total Energy =                       -229.0170742321815851
  Basis Set: CC-PVTZ
  Basis Set:
  @DF-RHF Final Energy:  -229.01732120002117
    Total Energy =                       -229.0173212000211151
  @DF-RHF Final Energy:  -229.01776132747889
    Total Energy =                       -229.0177613274789223
  @DF-RHF Final Energy:  -229.01788888258076
    Total Energy =                       -229.0178888825808201
  @DF-RHF Final Energy:  -229.01800208555190
    Total Energy =                       -229.0180020855518421
  @DF-RHF Final Energy:  -229.01806020623704
    Total Energy =                       -229.0180602062370667
  Basis Set: CC-PVTZ
  Basis Set:
  @DF-RHF Final Energy:  -229.01809274639032
    Total Energy =                       -229.0180927463903231
  Basis Set: CC-PVTZ
  Basis Set:
  Basis Set: CC-PVTZ
  Basis Set:
  @DF-RHF Final Energy:  -229.01810666276009
    Total Energy =                       -229.0181066627600899
  Basis Set: CC-PVTZ
  Basis Set:
  Basis Set: CC-PVTZ
  Basis Set:
  @DF-RHF Final Energy:  -229.01810989312762
    Total Energy =                       -229.0181098931276722
  Basis Set: CC-PVTZ
  Basis Set:
  Charge       = 0
  Multiplicity = 1
  Basis Set: CC-PVTZ
  Basis Set:

    Orbital Energies (a.u.)
    -----------------------

    Doubly Occupied:

       1A    -20.569667     2A    -20.532447     3A    -11.281999
       4A    -11.267185     5A     -1.393992     6A     -1.348435
       7A     -0.998478     8A     -0.849683     9A     -0.731177
      10A     -0.674340    11A     -0.671660    12A     -0.588919
      13A     -0.580635    14A     -0.548454    15A     -0.477083
      16A     -0.475310    17A     -0.418395

  @DF-RHF Final Energy:  -229.01811026622579

   => Energetics <=

    Nuclear Repulsion Energy =            134.9734648864518931
    One-Electron Energy =                -581.1674275442800308
    Two-Electron Energy =                 217.1758523916023762
    DFT Exchange-Correlation Energy =       0.0000000000000000
    Empirical Dispersion Energy =           0.0000000000000000
    PCM Polarization Energy =               0.0000000000000000
    EFP Energy =                            0.0000000000000000
    Total Energy =                       -229.0181102662257615
    Molecular point group: c1
  Basis Set: CC-PVTZ
  Basis Set:

  -Total Gradient:
     Atom            X                  Y                   Z
    ------   -----------------  -----------------  -----------------
       1        0.000009439521    -0.000004624736    -0.000014240216
       2       -0.000029104925     0.000021180110     0.000034141909
       3       -0.000176899582    -0.000326006165    -0.000316244988
       4       -0.000137381106     0.000244452447    -0.000265768830
       5        0.000173924991     0.000213992835     0.000318642951
       6       -0.000006769305    -0.000007650616     0.000000552851
       7        0.000121183836    -0.000108054751     0.000276608302
       8        0.000003896256    -0.000002833549    -0.000009132507
       9        0.000000801400     0.000003741106     0.000000369594
      10        0.000040908912    -0.000034196682    -0.000024929065

  **** Optimization is complete! (in 13 steps) ****
    Final optimized geometry and variables:
    Molecular point group: c1

    Geometry (in Angstrom), charge = 0, multiplicity = 1:

    H            1.769592172860    -0.653643134941    -1.265399069525
    O            0.939565953884    -0.599235684325    -0.830241372917
    C            0.860531522892     0.575226143530    -0.064649232586
    C           -0.512918216285     0.625381309772     0.647392613222
    H            0.978857583444     1.445207818658    -0.701180298291
    H            1.656357333559     0.592915138700     0.671871346920
    O           -1.335557410569    -0.461106425747     0.356762313443
    H           -1.027697681352     1.535727127574     0.362966967794
    H           -0.354995254242     0.666968198637     1.719215569117
    H           -0.876414462709    -1.054203653304    -0.211643846658

  Mulliken Charges: (a.u.)
   Center  Symbol    Alpha    Beta     Spin     Total
       1     H     0.39505  0.39505  0.00000  0.20991
       2     O     4.19726  4.19726  0.00000 -0.39452
       3     C     2.97169  2.97169  0.00000  0.05662
       4     C     2.95290  2.95290  0.00000  0.09420
       5     H     0.47168  0.47168  0.00000  0.05665
       6     H     0.47168  0.47168  0.00000  0.05663
       7     O     4.20893  4.20893  0.00000 -0.41785
       8     H     0.47438  0.47438  0.00000  0.05125
       9     H     0.47536  0.47536  0.00000  0.04928
      10     H     0.38108  0.38108  0.00000  0.23784

   Total alpha = 17.00000, Total beta = 17.00000, Total charge = -0.00000

*** Psi4 exiting successfully. Buy a developer a beer!
