  ==> Input File <==

--------------------------------------------------------------------------
set {
	reference rhf
	basis 6-31G*
}

set_num_threads( 4 )
memory 2 gb

molecule MOL {
0 1

O	 2.727144	 -0.308547	 -0.432165
C	 1.705091	 0.115954	 0.001797
C	 0.381791	 -0.609817	 0.001258
O	 1.595803	 1.314303	 0.561398
C	 -0.823008	 0.326187	 0.001381
H	 0.371250	 -1.265087	 -0.865474
H	 0.370908	 -1.265746	 0.867490
C	 -2.149452	 -0.435131	 -0.000098
H	 -0.770201	 0.977095	 -0.865636
H	 -0.771220	 0.975655	 0.869608
C	 -3.368779	 0.488503	 -0.000883
H	 -2.193746	 -1.087250	 -0.871175
H	 -2.195311	 -1.087803	 0.870418
C	 -4.693822	 -0.272754	 -0.001129
H	 -3.325798	 1.139422	 -0.871284
H	 -3.326423	 1.139959	 0.869145
H	 -4.781274	 -0.907928	 -0.878124
H	 -5.538651	 0.408946	 -0.001420
H	 -4.781694	 -0.907783	 0.875984
C	 2.770526	 2.102057	 0.627914
H	 3.532018	 1.600617	 1.207755
H	 2.481023	 3.023682	 1.108196
H	 3.151971	 2.300128	 -0.363436

	symmetry c1
}
set optking {
	frozen_dihedral = ("
		1 2 3 6
	")
}

ee = optimize('scf')
oeprop('DIPOLE', 'QUADRUPOLE', 'MULLIKEN_CHARGES')
f=open( 'psi4out.xyz', 'w' )
f.write( "23  " )
f.write( str(ee) + "\n" )
f.write( MOL.save_string_xyz() )
f.close()
--------------------------------------------------------------------------

    Molecular point group: c1
  Charge       = 0
  Multiplicity = 1
  Basis Set: 6-31G*
  Basis Set:
  @DF-RHF Final Energy:  -422.97315708672880
    Total Energy =                       -422.9731570867286337
    Molecular point group: c1
  Basis Set: 6-31G*
  Basis Set:
  Basis Set: 6-31G*
  Basis Set:
  @DF-RHF Final Energy:  -422.97272566451409
    Total Energy =                       -422.9727256645147691
  Basis Set: 6-31G*
  Basis Set:
  Basis Set: 6-31G*
  Basis Set:
  @DF-RHF Final Energy:  -422.97329052200837
    Total Energy =                       -422.9732905220087105
  Basis Set: 6-31G*
  Basis Set:
  Basis Set: 6-31G*
  Basis Set:
  @DF-RHF Final Energy:  -422.97411984492675
    Total Energy =                       -422.9741198449269177
  Basis Set: 6-31G*
  Basis Set:
  Basis Set: 6-31G*
  Basis Set:
  @DF-RHF Final Energy:  -422.97413322870284
    Total Energy =                       -422.9741332287024989
  Basis Set: 6-31G*
  Basis Set:
  Basis Set: 6-31G*
  Basis Set:
  @DF-RHF Final Energy:  -422.97413657832033
    Total Energy =                       -422.9741365783202127
  Basis Set: 6-31G*
  Basis Set:
  Charge       = 0
  Multiplicity = 1
  Basis Set: 6-31G*
  Basis Set:

    Orbital Energies (a.u.)
    -----------------------

    Doubly Occupied:

       1A    -20.605790     2A    -20.541507     3A    -11.371967
       4A    -11.281450     5A    -11.235446     6A    -11.224184
       7A    -11.220407     8A    -11.219227     9A    -11.211605
      10A     -1.469852    11A     -1.360978    12A     -1.096010
      13A     -1.044837    14A     -0.983093    15A     -0.935899
      16A     -0.848005    17A     -0.797378    18A     -0.774234
      19A     -0.692917    20A     -0.683217    21A     -0.670795
      22A     -0.653424    23A     -0.610163    24A     -0.592397
      25A     -0.577253    26A     -0.564557    27A     -0.553548
      28A     -0.524250    29A     -0.523210    30A     -0.506746
      31A     -0.488511    32A     -0.479386    33A     -0.470254
      34A     -0.468598    35A     -0.453279    36A     -0.425608

  @DF-RHF Final Energy:  -422.97413748504471

   => Energetics <=

    Nuclear Repulsion Energy =            455.0761788347098218
    One-Electron Energy =               -1477.7806714340733834
    Two-Electron Energy =                 599.7303551143185132
    DFT Exchange-Correlation Energy =       0.0000000000000000
    Empirical Dispersion Energy =           0.0000000000000000
    PCM Polarization Energy =               0.0000000000000000
    EFP Energy =                            0.0000000000000000
    Total Energy =                       -422.9741374850450484
    Molecular point group: c1
  Basis Set: 6-31G*
  Basis Set:

  -Total Gradient:
     Atom            X                  Y                   Z
    ------   -----------------  -----------------  -----------------
       1        0.000207025390    -0.000395139733     0.000853824592
       2       -0.000375715060     0.000674193362    -0.001345167152
       3        0.000527462058    -0.000936634118     0.000988492129
       4       -0.000051959268    -0.000008705110    -0.000002318978
       5        0.000047102192    -0.000015361573     0.000055951332
       6       -0.000364537056     0.000682071847    -0.000515520051
       7       -0.000000221694     0.000001661740     0.000028336795
       8       -0.000017372190    -0.000004619803    -0.000043910359
       9        0.000007276445    -0.000009511480    -0.000014967272
      10        0.000011787535     0.000012965274     0.000001886395
      11        0.000000507772     0.000002372940     0.000007991686
      12       -0.000009075735     0.000004025796    -0.000016513569
      13        0.000011454219     0.000003785883    -0.000012917089
      14        0.000005756750    -0.000005762381     0.000014033325
      15       -0.000002491298    -0.000011139125    -0.000002422288
      16        0.000006052846     0.000010039009    -0.000001077278
      17        0.000002534554     0.000001669501     0.000000139505
      18        0.000004459432     0.000001992503     0.000002397300
      19       -0.000004115426    -0.000003207823     0.000001753607
      20       -0.000002494677    -0.000009694380    -0.000003764397
      21        0.000002507681     0.000004080746     0.000000650918
      22       -0.000007815329    -0.000002620007     0.000000747205
      23        0.000001870852     0.000003536930     0.000002373645

  **** Optimization is complete! (in 7 steps) ****
    Final optimized geometry and variables:
    Molecular point group: c1

    Geometry (in Angstrom), charge = 0, multiplicity = 1:

    O            2.867823976319    -0.658472256701    -0.518418992443
    C            1.875608614420    -0.166513524909    -0.084292647956
    C            0.534291769078    -0.863423159546    -0.059236807788
    O            1.849151240068     1.037094570872     0.469183873316
    C           -0.695755176382     0.046043041324    -0.066216254651
    H            0.524932257119    -1.534909241351    -0.909440645621
    H            0.532186127520    -1.488592917896     0.831141606238
    C           -1.999265107425    -0.753999354504    -0.094053051195
    H           -0.655328296744     0.702706536015    -0.931764010482
    H           -0.677956029342     0.688595952135     0.807014412451
    C           -3.245696982553     0.132663798373    -0.095200134648
    H           -2.014097084783    -1.394948063870    -0.973912673230
    H           -2.033428057800    -1.419083501377     0.767519040488
    C           -4.547002652340    -0.668223922169    -0.117729892154
    H           -3.214714179464     0.795309188045    -0.957345665470
    H           -3.231446623626     0.774093650744     0.783236317329
    H           -4.606497250130    -1.295084990182    -1.002944637148
    H           -5.411995391023    -0.012375133546    -0.118488945941
    H           -4.623984551025    -1.316074643388     0.750898813030
    C            3.075108967896     1.744383930681     0.525109403202
    H            3.801809173297     1.197439668990     1.108174444249
    H            2.849466752965     2.688101468859     0.996697832304
    H            3.465651123451     1.905347357558    -0.469175363411

  Mulliken Charges: (a.u.)
   Center  Symbol    Alpha    Beta     Spin     Total
       1     O     4.28877  4.28877  0.00000 -0.57754
       2     C     2.60606  2.60606  0.00000  0.78787
       3     C     3.20825  3.20825  0.00000 -0.41650
       4     O     4.30337  4.30337  0.00000 -0.60675
       5     C     3.15501  3.15501  0.00000 -0.31001
       6     H     0.39785  0.39785  0.00000  0.20431
       7     H     0.40047  0.40047  0.00000  0.19905
       8     C     3.15360  3.15360  0.00000 -0.30719
       9     H     0.41762  0.41762  0.00000  0.16477
      10     H     0.40968  0.40968  0.00000  0.18065
      11     C     3.15166  3.15166  0.00000 -0.30332
      12     H     0.42216  0.42216  0.00000  0.15568
      13     H     0.42307  0.42307  0.00000  0.15385
      14     C     3.23966  3.23966  0.00000 -0.47932
      15     H     0.42193  0.42193  0.00000  0.15614
      16     H     0.42192  0.42192  0.00000  0.15617
      17     H     0.42115  0.42115  0.00000  0.15769
      18     H     0.41842  0.41842  0.00000  0.16317
      19     H     0.42136  0.42136  0.00000  0.15727
      20     C     3.09252  3.09252  0.00000 -0.18505
      21     H     0.40854  0.40854  0.00000  0.18292
      22     H     0.40870  0.40870  0.00000  0.18259
      23     H     0.40822  0.40822  0.00000  0.18355

   Total alpha = 36.00000, Total beta = 36.00000, Total charge =  0.00000
