  ==> Input File <==

--------------------------------------------------------------------------
set {
	reference rhf
	basis 6-31G*
}

set_num_threads( 1 )
memory 2 gb

molecule MOL {
0 1

H	 -2.611903	 0.297244	 0.765469
O	 -2.035884	 -0.060112	 0.102722
C	 -0.955155	 0.788182	 -0.092531
C	 0.353668	 0.040312	 -0.004810
H	 -0.985057	 1.290372	 -1.054184
H	 -0.974469	 1.533190	 0.688632
F	 0.394464	 -0.937475	 -0.903053
F	 1.368604	 0.853376	 -0.249821
F	 0.546173	 -0.502608	 1.179981

	symmetry c1
}
set optking {
	frozen_dihedral = ("
		7 4 3 5
	")
}

ee = energy('scf')
oeprop('DIPOLE', 'QUADRUPOLE', 'MULLIKEN_CHARGES')
f=open( 'psi4out.xyz', 'w' )
f.write( "9  " )
f.write( str(ee) + "\n" )
f.write( MOL.save_string_xyz() )
f.close()
--------------------------------------------------------------------------

    Molecular point group: c1

    Geometry (in Angstrom), charge = 0, multiplicity = 1:

       Center              X                  Y                   Z               Mass
    ------------   -----------------  -----------------  -----------------  -----------------
           H         -2.606734266171     0.287453612042     0.751541157110     1.007825032070
           O         -2.030715266171    -0.069902387958     0.088794157110    15.994914619560
           C         -0.949986266171     0.778391612042    -0.106458842890    12.000000000000
           C          0.358836733829     0.030521612042    -0.018737842890    12.000000000000
           H         -0.979888266171     1.280581612042    -1.068111842890     1.007825032070
           H         -0.969300266171     1.523399612042     0.674704157110     1.007825032070
           F          0.399632733829    -0.947265387958    -0.916980842890    18.998403224000
           F          1.373772733829     0.843585612042    -0.263748842890    18.998403224000
           F          0.551341733829    -0.512398387958     1.166053157110    18.998403224000

  Charge       = 0
  Multiplicity = 1
  Basis Set: 6-31G*
  Basis Set:

    Orbital Energies (a.u.)
    -----------------------

    Doubly Occupied:

       1A    -26.340425     2A    -26.336377     3A    -26.329217
       4A    -20.588778     5A    -11.497132     6A    -11.310360
       7A     -1.733710     8A     -1.634866     9A     -1.626729
      10A     -1.401845    11A     -1.047082    12A     -0.917666
      13A     -0.824591    14A     -0.823242    15A     -0.787086
      16A     -0.737078    17A     -0.706693    18A     -0.695320
      19A     -0.665082    20A     -0.649871    21A     -0.636946
      22A     -0.634873    23A     -0.597993    24A     -0.527632
      25A     -0.478628

  @DF-RHF Final Energy:  -450.65801513665832

   => Energetics <=

    Nuclear Repulsion Energy =            276.2409347500867511
    One-Electron Energy =               -1174.7395422702061296
    Two-Electron Energy =                 447.8405923834615692
    DFT Exchange-Correlation Energy =       0.0000000000000000
    Empirical Dispersion Energy =           0.0000000000000000
    PCM Polarization Energy =               0.0000000000000000
    EFP Energy =                            0.0000000000000000
    Total Energy =                       -450.6580151366577525

  Mulliken Charges: (a.u.)
   Center  Symbol    Alpha    Beta     Spin     Total
       1     H     0.27052  0.27052  0.00000  0.45897
       2     O     4.36247  4.36247  0.00000 -0.72495
       3     C     3.05409  3.05409  0.00000 -0.10817
       4     C     2.45468  2.45468  0.00000  1.09064
       5     H     0.40469  0.40469  0.00000  0.19062
       6     H     0.41280  0.41280  0.00000  0.17441
       7     F     4.68099  4.68099  0.00000 -0.36198
       8     F     4.68236  4.68236  0.00000 -0.36472
       9     F     4.67740  4.67740  0.00000 -0.35481

   Total alpha = 25.00000, Total beta = 25.00000, Total charge =  0.00000
