                              Psi4 1.0.54 Driver

  ==> Input File <==

--------------------------------------------------------------------------
set {
	reference rhf
	basis cc-pvtz
}

set_num_threads( 4 )
memory 2 gb

molecule MOL {
0 1

O	 -1.442677	 -0.356534	 -0.890489
C	 -1.081510	 0.147522	 0.122720
C	 0.327029	 -0.064006	 0.641890
C	 -2.005100	 1.005781	 0.953769
C	 1.349460	 -0.017068	 -0.500215
H	 0.399029	 -1.014606	 1.159950
H	 0.538021	 0.726928	 1.350471
C	 2.779782	 -0.209014	 -0.009215
H	 1.115007	 -0.782959	 -1.233891
H	 1.259071	 0.936707	 -1.006644
H	 3.481860	 -0.160270	 -0.833072
H	 2.903471	 -1.171535	 0.475559
H	 3.052569	 0.559584	 0.705428
H	 -1.996023	 0.685737	 1.989744
H	 -3.009140	 0.959887	 0.560967
H	 -1.653997	 2.032490	 0.932588

	symmetry c1
}
set optking {
	frozen_dihedral = ("
		4 2 3 5
	")
}

ee,wfn = optimize('scf', return_wfn=True)
oeprop( wfn, 'DIPOLE', 'QUADRUPOLE', 'MULLIKEN_CHARGES')
f=open( 'psi4out.xyz', 'w' )
f.write( "16  " )
f.write( str(ee) + "\n" )
f.write( MOL.save_string_xyz() )
f.close()
--------------------------------------------------------------------------

    Molecular point group: c1
  Charge       = 0
  Multiplicity = 1
  Basis Set: CC-PVTZ
  Basis Set:
  @DF-RHF Final Energy:  -270.12896347833157
    Total Energy =                       -270.1289634783314568
    Molecular point group: c1
  Basis Set: CC-PVTZ
  Basis Set:
  Basis Set: CC-PVTZ
  Basis Set:
  @DF-RHF Final Energy:  -270.12892002952748
    Total Energy =                       -270.1289200295275350
  Basis Set: CC-PVTZ
  Basis Set:
  Basis Set: CC-PVTZ
  Basis Set:
  @DF-RHF Final Energy:  -270.12843256980710
    Total Energy =                       -270.1284325698069324
  Basis Set: CC-PVTZ
  Basis Set:
  Basis Set: CC-PVTZ
  Basis Set:
  @DF-RHF Final Energy:  -270.12985966222726
    Total Energy =                       -270.1298596622272044
  Basis Set: CC-PVTZ
  Basis Set:
  @DF-RHF Final Energy:  -270.12988947677684
    Total Energy =                       -270.1298894767768957
  Basis Set: CC-PVTZ
  Basis Set:
  @DF-RHF Final Energy:  -270.12989054523848
    Total Energy =                       -270.1298905452382542
  Basis Set: CC-PVTZ
  Basis Set:
  Basis Set: CC-PVTZ
  Basis Set:
  @DF-RHF Final Energy:  -270.12989534784117
    Total Energy =                       -270.1298953478410567
  Basis Set: CC-PVTZ
  Basis Set:
  Basis Set: CC-PVTZ
  Basis Set:
  @DF-RHF Final Energy:  -270.12989711951076
    Total Energy =                       -270.1298971195105878
  Basis Set: CC-PVTZ
  Basis Set:
  Charge       = 0
  Multiplicity = 1
  Basis Set: CC-PVTZ
  Basis Set:

    Orbital Energies (a.u.)
    -----------------------

    Doubly Occupied:

       1A    -20.537938     2A    -11.321068     3A    -11.229915
       4A    -11.227746     5A    -11.221885     6A    -11.213336
       7A     -1.398627     8A     -1.079101     9A     -1.016497
      10A     -0.948429    11A     -0.825898    12A     -0.734229
      13A     -0.659008    14A     -0.650677    15A     -0.621932
      16A     -0.602517    17A     -0.570895    18A     -0.561434
      19A     -0.545952    20A     -0.507978    21A     -0.496939
      22A     -0.482342    23A     -0.475616    24A     -0.401550

  @DF-RHF Final Energy:  -270.12989719726841

   => Energetics <=

    Nuclear Repulsion Energy =            237.2117855332706711
    One-Electron Energy =                -836.0203471284469288
    Two-Electron Energy =                 328.6786643979079940
    DFT Exchange-Correlation Energy =       0.0000000000000000
    Empirical Dispersion Energy =           0.0000000000000000
    PCM Polarization Energy =               0.0000000000000000
    EFP Energy =                            0.0000000000000000
    Total Energy =                       -270.1298971972682352
    Molecular point group: c1
  Basis Set: CC-PVTZ
  Basis Set:

  -Total Gradient:
     Atom            X                  Y                   Z
    ------   -----------------  -----------------  -----------------
       1        0.000008300826     0.000003035447     0.000006287899
       2       -0.000385842194    -0.000789890510     0.000814836094
       3        0.000010531713    -0.001000972269    -0.000370352108
       4        0.000285252937     0.000793783092    -0.000529946482
       5        0.000089624723     0.000982715096     0.000086581861
       6       -0.000006725236     0.000004286100     0.000001652203
       7        0.000000869991    -0.000000328339     0.000003700461
       8       -0.000007860783    -0.000007122961    -0.000002112190
       9        0.000006356560     0.000002612888     0.000007281487
      10        0.000000136501     0.000002142685    -0.000006911007
      11       -0.000002560956     0.000000192890     0.000000070564
      12        0.000002046367    -0.000000464697     0.000001626087
      13       -0.000005577546    -0.000001657366    -0.000004242185
      14       -0.000000843015     0.000007167828    -0.000000547505
      15        0.000005552458     0.000001016054    -0.000002421664
      16        0.000000737648     0.000003484064    -0.000005503516

  **** Optimization is complete! (in 9 steps) ****
    Final optimized geometry and variables:
    Molecular point group: c1

    Geometry (in Angstrom), charge = 0, multiplicity = 1:

    O           -1.464056241393    -0.475153820091    -0.919322020751
    C           -1.084825271304     0.062865338785     0.069207194275
    C            0.340683300986    -0.104674592200     0.565281942679
    C           -1.996422886430     0.941280244459     0.890874214901
    C            1.376139315046    -0.096233005855    -0.556601492972
    H            0.372150521208    -1.054530545115     1.094637592198
    H            0.567767226628     0.662484922975     1.297882399834
    C            2.792514510971    -0.331802510291    -0.044369740303
    H            1.111894689288    -0.852449750483    -1.283431590182
    H            1.330695779959     0.856703903353    -1.075002899508
    H            3.506812310180    -0.312294322505    -0.858845940382
    H            2.876297913873    -1.296155545617     0.445636402754
    H            3.087130330530     0.428783326604     0.671320780437
    H           -1.986202170172     0.630199058123     1.930012835727
    H           -3.002375213990     0.901703140136     0.502277955727
    H           -1.632547099337     1.963290312981     0.859241475767

  Mulliken Charges: (a.u.)
   Center  Symbol    Alpha    Beta     Spin     Total
       1     O     4.17409  4.17409  0.00000 -0.34819
       2     C     2.85923  2.85923  0.00000  0.28153
       3     C     3.10413  3.10413  0.00000 -0.20826
       4     C     3.15287  3.15287  0.00000 -0.30574
       5     C     3.08317  3.08317  0.00000 -0.16635
       6     H     0.44444  0.44444  0.00000  0.11111
       7     H     0.44706  0.44706  0.00000  0.10589
       8     C     3.14962  3.14962  0.00000 -0.29925
       9     H     0.43904  0.43904  0.00000  0.12192
      10     H     0.45321  0.45321  0.00000  0.09359
      11     H     0.44606  0.44606  0.00000  0.10788
      12     H     0.45439  0.45439  0.00000  0.09123
      13     H     0.45656  0.45656  0.00000  0.08687
      14     H     0.44996  0.44996  0.00000  0.10008
      15     H     0.43636  0.43636  0.00000  0.12728
      16     H     0.44980  0.44980  0.00000  0.10041

   Total alpha = 24.00000, Total beta = 24.00000, Total charge = -0.00000

*** Psi4 exiting successfully. Buy a developer a beer!
