                              Psi4 1.0.54 Driver

  ==> Input File <==

--------------------------------------------------------------------------
set {
	reference rhf
	basis cc-pvtz
}

set_num_threads( 4 )
memory 2 gb

molecule MOL {
0 1

O	 -0.171845	 0.460909	 -0.941652
C	 0.485107	 0.171416	 -0.000134
C	 1.606966	 -0.836201	 0.000174
O	 0.316823	 0.705118	 1.197125
C	 2.988788	 -0.202529	 -0.000115
H	 1.465110	 -1.474645	 -0.864821
H	 1.465209	 -1.474077	 0.865596
H	 3.131767	 0.419673	 -0.873407
H	 3.750876	 -0.972315	 0.000098
H	 3.131883	 0.420264	 0.872742
C	 -0.708619	 1.676095	 1.351919
C	 -0.702489	 2.128275	 2.793440
H	 -1.656714	 1.234900	 1.078404
H	 -0.520396	 2.499101	 0.676969
H	 -0.890949	 1.295866	 3.459737
H	 -1.475707	 2.871852	 2.946609
H	 0.251795	 2.567325	 3.056016

	symmetry c1
}
set optking {
	frozen_dihedral = ("
		4 2 3 6
	")
}

ee,wfn = optimize('scf', return_wfn=True)
oeprop( wfn, 'DIPOLE', 'QUADRUPOLE', 'MULLIKEN_CHARGES')
f=open( 'psi4out.xyz', 'w' )
f.write( "17  " )
f.write( str(ee) + "\n" )
f.write( MOL.save_string_xyz() )
f.close()
--------------------------------------------------------------------------

    Molecular point group: c1
  Charge       = 0
  Multiplicity = 1
  Basis Set: CC-PVTZ
  Basis Set:
  @DF-RHF Final Energy:  -345.03863036356233
    Total Energy =                       -345.0386303635620493
    Molecular point group: c1
  Basis Set: CC-PVTZ
  Basis Set:
  Basis Set: CC-PVTZ
  Basis Set:
  @DF-RHF Final Energy:  -345.03905790223206
    Total Energy =                       -345.0390579022318320
  Basis Set: CC-PVTZ
  Basis Set:
  Basis Set: CC-PVTZ
  Basis Set:
  @DF-RHF Final Energy:  -345.03884100710189
    Total Energy =                       -345.0388410071021781
  Basis Set: CC-PVTZ
  Basis Set:
  Basis Set: CC-PVTZ
  Basis Set:
  @DF-RHF Final Energy:  -345.03909008919703
    Total Energy =                       -345.0390900891973160
  Basis Set: CC-PVTZ
  Basis Set:
  Basis Set: CC-PVTZ
  Basis Set:
  @DF-RHF Final Energy:  -345.03912350630333
    Total Energy =                       -345.0391235063034969
  Basis Set: CC-PVTZ
  Basis Set:
  Charge       = 0
  Multiplicity = 1
  Basis Set: CC-PVTZ
  Basis Set:

    Orbital Energies (a.u.)
    -----------------------

    Doubly Occupied:

       1A    -20.594395     2A    -20.531231     3A    -11.362487
       4A    -11.282670     5A    -11.234586     6A    -11.224698
       7A    -11.220665     8A     -1.470150     9A     -1.363614
      10A     -1.073680    11A     -1.031953    12A     -0.908931
      13A     -0.855613    14A     -0.779391    15A     -0.696155
      16A     -0.684429    17A     -0.671477    18A     -0.617733
      19A     -0.600002    20A     -0.575525    21A     -0.554117
      22A     -0.541662    23A     -0.527226    24A     -0.507405
      25A     -0.506038    26A     -0.498366    27A     -0.455086
      28A     -0.434569

  @DF-RHF Final Energy:  -345.03912395815405

   => Energetics <=

    Nuclear Repulsion Energy =            317.1846114569482324
    One-Electron Energy =               -1098.8397659236982236
    Two-Electron Energy =                 436.6160305085960545
    DFT Exchange-Correlation Energy =       0.0000000000000000
    Empirical Dispersion Energy =           0.0000000000000000
    PCM Polarization Energy =               0.0000000000000000
    EFP Energy =                            0.0000000000000000
    Total Energy =                       -345.0391239581539367
    Molecular point group: c1
  Basis Set: CC-PVTZ
  Basis Set:

  -Total Gradient:
     Atom            X                  Y                   Z
    ------   -----------------  -----------------  -----------------
       1        0.000032641975     0.000025671334     0.000068137889
       2        0.000099798873     0.000063170267     0.000006361750
       3        0.000192512695     0.000278403909    -0.000262058714
       4       -0.000034204221    -0.000068794201    -0.000059324985
       5       -0.000042232176    -0.000087883822     0.000063346070
       6       -0.000134561966    -0.000178472329     0.000069478208
       7       -0.000015691375    -0.000051450398     0.000079196504
       8       -0.000015465933     0.000006324528    -0.000025197973
       9       -0.000007009555     0.000009596334     0.000002833262
      10        0.000032957064     0.000031226626     0.000027250932
      11       -0.000196928819    -0.000181184988     0.000064410181
      12        0.000033063637     0.000067778309    -0.000017379304
      13       -0.000041407364     0.000034744311    -0.000011757892
      14        0.000060782579     0.000053038942    -0.000051521808
      15       -0.000015919727    -0.000046775145     0.000007493678
      16       -0.000007076745     0.000012808488    -0.000005538577
      17        0.000058741060     0.000031797835     0.000044270777

  **** Optimization is complete! (in 6 steps) ****
    Final optimized geometry and variables:
    Molecular point group: c1

    Geometry (in Angstrom), charge = 0, multiplicity = 1:

    O           -0.675604629441    -0.132202130476    -1.580744906819
    C           -0.050274232258    -0.443806912685    -0.624211540495
    C            1.066543434500    -1.455540852955    -0.626081385058
    O           -0.241844187643     0.082149536089     0.573064593351
    C            2.437105208375    -0.774687238837    -0.657395007518
    H            0.934213468025    -2.079362006761    -1.497933522984
    H            0.981127759361    -2.071259815693     0.260138347070
    H            2.540405445868    -0.155786005748    -1.540334271915
    H            3.222099280335    -1.519778718006    -0.676211340049
    H            2.583679025612    -0.152456896476     0.216188622755
    C           -1.241362235815     1.083353858659     0.704923610324
    C           -1.261717689137     1.528944036723     2.148436889151
    H           -2.194157160805     0.672407533653     0.402470243437
    H           -1.009094087548     1.903067751748     0.039560812790
    H           -1.494014779708     0.699676273923     2.804844889319
    H           -2.016206938841     2.294897905467     2.283716931934
    H           -0.302467148869     1.938058154491     2.440215878924

  Mulliken Charges: (a.u.)
   Center  Symbol    Alpha    Beta     Spin     Total
       1     O     4.20148  4.20148  0.00000 -0.40295
       2     C     2.80414  2.80414  0.00000  0.39171
       3     C     3.08326  3.08326  0.00000 -0.16651
       4     O     4.15484  4.15484  0.00000 -0.30968
       5     C     3.15152  3.15152  0.00000 -0.30305
       6     H     0.43832  0.43832  0.00000  0.12335
       7     H     0.44639  0.44639  0.00000  0.10722
       8     H     0.44700  0.44700  0.00000  0.10600
       9     H     0.44751  0.44751  0.00000  0.10498
      10     H     0.44831  0.44831  0.00000  0.10338
      11     C     2.97951  2.97951  0.00000  0.04098
      12     C     3.13328  3.13328  0.00000 -0.26655
      13     H     0.45278  0.45278  0.00000  0.09444
      14     H     0.45443  0.45443  0.00000  0.09113
      15     H     0.45136  0.45136  0.00000  0.09727
      16     H     0.45424  0.45424  0.00000  0.09151
      17     H     0.45162  0.45162  0.00000  0.09676

   Total alpha = 28.00000, Total beta = 28.00000, Total charge = -0.00000

*** Psi4 exiting successfully. Buy a developer a beer!
