  ==> Input File <==

--------------------------------------------------------------------------
set {
	reference rhf
	basis 6-31G*
}

set_num_threads( 1 )
memory 2 gb

molecule MOL {
0 1

O	 1.205426	 1.294956	 0.172456
C	 1.122059	 0.121804	 -0.000188
C	 -0.157047	 -0.641140	 -0.244520
O	 2.172624	 -0.688929	 0.000216
C	 -1.398955	 0.244811	 -0.254447
H	 -0.044048	 -1.171166	 -1.186357
H	 -0.227829	 -1.409751	 0.520321
C	 -2.680084	 -0.552721	 -0.503476
H	 -1.287481	 1.009646	 -1.016749
H	 -1.471260	 0.771124	 0.692268
C	 -3.929439	 0.327058	 -0.513754
H	 -2.602018	 -1.078713	 -1.452852
H	 -2.785516	 -1.319284	 0.261597
H	 -3.869651	 1.082793	 -1.291534
H	 -4.823196	 -0.262474	 -0.692438
H	 -4.054795	 0.840008	 0.435355
C	 3.452279	 -0.082609	 0.000533
H	 3.583069	 0.529321	 -0.880332
H	 4.163299	 -0.894027	 0.001117
H	 3.582335	 0.529955	 0.881077

	symmetry c1
}
set optking {
	frozen_dihedral = ("
		9 5 8 12,
		1 2 3 6,
		9 5 3 6
	")
}

ee = energy('scf')
oeprop('DIPOLE', 'QUADRUPOLE', 'MULLIKEN_CHARGES')
f=open( 'psi4out.xyz', 'w' )
f.write( "20  " )
f.write( str(ee) + "\n" )
f.write( MOL.save_string_xyz() )
f.close()
--------------------------------------------------------------------------

    Molecular point group: c1

    Geometry (in Angstrom), charge = 0, multiplicity = 1:

       Center              X                  Y                   Z               Mass
    ------------   -----------------  -----------------  -----------------  -----------------
           O          1.196610718295     1.283615239863     0.337733709532    15.994914619560
           C          1.113243718295     0.110463239863     0.165089709532    12.000000000000
           C         -0.165862281705    -0.652480760137    -0.079242290468    12.000000000000
           O          2.163808718295    -0.700269760137     0.165493709532    15.994914619560
           C         -1.407770281705     0.233470239863    -0.089169290468    12.000000000000
           H         -0.052863281705    -1.182506760137    -1.021079290468     1.007825032070
           H         -0.236644281705    -1.421091760137     0.685598709532     1.007825032070
           C         -2.688899281705    -0.564061760137    -0.338198290468    12.000000000000
           H         -1.296296281705     0.998305239863    -0.851471290468     1.007825032070
           H         -1.480075281705     0.759783239863     0.857545709532     1.007825032070
           C         -3.938254281705     0.315717239863    -0.348476290468    12.000000000000
           H         -2.610833281705    -1.090053760137    -1.287574290468     1.007825032070
           H         -2.794331281705    -1.330624760137     0.426874709532     1.007825032070
           H         -3.878466281705     1.071452239863    -1.126256290468     1.007825032070
           H         -4.832011281705    -0.273814760137    -0.527160290468     1.007825032070
           H         -4.063610281705     0.828667239863     0.600632709532     1.007825032070
           C          3.443463718295    -0.093949760137     0.165810709532    12.000000000000
           H          3.574253718295     0.517980239863    -0.715054290468     1.007825032070
           H          4.154483718295    -0.905367760137     0.166394709532     1.007825032070
           H          3.573519718295     0.518614239863     1.046354709532     1.007825032070

  Charge       = 0
  Multiplicity = 1
  Basis Set: 6-31G*
  Basis Set:

    Orbital Energies (a.u.)
    -----------------------

    Doubly Occupied:

       1A    -20.603202     2A    -20.545730     3A    -11.372468
       4A    -11.281216     5A    -11.235756     6A    -11.220342
       7A    -11.219357     8A    -11.210681     9A     -1.469292
      10A     -1.362953    11A     -1.088767    12A     -1.024354
      13A     -0.969253    14A     -0.886053    15A     -0.804081
      16A     -0.767636    17A     -0.696837    18A     -0.683627
      19A     -0.672018    20A     -0.646083    21A     -0.597834
      22A     -0.592101    23A     -0.579145    24A     -0.540094
      25A     -0.537122    26A     -0.522390    27A     -0.500733
      28A     -0.478354    29A     -0.473700    30A     -0.470599
      31A     -0.455588    32A     -0.436747

  @DF-RHF Final Energy:  -383.94093952303098

   => Energetics <=

    Nuclear Repulsion Energy =            381.0802849700493766
    One-Electron Energy =               -1278.1544115843485088
    Two-Electron Energy =                 513.1331870912681552
    DFT Exchange-Correlation Energy =       0.0000000000000000
    Empirical Dispersion Energy =           0.0000000000000000
    PCM Polarization Energy =               0.0000000000000000
    EFP Energy =                            0.0000000000000000
    Total Energy =                       -383.9409395230309201

  Mulliken Charges: (a.u.)
   Center  Symbol    Alpha    Beta     Spin     Total
       1     O     4.28540  4.28540  0.00000 -0.57081
       2     C     2.60513  2.60513  0.00000  0.78973
       3     C     3.20833  3.20833  0.00000 -0.41666
       4     O     4.30738  4.30738  0.00000 -0.61475
       5     C     3.15115  3.15115  0.00000 -0.30229
       6     H     0.40117  0.40117  0.00000  0.19767
       7     H     0.40026  0.40026  0.00000  0.19947
       8     C     3.15422  3.15422  0.00000 -0.30845
       9     H     0.41215  0.41215  0.00000  0.17570
      10     H     0.41178  0.41178  0.00000  0.17644
      11     C     3.23931  3.23931  0.00000 -0.47862
      12     H     0.42307  0.42307  0.00000  0.15387
      13     H     0.42286  0.42286  0.00000  0.15429
      14     H     0.42002  0.42002  0.00000  0.15996
      15     H     0.41874  0.41874  0.00000  0.16253
      16     H     0.41990  0.41990  0.00000  0.16020
      17     C     3.09278  3.09278  0.00000 -0.18557
      18     H     0.41132  0.41132  0.00000  0.17737
      19     H     0.40828  0.40828  0.00000  0.18344
      20     H     0.40676  0.40676  0.00000  0.18648

   Total alpha = 32.00000, Total beta = 32.00000, Total charge =  0.00000
