  ==> Input File <==

--------------------------------------------------------------------------
set {
	reference rhf
	basis 6-31G*
}

set_num_threads( 1 )
memory 2 gb

molecule MOL {
0 1

O	 0.794480	 0.044905	 -0.759031
C	 1.705091	 0.115954	 0.001797
C	 1.867376	 1.156633	 1.082777
O	 2.721346	 -0.737485	 -0.000216
C	 0.722804	 2.164240	 1.131010
H	 1.968474	 0.630026	 2.027859
H	 2.820595	 1.651167	 0.916857
C	 0.912394	 3.205572	 2.234978
H	 -0.213272	 1.635214	 1.279612
H	 0.640385	 2.658216	 0.167941
C	 -0.227277	 4.223908	 2.298236
H	 0.997965	 2.703768	 3.197717
H	 1.853849	 3.730984	 2.081724
C	 -0.036680	 5.264838	 3.400683
H	 -1.168180	 3.700820	 2.453868
H	 -0.313449	 4.726633	 1.337518
H	 0.018406	 4.795019	 4.378666
H	 -0.859988	 5.972118	 3.419891
H	 0.880242	 5.828709	 3.253670
C	 4.024888	 -0.184556	 -0.001949
H	 4.179030	 0.422472	 -0.882452
H	 4.701782	 -1.024608	 -0.003642
H	 4.181981	 0.421185	 0.878906

	symmetry c1
}
set optking {
	frozen_dihedral = ("
		15 11 8 12,
		9 5 8 12,
		1 2 3 6,
		9 5 3 6
	")
}

ee = energy('scf')
oeprop('DIPOLE', 'QUADRUPOLE', 'MULLIKEN_CHARGES')
f=open( 'psi4out.xyz', 'w' )
f.write( "23  " )
f.write( str(ee) + "\n" )
f.write( MOL.save_string_xyz() )
f.close()
--------------------------------------------------------------------------

    Molecular point group: c1

    Geometry (in Angstrom), charge = 0, multiplicity = 1:

       Center              X                  Y                   Z               Mass
    ------------   -----------------  -----------------  -----------------  -----------------
           O         -0.617520325832    -1.634036317805    -1.791520204209    15.994914619560
           C          0.293090674168    -1.562987317805    -1.030692204209    12.000000000000
           C          0.455375674168    -0.522308317805     0.050287795791    12.000000000000
           O          1.309345674168    -2.416426317805    -1.032705204209    15.994914619560
           C         -0.689196325832     0.485298682195     0.098520795791    12.000000000000
           H          0.556473674168    -1.048915317805     0.995369795791     1.007825032070
           H          1.408594674168    -0.027774317805    -0.115632204209     1.007825032070
           C         -0.499606325832     1.526630682195     1.202488795791    12.000000000000
           H         -1.625272325832    -0.043727317805     0.247122795791     1.007825032070
           H         -0.771615325832     0.979274682195    -0.864548204209     1.007825032070
           C         -1.639277325832     2.544966682195     1.265746795791    12.000000000000
           H         -0.414035325832     1.024826682195     2.165227795791     1.007825032070
           H          0.441848674168     2.052042682195     1.049234795791     1.007825032070
           C         -1.448680325832     3.585896682195     2.368193795791    12.000000000000
           H         -2.580180325832     2.021878682195     1.421378795791     1.007825032070
           H         -1.725449325832     3.047691682195     0.305028795791     1.007825032070
           H         -1.393594325832     3.116077682195     3.346176795791     1.007825032070
           H         -2.271988325832     4.293176682195     2.387401795791     1.007825032070
           H         -0.531758325832     4.149767682195     2.221180795791     1.007825032070
           C          2.612887674168    -1.863497317805    -1.034438204209    12.000000000000
           H          2.767029674168    -1.256469317805    -1.914941204209     1.007825032070
           H          3.289781674168    -2.703549317805    -1.036131204209     1.007825032070
           H          2.769980674168    -1.257756317805    -0.153583204209     1.007825032070

  Charge       = 0
  Multiplicity = 1
  Basis Set: 6-31G*
  Basis Set:

    Orbital Energies (a.u.)
    -----------------------

    Doubly Occupied:

       1A    -20.595901     2A    -20.551277     3A    -11.374273
       4A    -11.297148     5A    -11.239302     6A    -11.222137
       7A    -11.220889     8A    -11.218778     9A    -11.211815
      10A     -1.465481    11A     -1.369460    12A     -1.095574
      13A     -1.041897    14A     -0.987261    15A     -0.953156
      16A     -0.855439    17A     -0.798838    18A     -0.766734
      19A     -0.698844    20A     -0.684153    21A     -0.680299
      22A     -0.654253    23A     -0.622663    24A     -0.604166
      25A     -0.581579    26A     -0.566108    27A     -0.560823
      28A     -0.543686    29A     -0.512260    30A     -0.504132
      31A     -0.485712    32A     -0.474577    33A     -0.469863
      34A     -0.467696    35A     -0.453172    36A     -0.429192

  @DF-RHF Final Energy:  -422.95029960865321

   => Energetics <=

    Nuclear Repulsion Energy =            456.9130424923340001
    One-Electron Energy =               -1481.2095606994928403
    Two-Electron Energy =                 601.3462185985051747
    DFT Exchange-Correlation Energy =       0.0000000000000000
    Empirical Dispersion Energy =           0.0000000000000000
    PCM Polarization Energy =               0.0000000000000000
    EFP Energy =                            0.0000000000000000
    Total Energy =                       -422.9502996086537223

  Mulliken Charges: (a.u.)
   Center  Symbol    Alpha    Beta     Spin     Total
       1     O     4.26298  4.26298  0.00000 -0.52597
       2     C     2.60161  2.60161  0.00000  0.79677
       3     C     3.23251  3.23251  0.00000 -0.46502
       4     O     4.30362  4.30362  0.00000 -0.60725
       5     C     3.15002  3.15002  0.00000 -0.30004
       6     H     0.39877  0.39877  0.00000  0.20246
       7     H     0.40555  0.40555  0.00000  0.18890
       8     C     3.15307  3.15307  0.00000 -0.30614
       9     H     0.40969  0.40969  0.00000  0.18061
      10     H     0.41187  0.41187  0.00000  0.17627
      11     C     3.15176  3.15176  0.00000 -0.30353
      12     H     0.42420  0.42420  0.00000  0.15160
      13     H     0.42578  0.42578  0.00000  0.14843
      14     C     3.23964  3.23964  0.00000 -0.47927
      15     H     0.42052  0.42052  0.00000  0.15896
      16     H     0.42118  0.42118  0.00000  0.15765
      17     H     0.42172  0.42172  0.00000  0.15655
      18     H     0.41795  0.41795  0.00000  0.16411
      19     H     0.42222  0.42222  0.00000  0.15556
      20     C     3.10081  3.10081  0.00000 -0.20163
      21     H     0.41134  0.41134  0.00000  0.17731
      22     H     0.39833  0.39833  0.00000  0.20334
      23     H     0.41484  0.41484  0.00000  0.17031

   Total alpha = 36.00000, Total beta = 36.00000, Total charge = -0.00000
