  ==> Input File <==

--------------------------------------------------------------------------
set {
	reference rhf
	basis 6-31G*
}

set_num_threads( 4 )
memory 2 gb

molecule MOL {
0 1

H	 0.785968	 1.760050	 6.608742
C	 0.296245	 0.858654	 6.253525
C	 -0.320365	 1.072908	 4.871837
H	 1.038545	 0.066331	 6.229949
H	 -0.459604	 0.583000	 6.983941
C	 -1.025766	 -0.178189	 4.343652
H	 0.456283	 1.371574	 4.175262
H	 -1.033284	 1.894576	 4.919824
C	 -1.668654	 0.011383	 2.969598
H	 -0.319605	 -0.999346	 4.291886
H	 -1.802094	 -0.471786	 5.046615
C	 -0.674796	 0.129230	 1.823473
H	 -2.305454	 -0.841849	 2.741015
H	 -2.325749	 0.878201	 2.964192
C	 -1.181045	 0.701995	 0.511084
O	 0.458291	 -0.230379	 1.938367
C	 -2.285934	 -0.139295	 -0.145128
H	 -0.326952	 0.780214	 -0.150823
H	 -1.554788	 1.707765	 0.693916
C	 -3.651768	 0.085446	 0.506485
H	 -2.346596	 0.110469	 -1.202272
H	 -2.034737	 -1.195320	 -0.088721
C	 -4.759797	 -0.746382	 -0.137905
H	 -3.908762	 1.140117	 0.445781
H	 -3.588286	 -0.154158	 1.565709
H	 -4.868882	 -0.505166	 -1.191300
H	 -4.548009	 -1.809175	 -0.062213
H	 -5.715422	 -0.564821	 0.343442

	symmetry c1
}
set optking {
	frozen_dihedral = ("
		12 15 17 21
	")
}

ee = optimize('scf')
oeprop('DIPOLE', 'QUADRUPOLE', 'MULLIKEN_CHARGES')
f=open( 'psi4out.xyz', 'w' )
f.write( "28  " )
f.write( str(ee) + "\n" )
f.write( MOL.save_string_xyz() )
f.close()
--------------------------------------------------------------------------

    Molecular point group: c1
  Charge       = 0
  Multiplicity = 1
  Basis Set: 6-31G*
  Basis Set:
  @DF-RHF Final Energy:  -426.16037842229957
    Total Energy =                       -426.1603784222994591
    Molecular point group: c1
  Basis Set: 6-31G*
  Basis Set:
  Basis Set: 6-31G*
  Basis Set:
  @DF-RHF Final Energy:  -426.16434621400163
    Total Energy =                       -426.1643462140018528
  Basis Set: 6-31G*
  Basis Set:
  Basis Set: 6-31G*
  Basis Set:
  @DF-RHF Final Energy:  -426.16348921380700
    Total Energy =                       -426.1634892138065425
  Basis Set: 6-31G*
  Basis Set:
  Basis Set: 6-31G*
  Basis Set:
  @DF-RHF Final Energy:  -426.16459547068962
    Total Energy =                       -426.1645954706896191
  Basis Set: 6-31G*
  Basis Set:
  @DF-RHF Final Energy:  -426.16504579269611
    Total Energy =                       -426.1650457926966737
  @DF-RHF Final Energy:  -426.16527159949408
    Total Energy =                       -426.1652715994939626
  @DF-RHF Final Energy:  -426.16550064754426
    Total Energy =                       -426.1655006475441496
  @DF-RHF Final Energy:  -426.16574122012264
    Total Energy =                       -426.1657412201224133
  @DF-RHF Final Energy:  -426.16620187603746
    Total Energy =                       -426.1662018760373485
  @DF-RHF Final Energy:  -426.16538749961808
    Total Energy =                       -426.1653874996183049
  @DF-RHF Final Energy:  -426.16710745676289
    Total Energy =                       -426.1671074567625510
  @DF-RHF Final Energy:  -426.16860555368521
    Total Energy =                       -426.1686055536852109
  @DF-RHF Final Energy:  -426.16976126433644
    Total Energy =                       -426.1697612643362163
  @DF-RHF Final Energy:  -426.17038542043827
    Total Energy =                       -426.1703854204388335
  @DF-RHF Final Energy:  -426.17084242344220
    Total Energy =                       -426.1708424234423092
  @DF-RHF Final Energy:  -426.17092809171834
    Total Energy =                       -426.1709280917182241
  @DF-RHF Final Energy:  -426.17105630682454
    Total Energy =                       -426.1710563068245392
  @DF-RHF Final Energy:  -426.17108989526321
    Total Energy =                       -426.1710898952637763
  Basis Set: 6-31G*
  Basis Set:
  @DF-RHF Final Energy:  -426.17109627112359
    Total Energy =                       -426.1710962711233606
  Basis Set: 6-31G*
  Basis Set:
  Basis Set: 6-31G*
  Basis Set:
  @DF-RHF Final Energy:  -426.17109861271911
    Total Energy =                       -426.1710986127196747
  Basis Set: 6-31G*
  Basis Set:
  Basis Set: 6-31G*
  Basis Set:
  @DF-RHF Final Energy:  -426.17110026546459
    Total Energy =                       -426.1711002654640197
  Basis Set: 6-31G*
  Basis Set:
  Charge       = 0
  Multiplicity = 1
  Basis Set: 6-31G*
  Basis Set:

    Orbital Energies (a.u.)
    -----------------------

    Doubly Occupied:

       1A    -20.550795     2A    -11.325011     3A    -11.231412
       4A    -11.231329     5A    -11.217445     6A    -11.216622
       7A    -11.213892     8A    -11.213171     9A    -11.206511
      10A    -11.206411    11A     -1.396377    12A     -1.087609
      13A     -1.076452    14A     -1.021255    15A     -0.989789
      16A     -0.909981    17A     -0.865062    18A     -0.807515
      19A     -0.789746    20A     -0.723017    21A     -0.677363
      22A     -0.635886    23A     -0.633667    24A     -0.613214
      25A     -0.604885    26A     -0.588968    27A     -0.577552
      28A     -0.573548    29A     -0.539178    30A     -0.525741
      31A     -0.519015    32A     -0.511051    33A     -0.497559
      34A     -0.479364    35A     -0.470257    36A     -0.467589
      37A     -0.466956    38A     -0.458350    39A     -0.457462
      40A     -0.395845

  @DF-RHF Final Energy:  -426.17110036857036

   => Energetics <=

    Nuclear Repulsion Energy =            537.4036388677715195
    One-Electron Energy =               -1643.2037761099954878
    Two-Electron Energy =                 679.6290368736533765
    DFT Exchange-Correlation Energy =       0.0000000000000000
    Empirical Dispersion Energy =           0.0000000000000000
    PCM Polarization Energy =               0.0000000000000000
    EFP Energy =                            0.0000000000000000
    Total Energy =                       -426.1711003685707055
    Molecular point group: c1
  Basis Set: 6-31G*
  Basis Set:

  -Total Gradient:
     Atom            X                  Y                   Z
    ------   -----------------  -----------------  -----------------
       1       -0.000001161386    -0.000001956215    -0.000001983182
       2        0.000000358901    -0.000002195625     0.000000396017
       3       -0.000000001317    -0.000000838338    -0.000003845538
       4       -0.000000962425    -0.000001560205     0.000002516277
       5        0.000001663976     0.000000752464     0.000000372216
       6        0.000006628621    -0.000005934437    -0.000001376675
       7       -0.000002113348     0.000005028672    -0.000000253798
       8        0.000000906760     0.000001752962     0.000004657093
       9       -0.000001180719     0.000011638677     0.000001081826
      10        0.000000135262    -0.000001401935     0.000004977582
      11       -0.000000367526     0.000002956679    -0.000003390890
      12        0.001253972761     0.000070126409    -0.000327457661
      13       -0.000004743568    -0.000001947086     0.000002385246
      14       -0.000001444646    -0.000006734009     0.000005954482
      15       -0.001363742910    -0.000195384431     0.000423630965
      16       -0.000001676483     0.000005703778     0.000014499818
      17       -0.001556396736     0.000490780421    -0.000083749615
      18       -0.000002134116    -0.000005774090     0.000001078741
      19       -0.000006015121     0.000003181377    -0.000002547448
      20       -0.000003868965    -0.000001556865     0.000001482910
      21        0.001680287342    -0.000364481797    -0.000029960247
      22       -0.000000697571    -0.000000005090    -0.000000923227
      23        0.000002139822    -0.000003721670     0.000002844833
      24        0.000001819683     0.000001255802    -0.000004811493
      25       -0.000001168438     0.000003101068    -0.000007192652
      26       -0.000000092181     0.000000199029     0.000004275025
      27        0.000001139589    -0.000001136628    -0.000003335696
      28       -0.000001285261    -0.000001848914     0.000000675086

  **** Optimization is complete! (in 22 steps) ****
    Final optimized geometry and variables:
    Molecular point group: c1

    Geometry (in Angstrom), charge = 0, multiplicity = 1:

    H            3.857025743962     0.024743327122     3.495085828855
    C            2.776510651672     0.014826282460     3.599286212155
    C            2.096308473612     0.578900580435     2.352604676368
    H            2.470984106841    -1.011716155430     3.778803103845
    H            2.523967407950     0.595084228844     4.482648531093
    C            0.570388434650     0.586047806863     2.468943935556
    H            2.390251443189    -0.006742897113     1.487653402165
    H            2.448305003857     1.594687611931     2.179601823884
    C           -0.136697766756     1.158575083795     1.241092088428
    H            0.214245228992    -0.423457710456     2.642528670198
    H            0.282751476906     1.176478969614     3.335859996274
    C           -0.091339361621     0.268155261144     0.009696510946
    H           -1.192724729252     1.318487077190     1.457478224962
    H            0.259595694797     2.138848181280     0.984935873513
    C           -0.458564929383     0.934871866690    -1.306432582894
    O            0.209938374390    -0.885253463790     0.074284481365
    C           -0.696496812203    -0.033796569628    -2.464626585396
    H            0.367434350413     1.605756383923    -1.541262078083
    H           -1.319835328012     1.580669298002    -1.148300459521
    C           -2.058523800334    -0.727850301734    -2.412290482195
    H           -0.597821374549     0.510674664344    -3.400722592591
    H            0.089419367389    -0.780906585001    -2.459088852106
    C           -2.267401639899    -1.702631301103    -3.570159720659
    H           -2.846782611463     0.022974228174    -2.426730748038
    H           -2.152761351426    -1.262262438964    -1.471600277854
    H           -2.202851283034    -1.194533639035    -4.528514609296
    H           -1.516068309799    -2.486612270935    -3.559587478171
    H           -3.241974680233    -2.177387193101    -3.512735034557

  Mulliken Charges: (a.u.)
   Center  Symbol    Alpha    Beta     Spin     Total
       1     H     0.41924  0.41924  0.00000  0.16153
       2     C     3.24012  3.24012  0.00000 -0.48025
       3     C     3.15655  3.15655  0.00000 -0.31311
       4     H     0.41834  0.41834  0.00000  0.16332
       5     H     0.42349  0.42349  0.00000  0.15303
       6     C     3.14949  3.14949  0.00000 -0.29898
       7     H     0.41022  0.41022  0.00000  0.17956
       8     H     0.42750  0.42750  0.00000  0.14500
       9     C     3.20955  3.20955  0.00000 -0.41909
      10     H     0.40719  0.40719  0.00000  0.18562
      11     H     0.42155  0.42155  0.00000  0.15690
      12     C     2.73126  2.73126  0.00000  0.53749
      13     H     0.40441  0.40441  0.00000  0.19118
      14     H     0.41176  0.41176  0.00000  0.17648
      15     C     3.21026  3.21026  0.00000 -0.42052
      16     O     4.26977  4.26977  0.00000 -0.53955
      17     C     3.15118  3.15118  0.00000 -0.30236
      18     H     0.40483  0.40483  0.00000  0.19034
      19     H     0.41089  0.41089  0.00000  0.17823
      20     C     3.15529  3.15529  0.00000 -0.31057
      21     H     0.42144  0.42144  0.00000  0.15712
      22     H     0.40534  0.40534  0.00000  0.18932
      23     C     3.24020  3.24020  0.00000 -0.48041
      24     H     0.42692  0.42692  0.00000  0.14616
      25     H     0.41262  0.41262  0.00000  0.17475
      26     H     0.42326  0.42326  0.00000  0.15349
      27     H     0.41802  0.41802  0.00000  0.16396
      28     H     0.41931  0.41931  0.00000  0.16137

   Total alpha = 40.00000, Total beta = 40.00000, Total charge =  0.00000
