                              Psi4 1.0.54 Driver

  ==> Input File <==

--------------------------------------------------------------------------
set {
	reference rhf
	basis cc-pvtz
}

set_num_threads( 4 )
memory 2 gb

molecule MOL {
0 1

H	 -2.793143	 0.851174	 -2.144287
C	 -2.055706	 0.222438	 -1.689111
C	 -2.105997	 -0.000418	 -0.398703
H	 -1.293082	 -0.211422	 -2.305526
O	 -1.189946	 -0.765863	 0.237511
H	 -2.870725	 0.422405	 0.227027
C	 0.026572	 -0.995256	 -0.379403
C	 1.057223	 0.049888	 -0.004615
H	 -0.054361	 -1.010670	 -1.459674
H	 0.397526	 -1.952058	 -0.044198
F	 2.203233	 -0.234060	 -0.590375
F	 0.698147	 1.254887	 -0.392621
F	 1.266440	 0.094219	 1.288722

	symmetry c1
}
set optking {
	frozen_dihedral = ("
		6 3 5 7
	")
}

ee,wfn = optimize('scf', return_wfn=True)
oeprop( wfn, 'DIPOLE', 'QUADRUPOLE', 'MULLIKEN_CHARGES')
f=open( 'psi4out.xyz', 'w' )
f.write( "13  " )
f.write( str(ee) + "\n" )
f.write( MOL.save_string_xyz() )
f.close()
--------------------------------------------------------------------------

    Molecular point group: c1
  Charge       = 0
  Multiplicity = 1
  Basis Set: CC-PVTZ
  Basis Set:
  @DF-RHF Final Energy:  -527.73299100640497
    Total Energy =                       -527.7329910064047453
    Molecular point group: c1
  Basis Set: CC-PVTZ
  Basis Set:
  Basis Set: CC-PVTZ
  Basis Set:
  @DF-RHF Final Energy:  -527.62600966940749
    Total Energy =                       -527.6260096694072672
  Basis Set: CC-PVTZ
  Basis Set:
  Basis Set: CC-PVTZ
  Basis Set:
  @DF-RHF Final Energy:  -527.65569602798791
    Total Energy =                       -527.6556960279881423
  Basis Set: CC-PVTZ
  Basis Set:
  Basis Set: CC-PVTZ
  Basis Set:
  @DF-RHF Final Energy:  -527.71156136825743
    Total Energy =                       -527.7115613682572075
  Basis Set: CC-PVTZ
  Basis Set:
  @DF-RHF Final Energy:  -527.73189754109865
    Total Energy =                       -527.7318975410987605
  @DF-RHF Final Energy:  -527.73183724537591
    Total Energy =                       -527.7318372453760276
  @DF-RHF Final Energy:  -527.73847299627710
    Total Energy =                       -527.7384729962765277
  @DF-RHF Final Energy:  -527.73950850022675
    Total Energy =                       -527.7395085002265205
  @DF-RHF Final Energy:  -527.73982192762287
    Total Energy =                       -527.7398219276232112
  @DF-RHF Final Energy:  -527.73986395787915
    Total Energy =                       -527.7398639578791517
  @DF-RHF Final Energy:  -527.73988465727120
    Total Energy =                       -527.7398846572712046
  @DF-RHF Final Energy:  -527.73988879701255
    Total Energy =                       -527.7398887970123269
  @DF-RHF Final Energy:  -527.73990099341472
    Total Energy =                       -527.7399009934147216
  @DF-RHF Final Energy:  -527.73995580981989
    Total Energy =                       -527.7399558098197758
  @DF-RHF Final Energy:  -527.72214924490095
    Total Energy =                       -527.7221492449009475
  @DF-RHF Final Energy:  -527.73991825311248
    Total Energy =                       -527.7399182531122506
  @DF-RHF Final Energy:  -527.74014739951406
    Total Energy =                       -527.7401473995139440
  @DF-RHF Final Energy:  -527.74036480236543
    Total Energy =                       -527.7403648023652067
  @DF-RHF Final Energy:  -527.68639346726400
    Total Energy =                       -527.6863934672637697
  @DF-RHF Final Energy:  -527.72709513615109
    Total Energy =                       -527.7270951361509788
  @DF-RHF Final Energy:  -527.74131991999002
    Total Energy =                       -527.7413199199900191
  @DF-RHF Final Energy:  -527.68253684193701
    Total Energy =                       -527.6825368419370079
  @DF-RHF Final Energy:  -527.68402461508276
    Total Energy =                       -527.6840246150828762
  @DF-RHF Final Energy:  -527.71430023069320
    Total Energy =                       -527.7143002306934250
  @DF-RHF Final Energy:  -527.73758473373903
    Total Energy =                       -527.7375847337386858
  @DF-RHF Final Energy:  -527.74139321297491
    Total Energy =                       -527.7413932129749128
  @DF-RHF Final Energy:  -527.72609201573005
    Total Energy =                       -527.7260920157302735
  @DF-RHF Final Energy:  -527.73202624721102
    Total Energy =                       -527.7320262472110244
  @DF-RHF Final Energy:  -527.73746732018344
    Total Energy =                       -527.7374673201838959
  @DF-RHF Final Energy:  -527.74169648107011
    Total Energy =                       -527.7416964810702211
  @DF-RHF Final Energy:  -527.74328870247177
    Total Energy =                       -527.7432887024720003
  @DF-RHF Final Energy:  -527.74337272064429
    Total Energy =                       -527.7433727206440608
  @DF-RHF Final Energy:  -527.74338960691591
    Total Energy =                       -527.7433896069169350
  @DF-RHF Final Energy:  -527.74340775434223
    Total Energy =                       -527.7434077543421154
  @DF-RHF Final Energy:  -527.74341941211298
    Total Energy =                       -527.7434194121129849
  @DF-RHF Final Energy:  -527.74345726929641
    Total Energy =                       -527.7434572692965276
  Basis Set: CC-PVTZ
  Basis Set:
  @DF-RHF Final Energy:  -527.74348838485207
    Total Energy =                       -527.7434883848522986
  Basis Set: CC-PVTZ
  Basis Set:
  Basis Set: CC-PVTZ
  Basis Set:
  @DF-RHF Final Energy:  -527.74350389719996
    Total Energy =                       -527.7435038972000712
  Basis Set: CC-PVTZ
  Basis Set:
  Basis Set: CC-PVTZ
  Basis Set:
  @DF-RHF Final Energy:  -527.74350526276532
    Total Energy =                       -527.7435052627656660
  Basis Set: CC-PVTZ
  Basis Set:
  Charge       = 0
  Multiplicity = 1
  Basis Set: CC-PVTZ
  Basis Set:

    Orbital Energies (a.u.)
    -----------------------

    Doubly Occupied:

       1A    -26.339134     2A    -26.335878     3A    -26.335776
       4A    -20.607405     5A    -11.497668     6A    -11.317367
       7A    -11.305700     8A    -11.223206     9A     -1.747970
      10A     -1.643993    11A     -1.642502    12A     -1.449547
      13A     -1.087688    14A     -1.027042    15A     -0.937298
      16A     -0.846192    17A     -0.837650    18A     -0.826105
      19A     -0.781977    20A     -0.723106    21A     -0.717723
      22A     -0.706268    23A     -0.687664    24A     -0.673981
      25A     -0.662869    26A     -0.657658    27A     -0.647643
      28A     -0.581740    29A     -0.555152    30A     -0.536862
      31A     -0.516424    32A     -0.368036

  @DF-RHF Final Energy:  -527.74350530192282

   => Energetics <=

    Nuclear Repulsion Energy =            411.1153591417502753
    One-Electron Energy =               -1546.0672786804761927
    Two-Electron Energy =                 607.2084142368028097
    DFT Exchange-Correlation Energy =       0.0000000000000000
    Empirical Dispersion Energy =           0.0000000000000000
    PCM Polarization Energy =               0.0000000000000000
    EFP Energy =                            0.0000000000000000
    Total Energy =                       -527.7435053019230509
    Molecular point group: c1
  Basis Set: CC-PVTZ
  Basis Set:

  -Total Gradient:
     Atom            X                  Y                   Z
    ------   -----------------  -----------------  -----------------
       1       -0.000005784386    -0.000001594464    -0.000004696261
       2        0.000007027806     0.000011299706     0.000003471166
       3        0.001314880471     0.002480483953     0.001638849630
       4        0.000001964250    -0.000002884333    -0.000002988360
       5       -0.000367152702     0.003359477260     0.000967071970
       6       -0.001005954288    -0.003027496781    -0.001649459061
       7        0.000060604217    -0.002816556651    -0.000975229881
       8       -0.000002276049    -0.000008528903    -0.000014161186
       9       -0.000000878572     0.000008137509     0.000002412745
      10        0.000002386733     0.000001124655     0.000001491965
      11       -0.000006202640     0.000003487229     0.000008729509
      12        0.000002093671     0.000017042972     0.000026901931
      13       -0.000000708514    -0.000023992146    -0.000002394164

  **** Optimization is complete! (in 42 steps) ****
    Final optimized geometry and variables:
    Molecular point group: c1

    Geometry (in Angstrom), charge = 0, multiplicity = 1:

    H            1.974286662213     1.634375406720    -3.432079289735
    C            1.324965333950     1.406738595504    -2.611677154149
    C            1.807982809511     0.730902414888    -1.591714929975
    H            0.311968282662     1.751688736264    -2.670117079489
    O            1.157271117372     0.340776706727    -0.482009571696
    H            2.821980808024     0.383574647791    -1.573635283018
    C           -0.227501767772     0.316720210393    -0.497846639103
    C           -0.693988905401    -0.394705063923     0.749968962021
    H           -0.604953299837    -0.223640353238    -1.356936395039
    H           -0.653055067785     1.313032237564    -0.487139982756
    F           -2.012055637888    -0.427200918356     0.760970921401
    F           -0.263296233168    -1.632892415244     0.802585564187
    F           -0.300038140339     0.214484492512     1.843010894426

  Mulliken Charges: (a.u.)
   Center  Symbol    Alpha    Beta     Spin     Total
       1     H     0.42220  0.42220  0.00000  0.15559
       2     C     3.20564  3.20564  0.00000 -0.41127
       3     C     2.97901  2.97901  0.00000  0.04198
       4     H     0.42648  0.42648  0.00000  0.14703
       5     O     4.14305  4.14305  0.00000 -0.28611
       6     H     0.41086  0.41086  0.00000  0.17827
       7     C     3.00686  3.00686  0.00000 -0.01372
       8     C     2.66698  2.66698  0.00000  0.66604
       9     H     0.45448  0.45448  0.00000  0.09103
      10     H     0.45556  0.45556  0.00000  0.08888
      11     F     4.61270  4.61270  0.00000 -0.22539
      12     F     4.60821  4.60821  0.00000 -0.21642
      13     F     4.60796  4.60796  0.00000 -0.21591

   Total alpha = 32.00000, Total beta = 32.00000, Total charge = -0.00000

*** Psi4 exiting successfully. Buy a developer a beer!
