                              Psi4 1.0.54 Driver

  ==> Input File <==

--------------------------------------------------------------------------
set {
	reference rhf
	basis cc-pvtz
}

set_num_threads( 4 )
memory 2 gb

molecule MOL {
0 1

H	 -2.510522	 1.684322	 1.929330
C	 -2.050704	 0.722807	 2.145989
O	 -0.771730	 0.639191	 1.612346
H	 -1.970091	 0.609606	 3.217239
H	 -2.697641	 -0.062592	 1.759330
C	 -0.718530	 0.758693	 0.228682
C	 0.718529	 0.758687	 -0.228709
H	 -1.238809	 -0.075210	 -0.242365
H	 -1.197359	 1.679663	 -0.096844
O	 1.401606	 -0.295166	 0.366636
H	 0.748705	 0.673477	 -1.312803
H	 1.176496	 1.708671	 0.046552
C	 2.714315	 -0.441627	 -0.061017
H	 2.765292	 -0.641548	 -1.128869
H	 3.305661	 0.447341	 0.150952
H	 3.143725	 -1.278506	 0.470147

	symmetry c1
}
set optking {
	frozen_dihedral = ("
		3 6 7 11
	")
}

ee,wfn = optimize('scf', return_wfn=True)
oeprop( wfn, 'DIPOLE', 'QUADRUPOLE', 'MULLIKEN_CHARGES')
f=open( 'psi4out.xyz', 'w' )
f.write( "16  " )
f.write( str(ee) + "\n" )
f.write( MOL.save_string_xyz() )
f.close()
--------------------------------------------------------------------------

    Molecular point group: c1
  Charge       = 0
  Multiplicity = 1
  Basis Set: CC-PVTZ
  Basis Set:
  @DF-RHF Final Energy:  -307.09470893714911
    Total Energy =                       -307.0947089371489938
    Molecular point group: c1
  Basis Set: CC-PVTZ
  Basis Set:
  Basis Set: CC-PVTZ
  Basis Set:
  @DF-RHF Final Energy:  -307.09518121756128
    Total Energy =                       -307.0951812175612758
  Basis Set: CC-PVTZ
  Basis Set:
  Basis Set: CC-PVTZ
  Basis Set:
  @DF-RHF Final Energy:  -307.09534380246532
    Total Energy =                       -307.0953438024655497
  Basis Set: CC-PVTZ
  Basis Set:
  Basis Set: CC-PVTZ
  Basis Set:
  @DF-RHF Final Energy:  -307.09534806123850
    Total Energy =                       -307.0953480612383828
  Basis Set: CC-PVTZ
  Basis Set:
  Charge       = 0
  Multiplicity = 1
  Basis Set: CC-PVTZ
  Basis Set:

    Orbital Energies (a.u.)
    -----------------------

    Doubly Occupied:

       1A    -20.546722     2A    -20.545823     3A    -11.268658
       4A    -11.267974     5A    -11.261112     6A    -11.260760
       7A     -1.392303     8A     -1.372655     9A     -1.030952
      10A     -0.935520    11A     -0.894717    12A     -0.821168
      13A     -0.689331    14A     -0.679567    15A     -0.659862
      16A     -0.642200    17A     -0.625102    18A     -0.596072
      19A     -0.562873    20A     -0.527722    21A     -0.509038
      22A     -0.476278    23A     -0.466669    24A     -0.417059
      25A     -0.416116

  @DF-RHF Final Energy:  -307.09534834009872

   => Energetics <=

    Nuclear Repulsion Energy =            259.9308476544077280
    One-Electron Energy =                -934.3198827753119531
    Two-Electron Energy =                 367.2936867808056149
    DFT Exchange-Correlation Energy =       0.0000000000000000
    Empirical Dispersion Energy =           0.0000000000000000
    PCM Polarization Energy =               0.0000000000000000
    EFP Energy =                            0.0000000000000000
    Total Energy =                       -307.0953483400986670
    Molecular point group: c1
  Basis Set: CC-PVTZ
  Basis Set:

  -Total Gradient:
     Atom            X                  Y                   Z
    ------   -----------------  -----------------  -----------------
       1        0.000018436655    -0.000009348828    -0.000003198466
       2       -0.000021266748    -0.000003031065     0.000023943611
       3       -0.000157136829    -0.005127300130    -0.000209545326
       4       -0.000011699477     0.000000511477     0.000011292076
       5        0.000006205689     0.000003891578    -0.000002659723
       6        0.000234409762     0.005365799783     0.000412132517
       7       -0.000257085681     0.006156292088    -0.001019958430
       8        0.000001752113     0.000000389745     0.000013765905
       9        0.000005701272    -0.000003566246     0.000006379612
      10       -0.000023850779     0.000008109901    -0.000015553539
      11        0.000187535857    -0.006385018922     0.000793709192
      12       -0.000003046558    -0.000007015463    -0.000010397582
      13        0.000042405490     0.000003240051    -0.000018868845
      14       -0.000008011806     0.000001744176     0.000025388202
      15       -0.000007574382    -0.000006758992    -0.000003625547
      16       -0.000006774580     0.000002060847    -0.000002803654

  **** Optimization is complete! (in 5 steps) ****
    Final optimized geometry and variables:
    Molecular point group: c1

    Geometry (in Angstrom), charge = 0, multiplicity = 1:

    H           -2.816768459394     1.226689165896     1.224782391904
    C           -2.255588582756     0.330856049901     1.484259053254
    O           -0.974978338021     0.355936716114     0.949392280323
    H           -2.163474499584     0.278091090185     2.559193886244
    H           -2.814083242316    -0.536246939775     1.138099646483
    C           -0.937556999193     0.413694590073    -0.435625290454
    C            0.492942574542     0.393535920574    -0.926586531834
    H           -1.468087176912    -0.440356488443    -0.854376537307
    H           -1.422156669747     1.317306599606    -0.805376600354
    O            1.167997913886    -0.680676543556    -0.358542876837
    H            0.474230247435     0.259668406228    -2.008195344432
    H            0.993359955861     1.329362840104    -0.688422007409
    C            2.496689926903    -0.785940864356    -0.744842779256
    H            2.592324900199    -0.921863967000    -1.820784227987
    H            3.066432530286     0.095685722693    -0.458922625764
    H            2.918057058805    -1.647418186357    -0.247687485094

  Mulliken Charges: (a.u.)
   Center  Symbol    Alpha    Beta     Spin     Total
       1     H     0.47352  0.47352  0.00000  0.05295
       2     C     3.03139  3.03139  0.00000 -0.06277
       3     O     4.16484  4.16484  0.00000 -0.32968
       4     H     0.44588  0.44588  0.00000  0.10824
       5     H     0.47158  0.47158  0.00000  0.05685
       6     C     2.96289  2.96289  0.00000  0.07423
       7     C     2.96427  2.96427  0.00000  0.07146
       8     H     0.47368  0.47368  0.00000  0.05264
       9     H     0.47593  0.47593  0.00000  0.04813
      10     O     4.16549  4.16549  0.00000 -0.33098
      11     H     0.47605  0.47605  0.00000  0.04790
      12     H     0.47130  0.47130  0.00000  0.05740
      13     C     3.03125  3.03125  0.00000 -0.06250
      14     H     0.47428  0.47428  0.00000  0.05145
      15     H     0.47163  0.47163  0.00000  0.05674
      16     H     0.44603  0.44603  0.00000  0.10794

   Total alpha = 25.00000, Total beta = 25.00000, Total charge =  0.00000

*** Psi4 exiting successfully. Buy a developer a beer!
