  ==> Input File <==

--------------------------------------------------------------------------
set {
	reference rhf
	basis 6-31G*
}

set_num_threads( 4 )
memory 2 gb

molecule MOL {
0 1

O	 2.115840	 -0.145596	 -1.892776
C	 2.057554	 -0.587068	 -0.790612
C	 1.245376	 -0.013843	 0.345420
O	 2.718989	 -1.672140	 -0.407529
C	 0.455112	 1.231400	 -0.050772
H	 0.599840	 -0.807315	 0.707190
H	 1.934222	 0.202173	 1.158146
C	 -0.998893	 1.219485	 0.433193
H	 0.482531	 1.345121	 -1.130325
H	 0.957290	 2.103070	 0.354729
C	 -1.883438	 0.145884	 -0.207175
H	 -1.431207	 2.195402	 0.224832
H	 -1.019646	 1.105716	 1.516076
C	 -3.347647	 0.245583	 0.225435
H	 -1.822183	 0.231698	 -1.291012
H	 -1.510341	 -0.844814	 0.042401
C	 -4.239992	 -0.825570	 -0.404234
H	 -3.732888	 1.230466	 -0.033079
H	 -3.408585	 0.170602	 1.310038
C	 -5.701275	 -0.716658	 0.029921
H	 -4.179496	 -0.752714	 -1.488058
H	 -3.859041	 -1.810759	 -0.143352
H	 -6.308102	 -1.488908	 -0.432678
H	 -6.122175	 0.245478	 -0.248167
H	 -5.799072	 -0.820114	 1.106957
C	 3.524934	 -2.310506	 -1.381093
H	 2.923095	 -2.640989	 -2.215404
H	 3.972731	 -3.157191	 -0.884495
H	 4.291260	 -1.638659	 -1.740125

	symmetry c1
}
set optking {
	frozen_dihedral = ("
		6 3 5 9
	")
}

ee = optimize('scf')
oeprop('DIPOLE', 'QUADRUPOLE', 'MULLIKEN_CHARGES')
f=open( 'psi4out.xyz', 'w' )
f.write( "29  " )
f.write( str(ee) + "\n" )
f.write( MOL.save_string_xyz() )
f.close()
--------------------------------------------------------------------------

    Molecular point group: c1
  Charge       = 0
  Multiplicity = 1
  Basis Set: 6-31G*
  Basis Set:
  @DF-RHF Final Energy:  -501.03961272658819
    Total Energy =                       -501.0396127265883024
    Molecular point group: c1
  Basis Set: 6-31G*
  Basis Set:
  Basis Set: 6-31G*
  Basis Set:
  @DF-RHF Final Energy:  -501.03986799409142
    Total Energy =                       -501.0398679940910824
  Basis Set: 6-31G*
  Basis Set:
  Basis Set: 6-31G*
  Basis Set:
  @DF-RHF Final Energy:  -501.04015631251502
    Total Energy =                       -501.0401563125150233
  Basis Set: 6-31G*
  Basis Set:
  Basis Set: 6-31G*
  Basis Set:
  @DF-RHF Final Energy:  -501.03995202143460
    Total Energy =                       -501.0399520214344875
  Basis Set: 6-31G*
  Basis Set:
  Basis Set: 6-31G*
  Basis Set:
  @DF-RHF Final Energy:  -501.03998254934538
    Total Energy =                       -501.0399825493450408
  Basis Set: 6-31G*
  Basis Set:
  Basis Set: 6-31G*
  Basis Set:
  @DF-RHF Final Energy:  -501.04017192695164
    Total Energy =                       -501.0401719269514160
  Basis Set: 6-31G*
  Basis Set:
  Basis Set: 6-31G*
  Basis Set:
  @DF-RHF Final Energy:  -501.04018912032666
    Total Energy =                       -501.0401891203264313
  Basis Set: 6-31G*
  Basis Set:
  Charge       = 0
  Multiplicity = 1
  Basis Set: 6-31G*
  Basis Set:

    Orbital Energies (a.u.)
    -----------------------

    Doubly Occupied:

       1A    -20.603581     2A    -20.545827     3A    -11.372762
       4A    -11.280806     5A    -11.234618     6A    -11.217537
       7A    -11.216834     8A    -11.214485     9A    -11.213978
      10A    -11.213077    11A    -11.208018    12A     -1.469517
      13A     -1.362874    14A     -1.096108    15A     -1.064919
      16A     -1.018894    17A     -0.976439    18A     -0.927810
      19A     -0.860957    20A     -0.799083    21A     -0.788794
      22A     -0.764315    23A     -0.701973    24A     -0.681677
      25A     -0.672836    26A     -0.649007    27A     -0.625170
      28A     -0.605961    29A     -0.594046    30A     -0.579702
      31A     -0.566323    32A     -0.546340    33A     -0.536258
      34A     -0.529314    35A     -0.516207    36A     -0.503059
      37A     -0.494971    38A     -0.477532    39A     -0.468748
      40A     -0.460499    41A     -0.459590    42A     -0.457152
      43A     -0.439814    44A     -0.434861

  @DF-RHF Final Energy:  -501.04018933331861

   => Energetics <=

    Nuclear Repulsion Energy =            617.4528067598445205
    One-Electron Energy =               -1906.0814473209725293
    Two-Electron Energy =                 787.5884512278096281
    DFT Exchange-Correlation Energy =       0.0000000000000000
    Empirical Dispersion Energy =           0.0000000000000000
    PCM Polarization Energy =               0.0000000000000000
    EFP Energy =                            0.0000000000000000
    Total Energy =                       -501.0401893333184944
    Molecular point group: c1
  Basis Set: 6-31G*
  Basis Set:

  -Total Gradient:
     Atom            X                  Y                   Z
    ------   -----------------  -----------------  -----------------
       1       -0.000035564871     0.000043305522     0.000040635802
       2       -0.000035504315     0.000071116255    -0.000007309484
       3        0.000028646620    -0.000638291191    -0.002120516469
       4       -0.000019002945    -0.000026038132     0.000012748863
       5       -0.001704427696    -0.001138604528     0.000416235145
       6        0.000201811107     0.000719579014     0.001697376964
       7        0.000045949702     0.000048945921     0.000013154131
       8        0.000037634931    -0.000112650292     0.000003426919
       9        0.001497625472     0.001008345161     0.000025124758
      10        0.000038342836    -0.000025123581    -0.000014073747
      11       -0.000072951752     0.000066773602    -0.000045856844
      12        0.000024448406    -0.000014785522    -0.000018688325
      13        0.000017204157     0.000008883775     0.000013237082
      14        0.000018738647    -0.000054493726     0.000010795858
      15       -0.000007119723     0.000020940253    -0.000045232310
      16       -0.000059433862     0.000037693906     0.000002606846
      17        0.000003059215    -0.000019391706     0.000021587155
      18        0.000006354261    -0.000017924203    -0.000017963417
      19        0.000008763913     0.000015753061     0.000014418242
      20       -0.000002201999     0.000001980672    -0.000005212324
      21        0.000007778333    -0.000000763205     0.000004449629
      22       -0.000005223593    -0.000007024280     0.000003751257
      23       -0.000001835381     0.000003520480    -0.000002571753
      24       -0.000001916033     0.000003517283     0.000002075326
      25        0.000001708649    -0.000001387131    -0.000004683493
      26        0.000010161987     0.000009269101     0.000003054475
      27       -0.000002192999     0.000000476823     0.000000214393
      28       -0.000000871733    -0.000001630752    -0.000001188299
      29        0.000000018649    -0.000001992577    -0.000001596377

  **** Optimization is complete! (in 8 steps) ****
    Final optimized geometry and variables:
    Molecular point group: c1

    Geometry (in Angstrom), charge = 0, multiplicity = 1:

    O            2.470013564613     0.103286706349    -1.534584869912
    C            2.415937406553    -0.275412662810    -0.409167573653
    C            1.581999732291     0.329398909049     0.695620564240
    O            3.107153814347    -1.316638745932     0.037802093226
    C            0.766783998747     1.565127229282     0.281801054645
    H            0.951202261489    -0.461461158801     1.088562608782
    H            2.264801154339     0.564739122017     1.506434034922
    C           -0.674979479423     1.564544860886     0.802788129926
    H            0.772421746299     1.653541207343    -0.797815503902
    H            1.271892175928     2.452201287097     0.651871139644
    C           -1.593363660782     0.558458565417     0.103616025080
    H           -1.088722963544     2.561464897860     0.670592925277
    H           -0.676015969721     1.377490792410     1.875736006150
    C           -3.023848711320     0.576646168178     0.645873695983
    H           -1.608002373780     0.775389871043    -0.962727125921
    H           -1.191768541939    -0.448083798111     0.201475219053
    C           -3.949713954963    -0.419990881182    -0.053904249802
    H           -3.434686745503     1.579749102940     0.543710402494
    H           -3.007778477201     0.362439205672     1.713433114311
    C           -5.377776586922    -0.392329499937     0.489786407649
    H           -3.965758319857    -0.208015532922    -1.120769261337
    H           -3.543488047939    -1.423869697085     0.050983176481
    H           -6.009493063979    -1.108864317761    -0.026114990354
    H           -5.824693631436     0.590344141728     0.367854300320
    H           -5.399148758723    -0.634820846743     1.548603633192
    C            3.936866537995    -1.985661051112    -0.894338434999
    H            3.349716627234    -2.381090510155    -1.710660450754
    H            4.406281986453    -2.788905590603    -0.348039631908
    H            4.685287326136    -1.313157226118    -1.288150397542

  Mulliken Charges: (a.u.)
   Center  Symbol    Alpha    Beta     Spin     Total
       1     O     4.28480  4.28480  0.00000 -0.56959
       2     C     2.61185  2.61185  0.00000  0.77629
       3     C     3.21044  3.21044  0.00000 -0.42088
       4     O     4.30553  4.30553  0.00000 -0.61105
       5     C     3.16248  3.16248  0.00000 -0.32496
       6     H     0.39809  0.39809  0.00000  0.20383
       7     H     0.39784  0.39784  0.00000  0.20432
       8     C     3.15782  3.15782  0.00000 -0.31564
       9     H     0.39567  0.39567  0.00000  0.20866
      10     H     0.41666  0.41666  0.00000  0.16667
      11     C     3.15339  3.15339  0.00000 -0.30677
      12     H     0.41938  0.41938  0.00000  0.16124
      13     H     0.42448  0.42448  0.00000  0.15104
      14     C     3.15044  3.15044  0.00000 -0.30089
      15     H     0.41950  0.41950  0.00000  0.16101
      16     H     0.42511  0.42511  0.00000  0.14978
      17     C     3.15144  3.15144  0.00000 -0.30289
      18     H     0.42361  0.42361  0.00000  0.15278
      19     H     0.42467  0.42467  0.00000  0.15066
      20     C     3.23932  3.23932  0.00000 -0.47864
      21     H     0.42216  0.42216  0.00000  0.15567
      22     H     0.42345  0.42345  0.00000  0.15309
      23     H     0.41930  0.41930  0.00000  0.16140
      24     H     0.42171  0.42171  0.00000  0.15659
      25     H     0.42214  0.42214  0.00000  0.15572
      26     C     3.09203  3.09203  0.00000 -0.18405
      27     H     0.40911  0.40911  0.00000  0.18179
      28     H     0.40855  0.40855  0.00000  0.18290
      29     H     0.40904  0.40904  0.00000  0.18192

   Total alpha = 44.00000, Total beta = 44.00000, Total charge =  0.00000
