                              Psi4 1.0.54 Driver

  ==> Input File <==

--------------------------------------------------------------------------
set {
	reference rhf
	basis cc-pvtz
}

set_num_threads( 4 )
memory 2 gb

molecule MOL {
0 1

H	 1.502610	 -1.791177	 0.611795
O	 0.828997	 -1.220026	 0.292285
C	 1.135873	 0.113391	 0.608264
C	 0.027642	 1.012027	 0.090274
H	 2.074957	 0.405350	 0.144961
H	 1.253496	 0.231221	 1.681922
C	 -1.138737	 0.285728	 -0.581921
H	 0.464661	 1.708096	 -0.618252
H	 -0.340737	 1.603071	 0.925246
C	 -1.933983	 -0.631436	 0.343653
H	 -0.763151	 -0.285569	 -1.422081
H	 -1.808359	 1.035291	 -0.992333
H	 -2.789188	 -1.049673	 -0.174718
H	 -1.335629	 -1.461368	 0.700418
H	 -2.305435	 -0.092167	 1.209725

	symmetry c1
}
set optking {
	frozen_dihedral = ("
		2 3 4 8
	")
}

ee,wfn = optimize('scf', return_wfn=True)
oeprop( wfn, 'DIPOLE', 'QUADRUPOLE', 'MULLIKEN_CHARGES')
f=open( 'psi4out.xyz', 'w' )
f.write( "15  " )
f.write( str(ee) + "\n" )
f.write( MOL.save_string_xyz() )
f.close()
--------------------------------------------------------------------------

    Molecular point group: c1
  Charge       = 0
  Multiplicity = 1
  Basis Set: CC-PVTZ
  Basis Set:
  @DF-RHF Final Energy:  -232.22529897792663
    Total Energy =                       -232.2252989779265135
    Molecular point group: c1
  Basis Set: CC-PVTZ
  Basis Set:
  Basis Set: CC-PVTZ
  Basis Set:
  @DF-RHF Final Energy:  -232.22837103506055
    Total Energy =                       -232.2283710350605475
  Basis Set: CC-PVTZ
  Basis Set:
  Basis Set: CC-PVTZ
  Basis Set:
  @DF-RHF Final Energy:  -232.22887710673444
    Total Energy =                       -232.2288771067345579
  Basis Set: CC-PVTZ
  Basis Set:
  Basis Set: CC-PVTZ
  Basis Set:
  @DF-RHF Final Energy:  -232.22903265637919
    Total Energy =                       -232.2290326563793315
  Basis Set: CC-PVTZ
  Basis Set:
  Basis Set: CC-PVTZ
  Basis Set:
  @DF-RHF Final Energy:  -232.22904438983522
    Total Energy =                       -232.2290443898353374
  Basis Set: CC-PVTZ
  Basis Set:
  Basis Set: CC-PVTZ
  Basis Set:
  @DF-RHF Final Energy:  -232.22904610585894
    Total Energy =                       -232.2290461058589699
  Basis Set: CC-PVTZ
  Basis Set:
  Charge       = 0
  Multiplicity = 1
  Basis Set: CC-PVTZ
  Basis Set:

    Orbital Energies (a.u.)
    -----------------------

    Doubly Occupied:

       1A    -20.547435     2A    -11.267585     3A    -11.211785
       4A    -11.205471     5A    -11.193776     6A     -1.365333
       7A     -1.058877     8A     -0.968133     9A     -0.864571
      10A     -0.775259    11A     -0.705482    12A     -0.649677
      13A     -0.608473    14A     -0.574858    15A     -0.555357
      16A     -0.530839    17A     -0.507622    18A     -0.477335
      19A     -0.463003    20A     -0.449236    21A     -0.426238

  @DF-RHF Final Energy:  -232.22904619523479

   => Energetics <=

    Nuclear Repulsion Energy =            193.0955582465237512
    One-Electron Energy =                -697.8365159557293964
    Two-Electron Energy =                 272.5119115139708583
    DFT Exchange-Correlation Energy =       0.0000000000000000
    Empirical Dispersion Energy =           0.0000000000000000
    PCM Polarization Energy =               0.0000000000000000
    EFP Energy =                            0.0000000000000000
    Total Energy =                       -232.2290461952347869
    Molecular point group: c1
  Basis Set: CC-PVTZ
  Basis Set:

  -Total Gradient:
     Atom            X                  Y                   Z
    ------   -----------------  -----------------  -----------------
       1        0.000005164043     0.000007040219    -0.000000758705
       2       -0.000917849069    -0.000308579511     0.001535535289
       3        0.001261535406     0.000743251573    -0.001639231598
       4       -0.000579327988    -0.001860061462    -0.001691402912
       5        0.000004585844    -0.000005594903     0.000001022681
       6        0.000003575761    -0.000009550957     0.000005114019
       7       -0.000008106107     0.000008190895    -0.000000499035
       8        0.000230901224     0.001432590730     0.001791060136
       9       -0.000002574416     0.000000452434     0.000001954876
      10        0.000001743844     0.000007852388     0.000008316168
      11        0.000001947062    -0.000004850904     0.000002147001
      12       -0.000005143703    -0.000000303926    -0.000002771199
      13       -0.000004410674    -0.000008459287    -0.000003465781
      14        0.000001552959    -0.000007098380    -0.000002224454
      15        0.000006405812     0.000005121091    -0.000004796485

  **** Optimization is complete! (in 7 steps) ****
    Final optimized geometry and variables:
    Molecular point group: c1

    Geometry (in Angstrom), charge = 0, multiplicity = 1:

    H            1.941278433543    -1.564241065291     0.407208530991
    O            1.194531709973    -1.079990771196     0.107505243791
    C            1.330289951208     0.269811593750     0.474226875119
    C            0.146389043371     1.113608475269    -0.045229481538
    H            2.258425658741     0.666576348698     0.074377596567
    H            1.388293937920     0.347545514276     1.555825403415
    C           -0.973461890298     0.359743304685    -0.767479732636
    H            0.537816258935     1.881145347082    -0.703460404031
    H           -0.287838861544     1.649702746540     0.793055829467
    C           -1.875191102727    -0.455763019426     0.155253267485
    H           -0.551393021178    -0.284123413740    -1.528163074675
    H           -1.580528813863     1.096606413139    -1.285008978789
    H           -2.664293002694    -0.940583746486    -0.409134906520
    H           -1.316634233023    -1.222719268208     0.673699510013
    H           -2.347352086418     0.181472927151     0.897091425036

  Mulliken Charges: (a.u.)
   Center  Symbol    Alpha    Beta     Spin     Total
       1     H     0.39820  0.39820  0.00000  0.20361
       2     O     4.19182  4.19182  0.00000 -0.38364
       3     C     2.97079  2.97079  0.00000  0.05843
       4     C     3.10892  3.10892  0.00000 -0.21784
       5     H     0.46673  0.46673  0.00000  0.06653
       6     H     0.46997  0.46997  0.00000  0.06006
       7     C     3.08280  3.08280  0.00000 -0.16559
       8     H     0.44771  0.44771  0.00000  0.10459
       9     H     0.45466  0.45466  0.00000  0.09069
      10     C     3.14910  3.14910  0.00000 -0.29821
      11     H     0.44946  0.44946  0.00000  0.10108
      12     H     0.45044  0.45044  0.00000  0.09912
      13     H     0.45117  0.45117  0.00000  0.09766
      14     H     0.44809  0.44809  0.00000  0.10383
      15     H     0.46015  0.46015  0.00000  0.07969

   Total alpha = 21.00000, Total beta = 21.00000, Total charge = -0.00000

*** Psi4 exiting successfully. Buy a developer a beer!
