  ==> Input File <==

--------------------------------------------------------------------------
set {
	reference rhf
	basis 6-31G*
}

set_num_threads( 1 )
memory 2 gb

molecule MOL {
0 1

H	 -3.607082	 0.395493	 -1.041352
C	 -2.881770	 0.909898	 -1.683950
C	 -1.933000	 1.832757	 -0.962302
O	 -2.884014	 0.721325	 -2.857060
C	 -1.220012	 1.144545	 0.209990
H	 -1.225821	 2.227690	 -1.682465
H	 -2.523617	 2.665774	 -0.582947
C	 -0.252658	 0.041456	 -0.226725
H	 -0.677324	 1.898283	 0.772709
H	 -1.961894	 0.733141	 0.892716
C	 1.180775	 0.282413	 0.250794
H	 -0.266029	 -0.034465	 -1.312038
H	 -0.597733	 -0.921000	 0.146291
C	 2.148627	 -0.814315	 -0.201312
H	 1.516199	 1.249228	 -0.115937
H	 1.192670	 0.346017	 1.338083
C	 3.580890	 -0.659131	 0.322722
H	 2.166869	 -0.852443	 -1.289387
H	 1.762857	 -1.776509	 0.128956
C	 4.324889	 0.564933	 -0.213704
H	 4.142010	 -1.551473	 0.056605
H	 3.564836	 -0.624694	 1.410140
H	 4.342616	 0.565491	 -1.300421
H	 3.866655	 1.493402	 0.110242
H	 5.353900	 0.572371	 0.132816

	symmetry c1
}
set optking {
	frozen_dihedral = ("
		6 3 5 8,
		6 3 2 4,
		12 8 11 14,
		8 11 14 18,
		20 17 14 18
	")
}

ee = energy('scf')
oeprop('DIPOLE', 'QUADRUPOLE', 'MULLIKEN_CHARGES')
f=open( 'psi4out.xyz', 'w' )
f.write( "25  " )
f.write( str(ee) + "\n" )
f.write( MOL.save_string_xyz() )
f.close()
--------------------------------------------------------------------------

    Molecular point group: c1

    Geometry (in Angstrom), charge = 0, multiplicity = 1:

       Center              X                  Y                   Z               Mass
    ------------   -----------------  -----------------  -----------------  -----------------
           H         -3.844561150913    -0.054120105464    -0.431716714620     1.007825032070
           C         -3.119249150913     0.460284894536    -1.074314714620    12.000000000000
           C         -2.170479150913     1.383143894536    -0.352666714620    12.000000000000
           O         -3.121493150913     0.271711894536    -2.247424714620    15.994914619560
           C         -1.457491150913     0.694931894536     0.819625285380    12.000000000000
           H         -1.463300150913     1.778076894536    -1.072829714620     1.007825032070
           H         -2.761096150913     2.216160894536     0.026688285380     1.007825032070
           C         -0.490137150913    -0.408157105464     0.382910285380    12.000000000000
           H         -0.914803150913     1.448669894536     1.382344285380     1.007825032070
           H         -2.199373150913     0.283527894536     1.502351285380     1.007825032070
           C          0.943295849087    -0.167200105464     0.860429285380    12.000000000000
           H         -0.503508150913    -0.484078105464    -0.702402714620     1.007825032070
           H         -0.835212150913    -1.370613105464     0.755926285380     1.007825032070
           C          1.911147849087    -1.263928105464     0.408323285380    12.000000000000
           H          1.278719849087     0.799614894536     0.493698285380     1.007825032070
           H          0.955190849087    -0.103596105464     1.947718285380     1.007825032070
           C          3.343410849087    -1.108744105464     0.932357285380    12.000000000000
           H          1.929389849087    -1.302056105464    -0.679751714620     1.007825032070
           H          1.525377849087    -2.226122105464     0.738591285380     1.007825032070
           C          4.087409849087     0.115319894536     0.395931285380    12.000000000000
           H          3.904530849087    -2.001086105464     0.666240285380     1.007825032070
           H          3.327356849087    -1.074307105464     2.019775285380     1.007825032070
           H          4.105136849087     0.115877894536    -0.690785714620     1.007825032070
           H          3.629175849087     1.043788894536     0.719877285380     1.007825032070
           H          5.116420849087     0.122757894536     0.742451285380     1.007825032070

  Charge       = 0
  Multiplicity = 1
  Basis Set: 6-31G*
  Basis Set:

    Orbital Energies (a.u.)
    -----------------------

    Doubly Occupied:

       1A    -20.562819     2A    -11.326461     3A    -11.235124
       4A    -11.233378     5A    -11.221751     6A    -11.219720
       7A    -11.217384     8A    -11.216000     9A    -11.209941
      10A     -1.402659    11A     -1.103921    12A     -1.069069
      13A     -1.012421    14A     -0.942193    15A     -0.875172
      16A     -0.821382    17A     -0.786412    18A     -0.781847
      19A     -0.664975    20A     -0.656466    21A     -0.639362
      22A     -0.621761    23A     -0.606631    24A     -0.589349
      25A     -0.577444    26A     -0.547136    27A     -0.537680
      28A     -0.522468    29A     -0.511330    30A     -0.498306
      31A     -0.487868    32A     -0.474543    33A     -0.462962
      34A     -0.458069    35A     -0.440489    36A     -0.409977

  @DF-RHF Final Energy:  -387.11659676460999

   => Energetics <=

    Nuclear Repulsion Energy =            441.3549625623455768
    One-Electron Energy =               -1399.0542304190810228
    Two-Electron Energy =                 570.5826710921256790
    DFT Exchange-Correlation Energy =       0.0000000000000000
    Empirical Dispersion Energy =           0.0000000000000000
    PCM Polarization Energy =               0.0000000000000000
    EFP Energy =                            0.0000000000000000
    Total Energy =                       -387.1165967646097670

  Mulliken Charges: (a.u.)
   Center  Symbol    Alpha    Beta     Spin     Total
       1     H     0.43219  0.43219  0.00000  0.13562
       2     C     2.82984  2.82984  0.00000  0.34032
       3     C     3.20988  3.20988  0.00000 -0.41976
       4     O     4.23809  4.23809  0.00000 -0.47618
       5     C     3.16850  3.16850  0.00000 -0.33699
       6     H     0.39989  0.39989  0.00000  0.20023
       7     H     0.40767  0.40767  0.00000  0.18465
       8     C     3.16010  3.16010  0.00000 -0.32020
       9     H     0.41020  0.41020  0.00000  0.17960
      10     H     0.41718  0.41718  0.00000  0.16564
      11     C     3.15628  3.15628  0.00000 -0.31257
      12     H     0.41233  0.41233  0.00000  0.17535
      13     H     0.41823  0.41823  0.00000  0.16354
      14     C     3.15371  3.15371  0.00000 -0.30742
      15     H     0.42053  0.42053  0.00000  0.15894
      16     H     0.42305  0.42305  0.00000  0.15390
      17     C     3.15268  3.15268  0.00000 -0.30535
      18     H     0.42182  0.42182  0.00000  0.15637
      19     H     0.42177  0.42177  0.00000  0.15647
      20     C     3.24131  3.24131  0.00000 -0.48262
      21     H     0.42017  0.42017  0.00000  0.15966
      22     H     0.42357  0.42357  0.00000  0.15285
      23     H     0.42135  0.42135  0.00000  0.15731
      24     H     0.42086  0.42086  0.00000  0.15829
      25     H     0.41882  0.41882  0.00000  0.16236

   Total alpha = 36.00000, Total beta = 36.00000, Total charge = -0.00000
