  ==> Input File <==

--------------------------------------------------------------------------
set {
	reference rhf
	basis 6-31G*
}

set_num_threads( 4 )
memory 2 gb

molecule MOL {
0 1

H	 0.013662	 2.224664	 -4.851727
C	 0.265941	 1.843642	 -3.878093
C	 -0.172623	 2.506249	 -2.741536
C	 1.028377	 0.691885	 -3.763724
H	 -0.763858	 3.399384	 -2.831639
C	 0.152159	 2.015724	 -1.489983
H	 1.367449	 0.179599	 -4.645880
C	 1.354703	 0.199029	 -2.511935
H	 -0.178522	 2.515336	 -0.599641
C	 0.916688	 0.860806	 -1.370901
H	 1.944492	 -0.691918	 -2.418748
C	 1.239129	 0.373821	 0.000060
O	 1.970282	 -0.730723	 0.000018
O	 0.881496	 0.914176	 0.999547
C	 3.377318	 -0.566646	 -0.000065
H	 3.695437	 -0.028981	 -0.881264
H	 3.789299	 -1.563704	 0.000236
H	 3.695516	 -0.028316	 0.880770

	symmetry c1
}
set optking {
	frozen_dihedral = ("
		10 12 13 15
	")
}

ee = optimize('scf')
oeprop('DIPOLE', 'QUADRUPOLE', 'MULLIKEN_CHARGES')
f=open( 'psi4out.xyz', 'w' )
f.write( "18  " )
f.write( str(ee) + "\n" )
f.write( MOL.save_string_xyz() )
f.close()
--------------------------------------------------------------------------

    Molecular point group: c1
  Charge       = 0
  Multiplicity = 1
  Basis Set: 6-31G*
  Basis Set:
  @DF-RHF Final Energy:  -457.32968063422175
    Total Energy =                       -457.3296806342219725
    Molecular point group: c1
  Basis Set: 6-31G*
  Basis Set:
  Basis Set: 6-31G*
  Basis Set:
  @DF-RHF Final Energy:  -457.33120952784390
    Total Energy =                       -457.3312095278439529
  Basis Set: 6-31G*
  Basis Set:
  Basis Set: 6-31G*
  Basis Set:
  @DF-RHF Final Energy:  -457.33033060015947
    Total Energy =                       -457.3303306001595274
  Basis Set: 6-31G*
  Basis Set:
  Basis Set: 6-31G*
  Basis Set:
  @DF-RHF Final Energy:  -457.33145118071485
    Total Energy =                       -457.3314511807147937
  Basis Set: 6-31G*
  Basis Set:
  Basis Set: 6-31G*
  Basis Set:
  @DF-RHF Final Energy:  -457.33146054468187
    Total Energy =                       -457.3314605446821588
  Basis Set: 6-31G*
  Basis Set:
  Charge       = 0
  Multiplicity = 1
  Basis Set: 6-31G*
  Basis Set:

    Orbital Energies (a.u.)
    -----------------------

    Doubly Occupied:

       1A    -20.588204     2A    -20.555691     3A    -11.379598
       4A    -11.291129     5A    -11.250354     6A    -11.250058
       7A    -11.248912     8A    -11.246357     9A    -11.242483
      10A    -11.241398    11A     -1.460758    12A     -1.367736
      13A     -1.169395    14A     -1.046170    15A     -1.029563
      16A     -0.974257    17A     -0.871453    18A     -0.839945
      19A     -0.779377    20A     -0.737487    21A     -0.685284
      22A     -0.675855    23A     -0.662041    24A     -0.639125
      25A     -0.627428    26A     -0.609213    27A     -0.598348
      28A     -0.560145    29A     -0.528558    30A     -0.521199
      31A     -0.504735    32A     -0.493364    33A     -0.462315
      34A     -0.442438    35A     -0.349339    36A     -0.345797

  @DF-RHF Final Energy:  -457.33146123419823

   => Energetics <=

    Nuclear Repulsion Energy =            496.0144167110379954
    One-Electron Energy =               -1606.1407372987519011
    Two-Electron Energy =                 652.7948593535156760
    DFT Exchange-Correlation Energy =       0.0000000000000000
    Empirical Dispersion Energy =           0.0000000000000000
    PCM Polarization Energy =               0.0000000000000000
    EFP Energy =                            0.0000000000000000
    Total Energy =                       -457.3314612341982865
    Molecular point group: c1
  Basis Set: 6-31G*
  Basis Set:

  -Total Gradient:
     Atom            X                  Y                   Z
    ------   -----------------  -----------------  -----------------
       1       -0.000012641548    -0.000002131450     0.000005848415
       2        0.000001154842     0.000022924350     0.000016687444
       3       -0.000033817184    -0.000012233493    -0.000022377582
       4        0.000062236889     0.000009789562     0.000024921402
       5        0.000009102059     0.000012408399     0.000000242099
       6       -0.000002764015    -0.000000879648     0.000012282947
       7       -0.000010574950    -0.000011172967     0.000008049103
       8       -0.000048424961    -0.000021836180    -0.000030104885
       9       -0.000001794780     0.000006206204    -0.000007343693
      10        0.001854591435     0.001440102525     0.000145959934
      11       -0.000000009732    -0.000001883823     0.000002798913
      12       -0.002545819897    -0.002207626450    -0.001350699601
      13        0.000598260139     0.000681763684     0.003662611120
      14       -0.000018900750     0.000025112280    -0.000000614241
      15        0.000146081905     0.000061307692    -0.002468287895
      16        0.000013006817     0.000004044319     0.000002213530
      17       -0.000005777076     0.000001656972     0.000004478615
      18       -0.000003909197    -0.000007551973    -0.000006665627

  **** Optimization is complete! (in 6 steps) ****
    Final optimized geometry and variables:
    Molecular point group: c1

    Geometry (in Angstrom), charge = 0, multiplicity = 1:

    H           -1.119726982244     1.542478200322    -3.450143546702
    C           -0.878039925525     1.133660759444    -2.485261978958
    C           -1.248738553922     1.814005844086    -1.333765266370
    C           -0.201659519376    -0.071896014239    -2.396325040974
    H           -1.775962746809     2.747966300380    -1.405397628619
    C           -0.941609187017     1.287377979157    -0.093571975818
    H            0.077322972167    -0.601766274045    -3.288994255133
    C            0.111960066364    -0.598036972868    -1.154055593962
    H           -1.226686483974     1.797414232828     0.806681101843
    C           -0.253147145461     0.081567176350     0.001825000696
    H            0.625519710435    -1.537260092068    -1.079733763641
    C            0.061850922366    -0.453934461215     1.357953102642
    O            0.894981038454    -1.517013181901     1.374766419140
    O           -0.370315941266     0.008208163881     2.358856976571
    C            2.275260959508    -1.220464899965     1.460022720420
    H            2.597919589439    -0.624063061945     0.614155031632
    H            2.792269833769    -2.167246907371     1.451982741375
    H            2.491919475217    -0.695284909484     2.381674891187

  Mulliken Charges: (a.u.)
   Center  Symbol    Alpha    Beta     Spin     Total
       1     H     0.39432  0.39432  0.00000  0.21135
       2     C     3.09019  3.09019  0.00000 -0.18038
       3     C     3.10644  3.10644  0.00000 -0.21287
       4     C     3.10605  3.10605  0.00000 -0.21209
       5     H     0.39425  0.39425  0.00000  0.21149
       6     C     3.08539  3.08539  0.00000 -0.17078
       7     H     0.39527  0.39527  0.00000  0.20947
       8     C     3.09335  3.09335  0.00000 -0.18671
       9     H     0.37620  0.37620  0.00000  0.24761
      10     C     3.07593  3.07593  0.00000 -0.15187
      11     H     0.38290  0.38290  0.00000  0.23421
      12     C     2.59607  2.59607  0.00000  0.80787
      13     O     4.32173  4.32173  0.00000 -0.64346
      14     O     4.25805  4.25805  0.00000 -0.51610
      15     C     3.09486  3.09486  0.00000 -0.18972
      16     H     0.41822  0.41822  0.00000  0.16355
      17     H     0.40326  0.40326  0.00000  0.19348
      18     H     0.40752  0.40752  0.00000  0.18497

   Total alpha = 36.00000, Total beta = 36.00000, Total charge =  0.00000
