                              Psi4 1.0.54 Driver

  ==> Input File <==

--------------------------------------------------------------------------
set {
	reference rhf
	basis cc-pvtz
}

set_num_threads( 4 )
memory 2 gb

molecule MOL {
0 1

H	 -1.025208	 -0.806783	 -0.589906
N	 -0.712187	 0.000026	 -0.093397
C	 0.734067	 -0.000020	 0.038424
H	 -1.152051	 -0.016825	 0.801968
H	 1.140372	 -0.872115	 -0.458226
H	 1.140363	 0.872301	 -0.457869
H	 1.095085	 -0.000244	 1.065614

	symmetry c1
}
set optking {
	frozen_dihedral = ("
		1 2 3 7
	")
}

ee,wfn = optimize('scf', return_wfn=True)
oeprop( wfn, 'DIPOLE', 'QUADRUPOLE', 'MULLIKEN_CHARGES')
f=open( 'psi4out.xyz', 'w' )
f.write( "7  " )
f.write( str(ee) + "\n" )
f.write( MOL.save_string_xyz() )
f.close()
--------------------------------------------------------------------------

    Molecular point group: c1
  Charge       = 0
  Multiplicity = 1
  Basis Set: CC-PVTZ
  Basis Set:
  @DF-RHF Final Energy:   -95.24974179518100
    Total Energy =                        -95.2497417951809666
    Molecular point group: c1
  Basis Set: CC-PVTZ
  Basis Set:
  Basis Set: CC-PVTZ
  Basis Set:
  @DF-RHF Final Energy:   -95.24910410391092
    Total Energy =                        -95.2491041039109518
  Basis Set: CC-PVTZ
  Basis Set:
  Basis Set: CC-PVTZ
  Basis Set:
  @DF-RHF Final Energy:   -95.25040350093258
    Total Energy =                        -95.2504035009326060
  Basis Set: CC-PVTZ
  Basis Set:
  Basis Set: CC-PVTZ
  Basis Set:
  @DF-RHF Final Energy:   -95.25041338697309
    Total Energy =                        -95.2504133869731078
  Basis Set: CC-PVTZ
  Basis Set:
  Charge       = 0
  Multiplicity = 1
  Basis Set: CC-PVTZ
  Basis Set:

    Orbital Energies (a.u.)
    -----------------------

    Doubly Occupied:

       1A    -15.526057     2A    -11.235601     3A     -1.168848
       4A     -0.898046     5A     -0.666036     6A     -0.600144
       7A     -0.560801     8A     -0.517872     9A     -0.382925

  @DF-RHF Final Energy:   -95.25041405432086

   => Energetics <=

    Nuclear Repulsion Energy =             42.3016826873137504
    One-Electron Energy =                -211.9915351119440743
    Two-Electron Energy =                  74.4394383703094888
    DFT Exchange-Correlation Energy =       0.0000000000000000
    Empirical Dispersion Energy =           0.0000000000000000
    PCM Polarization Energy =               0.0000000000000000
    EFP Energy =                            0.0000000000000000
    Total Energy =                        -95.2504140543208280
    Molecular point group: c1
  Basis Set: CC-PVTZ
  Basis Set:

  -Total Gradient:
     Atom            X                  Y                   Z
    ------   -----------------  -----------------  -----------------
       1       -0.000031619234    -0.000034817627    -0.000052589999
       2       -0.000047704632     0.000037154920    -0.000066642152
       3        0.000119611666    -0.000006083071     0.000066044518
       4       -0.000002919008    -0.000024064916     0.000051229444
       5       -0.000047206754     0.000021770707     0.000010771816
       6       -0.000013220759    -0.000011835085    -0.000031650140
       7        0.000023058723     0.000017875072     0.000022836513

  **** Optimization is complete! (in 5 steps) ****
    Final optimized geometry and variables:
    Molecular point group: c1

    Geometry (in Angstrom), charge = 0, multiplicity = 1:

    H           -1.011929476403    -0.820494774389    -0.565346390390
    N           -0.702314534275     0.034172398798    -0.160054820559
    C            0.727646360985     0.011339950343     0.127409967385
    H           -1.242237900672     0.189945230556     0.661393703733
    H            1.178680128858    -0.932408435144    -0.157180897220
    H            1.241431351056     0.796635880065    -0.414972970240
    H            0.928299472356     0.156495974491     1.182915638855

  Mulliken Charges: (a.u.)
   Center  Symbol    Alpha    Beta     Spin     Total
       1     H     0.42710  0.42710  0.00000  0.14580
       2     N     3.68874  3.68874  0.00000 -0.37748
       3     C     3.06897  3.06897  0.00000 -0.13793
       4     H     0.42713  0.42713  0.00000  0.14575
       5     H     0.46325  0.46325  0.00000  0.07350
       6     H     0.46141  0.46141  0.00000  0.07718
       7     H     0.46340  0.46340  0.00000  0.07320

   Total alpha =  9.00000, Total beta =  9.00000, Total charge =  0.00000

*** Psi4 exiting successfully. Buy a developer a beer!
