  ==> Input File <==

--------------------------------------------------------------------------
set {
	reference rhf
	basis 6-31G*
}

set_num_threads( 4 )
memory 2 gb

molecule MOL {
0 1

H	 2.246352	 -1.268030	 0.315987
N	 2.434251	 -0.367735	 -0.081097
C	 1.267428	 0.496480	 0.024474
H	 2.672825	 -0.519657	 -1.042823
C	 -0.016086	 -0.325158	 -0.029487
H	 1.288818	 1.183521	 -0.816092
H	 1.267576	 1.109062	 0.929528
C	 -1.282277	 0.529072	 0.046735
H	 -0.012495	 -0.908639	 -0.945788
H	 -0.015903	 -1.041248	 0.791956
C	 -2.563920	 -0.301775	 -0.006060
H	 -1.284084	 1.244622	 -0.773004
H	 -1.271387	 1.115393	 0.963286
H	 -2.621848	 -0.873522	 -0.927727
H	 -3.445135	 0.329952	 0.047812
H	 -2.609542	 -1.004582	 0.821105

	symmetry c1
}
set optking {
	frozen_dihedral = ("
		1 2 3 6
	")
}

ee = optimize('scf')
oeprop('DIPOLE', 'QUADRUPOLE', 'MULLIKEN_CHARGES')
f=open( 'psi4out.xyz', 'w' )
f.write( "16  " )
f.write( str(ee) + "\n" )
f.write( MOL.save_string_xyz() )
f.close()
--------------------------------------------------------------------------

    Molecular point group: c1
  Charge       = 0
  Multiplicity = 1
  Basis Set: 6-31G*
  Basis Set:
  @DF-RHF Final Energy:  -212.31328648533309
    Total Energy =                       -212.3132864853330943
    Molecular point group: c1
  Basis Set: 6-31G*
  Basis Set:
  Basis Set: 6-31G*
  Basis Set:
  @DF-RHF Final Energy:  -212.31461179514940
    Total Energy =                       -212.3146117951493466
  Basis Set: 6-31G*
  Basis Set:
  Basis Set: 6-31G*
  Basis Set:
  @DF-RHF Final Energy:  -212.31481471004253
    Total Energy =                       -212.3148147100426399
  Basis Set: 6-31G*
  Basis Set:
  Charge       = 0
  Multiplicity = 1
  Basis Set: 6-31G*
  Basis Set:

    Orbital Energies (a.u.)
    -----------------------

    Doubly Occupied:

       1A    -15.532194     2A    -11.240114     3A    -11.218824
       4A    -11.215508     5A    -11.211400     6A     -1.176524
       7A     -1.062803     8A     -0.960306     9A     -0.848187
      10A     -0.798094    11A     -0.674107    12A     -0.628515
      13A     -0.597405    14A     -0.586430    15A     -0.558614
      16A     -0.523648    17A     -0.506515    18A     -0.483410
      19A     -0.472762    20A     -0.466880    21A     -0.376746

  @DF-RHF Final Energy:  -212.31481778659577

   => Energetics <=

    Nuclear Repulsion Energy =            186.0585591349741890
    One-Electron Energy =                -654.4687780117860711
    Two-Electron Energy =                 256.0954010902161713
    DFT Exchange-Correlation Energy =       0.0000000000000000
    Empirical Dispersion Energy =           0.0000000000000000
    PCM Polarization Energy =               0.0000000000000000
    EFP Energy =                            0.0000000000000000
    Total Energy =                       -212.3148177865957109
    Molecular point group: c1
  Basis Set: 6-31G*
  Basis Set:

  -Total Gradient:
     Atom            X                  Y                   Z
    ------   -----------------  -----------------  -----------------
       1       -0.001019038835    -0.001156407379    -0.003251248197
       2        0.000735119900     0.001108892228     0.003552709663
       3        0.001812229124     0.002222374989     0.001516861197
       4        0.000003804396     0.000036998276     0.000041186299
       5       -0.000007379972     0.000034738558    -0.000008325535
       6       -0.001483908175    -0.002224568626    -0.001865196929
       7        0.000031717571     0.000018190159     0.000006866594
       8        0.000099728567    -0.000065804204     0.000010130886
       9       -0.000010249531    -0.000020969589    -0.000002643840
      10        0.000001367810     0.000004396017    -0.000008707456
      11       -0.000080067638     0.000031268884     0.000005137623
      12       -0.000014502976    -0.000003367223     0.000018364267
      13       -0.000027264679     0.000010335769    -0.000014079175
      14        0.000014946534     0.000014517387     0.000019663226
      15       -0.000067196654    -0.000025648529    -0.000003480562
      16        0.000010694559     0.000015053282    -0.000017238061

  **** Optimization is complete! (in 4 steps) ****
    Final optimized geometry and variables:
    Molecular point group: c1

    Geometry (in Angstrom), charge = 0, multiplicity = 1:

    H            2.343699960246    -1.230892617075     0.344935362454
    N            2.494558542856    -0.318129158708    -0.041081938778
    C            1.274099189713     0.479891449754     0.028489723501
    H            2.756344196405    -0.467173246425    -0.996116900115
    C           -0.024073217818    -0.329705578065    -0.024018440341
    H            1.281132609882     1.174779263431    -0.805745077589
    H            1.293061852327     1.072761334519     0.938219816378
    C           -1.280844354686     0.538101726416     0.059774545646
    H           -0.043465751748    -0.913181793081    -0.943635939000
    H           -0.028385779361    -1.047811463005     0.795741925972
    C           -2.573882409778    -0.275852493759     0.019335988532
    H           -1.280156980415     1.253394390667    -0.760096180284
    H           -1.252886181907     1.124668364826     0.975458680444
    H           -2.647956469875    -0.848372956856    -0.900873977768
    H           -3.446172553739     0.367548146672     0.079503550454
    H           -2.621758951711    -0.976315592594     0.848221206033

  Mulliken Charges: (a.u.)
   Center  Symbol    Alpha    Beta     Spin     Total
       1     H     0.33438  0.33438  0.00000  0.33123
       2     N     3.92157  3.92157  0.00000 -0.84314
       3     C     3.05562  3.05562  0.00000 -0.11124
       4     H     0.33420  0.33420  0.00000  0.33160
       5     C     3.16186  3.16186  0.00000 -0.32372
       6     H     0.42295  0.42295  0.00000  0.15410
       7     H     0.41863  0.41863  0.00000  0.16274
       8     C     3.15530  3.15530  0.00000 -0.31059
       9     H     0.42611  0.42611  0.00000  0.14778
      10     H     0.42562  0.42562  0.00000  0.14876
      11     C     3.23881  3.23881  0.00000 -0.47761
      12     H     0.42246  0.42246  0.00000  0.15508
      13     H     0.42099  0.42099  0.00000  0.15803
      14     H     0.42169  0.42169  0.00000  0.15662
      15     H     0.41854  0.41854  0.00000  0.16292
      16     H     0.42128  0.42128  0.00000  0.15744

   Total alpha = 21.00000, Total beta = 21.00000, Total charge =  0.00000
