  ==> Input File <==

--------------------------------------------------------------------------
set {
	reference rhf
	basis 6-31G*
}

set_num_threads( 4 )
memory 2 gb

molecule MOL {
0 1

H	 0.928701	 -2.562111	 -2.142849
O	 0.860936	 -2.154211	 -1.285053
C	 -0.138288	 -1.273472	 -1.323501
C	 -0.318135	 -0.576402	 0.000164
O	 -0.783484	 -1.091579	 -2.304131
C	 -1.454360	 0.441875	 -0.000474
H	 -0.477545	 -1.344642	 0.752094
H	 0.630102	 -0.108900	 0.251743
C	 -2.826123	 -0.230780	 0.000056
H	 -1.357605	 1.085198	 -0.868380
H	 -1.357504	 1.086451	 0.866496
H	 -2.959731	 -0.858053	 -0.876869
H	 -3.619374	 0.509403	 -0.000080
H	 -2.959371	 -0.857318	 0.877556

	symmetry c1
}
set optking {
	frozen_dihedral = ("
		7 4 6 10
	")
}

ee = optimize('scf')
oeprop('DIPOLE', 'QUADRUPOLE', 'MULLIKEN_CHARGES')
f=open( 'psi4out.xyz', 'w' )
f.write( "14  " )
f.write( str(ee) + "\n" )
f.write( MOL.save_string_xyz() )
f.close()
--------------------------------------------------------------------------

    Molecular point group: c1
  Charge       = 0
  Multiplicity = 1
  Basis Set: 6-31G*
  Basis Set:
  @DF-RHF Final Energy:  -305.87998467033060
    Total Energy =                       -305.8799846703308276
    Molecular point group: c1
  Basis Set: 6-31G*
  Basis Set:
  Basis Set: 6-31G*
  Basis Set:
  @DF-RHF Final Energy:  -305.88023724742055
    Total Energy =                       -305.8802372474204958
  Basis Set: 6-31G*
  Basis Set:
  Basis Set: 6-31G*
  Basis Set:
  @DF-RHF Final Energy:  -305.88010008773597
    Total Energy =                       -305.8801000877359684
  Basis Set: 6-31G*
  Basis Set:
  Basis Set: 6-31G*
  Basis Set:
  @DF-RHF Final Energy:  -305.88033560940255
    Total Energy =                       -305.8803356094026071
  Basis Set: 6-31G*
  Basis Set:
  Basis Set: 6-31G*
  Basis Set:
  @DF-RHF Final Energy:  -305.88036523240760
    Total Energy =                       -305.8803652324074847
  Basis Set: 6-31G*
  Basis Set:
  Basis Set: 6-31G*
  Basis Set:
  @DF-RHF Final Energy:  -305.88037490264230
    Total Energy =                       -305.8803749026422452
  Basis Set: 6-31G*
  Basis Set:
  Charge       = 0
  Multiplicity = 1
  Basis Set: 6-31G*
  Basis Set:

    Orbital Energies (a.u.)
    -----------------------

    Doubly Occupied:

       1A    -20.613953     2A    -20.552959     3A    -11.382559
       4A    -11.241479     5A    -11.225729     6A    -11.210635
       7A     -1.476095     8A     -1.366949     9A     -1.081499
      10A     -0.975961    11A     -0.860581    12A     -0.787180
      13A     -0.702328    14A     -0.692499    15A     -0.659417
      16A     -0.611305    17A     -0.595723    18A     -0.565530
      19A     -0.557130    20A     -0.495421    21A     -0.489810
      22A     -0.485811    23A     -0.477194    24A     -0.443830

  @DF-RHF Final Energy:  -305.88037503797045

   => Energetics <=

    Nuclear Repulsion Energy =            244.3855171538785953
    One-Electron Energy =                -901.4286286032128146
    Two-Electron Energy =                 351.1627364113639373
    DFT Exchange-Correlation Energy =       0.0000000000000000
    Empirical Dispersion Energy =           0.0000000000000000
    PCM Polarization Energy =               0.0000000000000000
    EFP Energy =                            0.0000000000000000
    Total Energy =                       -305.8803750379702819
    Molecular point group: c1
  Basis Set: 6-31G*
  Basis Set:

  -Total Gradient:
     Atom            X                  Y                   Z
    ------   -----------------  -----------------  -----------------
       1       -0.000020480030     0.000013547650     0.000013447129
       2        0.000048935945    -0.000023470918     0.000026340011
       3       -0.000018121948    -0.000005808857    -0.000036032802
       4        0.000462017625     0.000554317793     0.000662345648
       5       -0.000005458637     0.000020144062     0.000008384110
       6        0.000540894405     0.000604817536     0.000466642128
       7       -0.000470329117    -0.000554073878    -0.000641455621
       8        0.000002672377    -0.000005865924     0.000000476716
       9       -0.000010057247     0.000010578284     0.000002336790
      10       -0.000534621052    -0.000614865822    -0.000501510382
      11       -0.000003353911     0.000009030939     0.000003169999
      12        0.000001474679    -0.000005995581    -0.000001864077
      13        0.000007584919    -0.000002775826    -0.000003207164
      14       -0.000001158007     0.000000420543     0.000000927515

  **** Optimization is complete! (in 7 steps) ****
    Final optimized geometry and variables:
    Molecular point group: c1

    Geometry (in Angstrom), charge = 0, multiplicity = 1:

    H            1.642813906154    -1.775573432415    -1.263429646750
    O            1.541608707014    -1.388471022900    -0.399274496812
    C            0.638253532602    -0.413260228621    -0.486054016516
    C            0.438510536823     0.278866793993     0.839478228260
    O            0.095858658758    -0.144858191945    -1.508705133647
    C           -0.721869682532     1.273223895281     0.846551143435
    H            0.307399948066    -0.490756835237     1.593966731740
    H            1.378715706961     0.772364313193     1.071594097662
    C           -2.094544272032     0.600347223670     0.863854502010
    H           -0.645515871951     1.913116483400    -0.024960449841
    H           -0.620240822089     1.908721613329     1.721385610113
    H           -2.239610650726    -0.015867866152    -0.016003887600
    H           -2.885685368422     1.342921267614     0.881889953475
    H           -2.211959071634    -0.027968932289     1.742910371441

  Mulliken Charges: (a.u.)
   Center  Symbol    Alpha    Beta     Spin     Total
       1     H     0.26773  0.26773  0.00000  0.46454
       2     O     4.35023  4.35023  0.00000 -0.70045
       3     C     2.62448  2.62448  0.00000  0.75105
       4     C     3.21018  3.21018  0.00000 -0.42036
       5     O     4.28021  4.28021  0.00000 -0.56041
       6     C     3.15498  3.15498  0.00000 -0.30995
       7     H     0.39900  0.39900  0.00000  0.20199
       8     H     0.39591  0.39591  0.00000  0.20819
       9     C     3.24577  3.24577  0.00000 -0.49155
      10     H     0.40547  0.40547  0.00000  0.18906
      11     H     0.41749  0.41749  0.00000  0.16501
      12     H     0.40769  0.40769  0.00000  0.18461
      13     H     0.41684  0.41684  0.00000  0.16632
      14     H     0.42403  0.42403  0.00000  0.15195

   Total alpha = 24.00000, Total beta = 24.00000, Total charge =  0.00000
