  ==> Input File <==

--------------------------------------------------------------------------
set {
	reference rhf
	basis cc-pvtz
}

set_num_threads( 4 )
memory 2 gb

molecule MOL {
0 1

H	 1.956738	 -0.862761	 1.229432
C	 1.946031	 -0.216544	 0.341771
C	 0.692262	 0.592428	 0.156232
O	 2.876840	 -0.197235	 -0.386828
C	 -0.554654	 -0.292621	 0.086567
H	 0.800313	 1.192313	 -0.737803
H	 0.610141	 1.265277	 1.007354
C	 -1.846385	 0.513195	 -0.016346
H	 -0.473986	 -0.956115	 -0.769708
H	 -0.597929	 -0.929215	 0.966651
C	 -3.089953	 -0.365049	 -0.098564
H	 -1.798267	 1.154820	 -0.891143
H	 -1.925398	 1.173265	 0.842889
H	 -3.055079	 -1.012299	 -0.968245
H	 -3.988403	 0.236438	 -0.170014
H	 -3.183055	 -0.995885	 0.779079

	symmetry c1
}
set optking {
	frozen_dihedral = ("
		6 3 5 9
	")
}

ee = optimize('scf')
oeprop('DIPOLE', 'QUADRUPOLE', 'MULLIKEN_CHARGES')
f=open( 'psi4out.xyz', 'w' )
f.write( "16  " )
f.write( str(ee) + "\n" )
f.write( MOL.save_string_xyz() )
f.close()
--------------------------------------------------------------------------

    Molecular point group: c1
  Charge       = 0
  Multiplicity = 1
  Basis Set: CC-PVTZ
  Basis Set:
  @DF-RHF Final Energy:  -270.11924354653485
    Total Energy =                       -270.1192435465347899
    Molecular point group: c1
  Basis Set: CC-PVTZ
  Basis Set:
  Charge       = 0
  Multiplicity = 1
  Basis Set: CC-PVTZ
  Basis Set:

    Orbital Energies (a.u.)
    -----------------------

    Doubly Occupied:

       1A    -20.552093     2A    -11.321300     3A    -11.234688
       4A    -11.233983     5A    -11.227512     6A    -11.216711
       7A     -1.406865     8A     -1.097996     9A     -1.020207
      10A     -0.906881    11A     -0.812620    12A     -0.794004
      13A     -0.680984    14A     -0.649379    15A     -0.634103
      16A     -0.604593    17A     -0.582699    18A     -0.552574
      19A     -0.530210    20A     -0.510256    21A     -0.488666
      22A     -0.483023    23A     -0.480257    24A     -0.411556

  @DF-RHF Final Energy:  -270.11924366739044

   => Energetics <=

    Nuclear Repulsion Energy =            229.3697762866940479
    One-Electron Energy =                -820.1117212748292786
    Two-Electron Energy =                 320.6227013207449659
    DFT Exchange-Correlation Energy =       0.0000000000000000
    Empirical Dispersion Energy =           0.0000000000000000
    PCM Polarization Energy =               0.0000000000000000
    EFP Energy =                            0.0000000000000000
    Total Energy =                       -270.1192436673902080
    Molecular point group: c1
  Basis Set: CC-PVTZ
  Basis Set:

  -Total Gradient:
     Atom            X                  Y                   Z
    ------   -----------------  -----------------  -----------------
       1        0.000019342094     0.000069074753     0.000039493821
       2       -0.000114475196    -0.000154611116    -0.000173282222
       3       -0.000102374883     0.000174395154     0.000082339622
       4        0.000052509728     0.000062211188     0.000052272503
       5        0.000105093067    -0.000130211499     0.000152643349
       6        0.000114138308    -0.000110102235    -0.000066313221
       7       -0.000011167720     0.000016560879     0.000009091964
       8        0.000019204918    -0.000018239747    -0.000001723106
       9       -0.000083402490     0.000112109018    -0.000090099385
      10       -0.000003431997    -0.000018240825     0.000021476602
      11        0.000000001013    -0.000001175073    -0.000023870252
      12       -0.000004128411     0.000010988699     0.000002521732
      13        0.000007854250    -0.000014193964     0.000002718730
      14       -0.000004361407    -0.000006862102    -0.000000586851
      15        0.000000540674     0.000000108931    -0.000006352384
      16        0.000004658061     0.000008187938    -0.000000330901

  **** Optimization is complete! (in 2 steps) ****
    Final optimized geometry and variables:
    Molecular point group: c1

    Geometry (in Angstrom), charge = 0, multiplicity = 1:

    H            1.959624716822    -0.858695075412     1.221033606046
    C            1.946073123415    -0.215176665656     0.331452690727
    C            0.692133953432     0.594104295411     0.148376573679
    O            2.874792684011    -0.197437471186    -0.399856873383
    C           -0.554979379131    -0.290975976154     0.082432835192
    H            0.798788820212     1.192218964728    -0.747007970407
    H            0.612481622050     1.267848625017     0.999012585535
    C           -1.846610356946     0.514822861188    -0.022126023644
    H           -0.475218652762    -0.955896505015    -0.772777931463
    H           -0.598001265170    -0.925450894120     0.964090723735
    C           -3.089815253281    -0.363485029787    -0.109013537158
    H           -1.796542149428     1.158041741489    -0.895670035366
    H           -1.927781687845     1.173331669677     0.838094683303
    H           -3.052384366798    -1.009726392132    -0.979345624630
    H           -3.988127835282     0.237980673937    -0.182339612784
    H           -3.185346537752    -0.995355767337     0.767626114485

  Mulliken Charges: (a.u.)
   Center  Symbol    Alpha    Beta     Spin     Total
       1     H     0.46537  0.46537  0.00000  0.06926
       2     C     2.90923  2.90923  0.00000  0.18154
       3     C     3.07663  3.07663  0.00000 -0.15325
       4     O     4.16415  4.16415  0.00000 -0.32830
       5     C     3.10227  3.10227  0.00000 -0.20453
       6     H     0.44239  0.44239  0.00000  0.11522
       7     H     0.45018  0.45018  0.00000  0.09965
       8     C     3.08466  3.08466  0.00000 -0.16931
       9     H     0.44573  0.44573  0.00000  0.10853
      10     H     0.45197  0.45197  0.00000  0.09606
      11     C     3.14906  3.14906  0.00000 -0.29812
      12     H     0.45070  0.45070  0.00000  0.09859
      13     H     0.45328  0.45328  0.00000  0.09344
      14     H     0.45321  0.45321  0.00000  0.09358
      15     H     0.44664  0.44664  0.00000  0.10673
      16     H     0.45454  0.45454  0.00000  0.09092

   Total alpha = 24.00000, Total beta = 24.00000, Total charge = -0.00000
