  ==> Input File <==

--------------------------------------------------------------------------
set {
	reference rhf
	basis cc-pvtz
}

set_num_threads( 4 )
memory 2 gb

molecule MOL {
0 1

H	 3.284569	 -0.481742	 0.019985
C	 2.228843	 -0.288392	 0.015243
C	 1.741570	 0.860557	 -0.589584
C	 1.364252	 -1.184520	 0.611021
H	 2.419773	 1.552211	 -1.050506
C	 0.387938	 1.112377	 -0.597887
H	 1.744026	 -2.072295	 1.078036
C	 0.005050	 -0.930241	 0.601875
H	 -0.007782	 1.994623	 -1.060169
C	 -0.486398	 0.214248	 0.000000
H	 -0.673519	 -1.623388	 1.063682
C	 -1.946525	 0.470130	 0.000000
O	 -2.779618	 -0.371226	 0.000000
H	 -2.227127	 1.528393	 0.000000

	symmetry c1
}
set optking {
	frozen_dihedral = ("
		8 10 12 14
	")
}

ee = optimize('scf')
oeprop('DIPOLE', 'QUADRUPOLE', 'MULLIKEN_CHARGES')
f=open( 'psi4out.xyz', 'w' )
f.write( "14  " )
f.write( str(ee) + "\n" )
f.write( MOL.save_string_xyz() )
f.close()
--------------------------------------------------------------------------

    Molecular point group: c1
  Charge       = 0
  Multiplicity = 1
  Basis Set: CC-PVTZ
  Basis Set:
  @DF-RHF Final Energy:  -343.54680945531646
    Total Energy =                       -343.5468094553165770
    Molecular point group: c1
  Basis Set: CC-PVTZ
  Basis Set:
  Basis Set: CC-PVTZ
  Basis Set:
  @DF-RHF Final Energy:  -343.54443854205664
    Total Energy =                       -343.5444385420568096
  Basis Set: CC-PVTZ
  Basis Set:
  Basis Set: CC-PVTZ
  Basis Set:
  @DF-RHF Final Energy:  -343.54733101391270
    Total Energy =                       -343.5473310139125260
  Basis Set: CC-PVTZ
  Basis Set:
  Basis Set: CC-PVTZ
  Basis Set:
  @DF-RHF Final Energy:  -343.54744102051376
    Total Energy =                       -343.5474410205140430
  Basis Set: CC-PVTZ
  Basis Set:
  Basis Set: CC-PVTZ
  Basis Set:
  @DF-RHF Final Energy:  -343.54744500089606
    Total Energy =                       -343.5474450008963458
  Basis Set: CC-PVTZ
  Basis Set:
  Charge       = 0
  Multiplicity = 1
  Basis Set: CC-PVTZ
  Basis Set:

    Orbital Energies (a.u.)
    -----------------------

    Doubly Occupied:

       1A    -20.554725     2A    -11.327958     3A    -11.251451
       4A    -11.248621     5A    -11.247185     6A    -11.245865
       7A    -11.243681     8A    -11.242127     9A     -1.410297
      10A     -1.176747    11A     -1.051330    12A     -1.035734
      13A     -0.892277    14A     -0.847837    15A     -0.795159
      16A     -0.725638    17A     -0.682081    18A     -0.656961
      19A     -0.627308    20A     -0.622381    21A     -0.606102
      22A     -0.556639    23A     -0.530524    24A     -0.510565
      25A     -0.508723    26A     -0.426020    27A     -0.354859
      28A     -0.352509

  @DF-RHF Final Energy:  -343.54744619103155

   => Energetics <=

    Nuclear Repulsion Energy =            323.8244957964619744
    One-Electron Energy =               -1107.2812686252177627
    Two-Electron Energy =                 439.9093266377241207
    DFT Exchange-Correlation Energy =       0.0000000000000000
    Empirical Dispersion Energy =           0.0000000000000000
    PCM Polarization Energy =               0.0000000000000000
    EFP Energy =                            0.0000000000000000
    Total Energy =                       -343.5474461910316677
    Molecular point group: c1
  Basis Set: CC-PVTZ
  Basis Set:

  -Total Gradient:
     Atom            X                  Y                   Z
    ------   -----------------  -----------------  -----------------
       1        0.000002509995     0.000012135717     0.000009363257
       2       -0.000036447029    -0.000127426612     0.000044853965
       3       -0.000109604295     0.000065965306    -0.000059150426
       4        0.000138774516     0.000061356363    -0.000025601283
       5        0.000006474678    -0.000006419011     0.000009659643
       6        0.000132308784     0.000038803205    -0.000008339742
       7       -0.000007366993    -0.000006919653    -0.000004126725
       8        0.000389277764     0.002278775771     0.003600933781
       9        0.000000351302    -0.000007408208     0.000007561259
      10       -0.000701827718    -0.003277349426    -0.003681437840
      11       -0.000004509572    -0.000001464027     0.000009820757
      12        0.000071580829     0.000826931621    -0.005051547131
      13        0.000015256479     0.000034470832    -0.000014897879
      14        0.000103221255     0.000108548125     0.005162908364

  **** Optimization is complete! (in 6 steps) ****
    Final optimized geometry and variables:
    Molecular point group: c1

    Geometry (in Angstrom), charge = 0, multiplicity = 1:

    H            3.294060513673    -0.446397063189     0.022999391377
    C            2.236997644474    -0.261308414696     0.005581091249
    C            1.748727232231     0.880368034531    -0.599877468745
    C            1.369551490448    -1.163369492404     0.599470395260
    H            2.422611461121     1.580949631530    -1.053493424320
    C            0.388167975685     1.122410224008    -0.605885256955
    H            1.755218903580    -2.041335122967     1.080500546035
    C            0.010858386917    -0.931580278355     0.574327634862
    H            0.004828432653     2.019426597429    -1.056451440764
    C           -0.484737554366     0.207803019207    -0.042488765837
    H           -0.674277113595    -1.623200497939     1.023232232178
    C           -1.941836245820     0.495183526686    -0.024053874145
    O           -2.786369485474    -0.328230203513     0.071418884579
    H           -2.203434714605     1.558292539699    -0.043799958947

  Mulliken Charges: (a.u.)
   Center  Symbol    Alpha    Beta     Spin     Total
       1     H     0.41978  0.41978  0.00000  0.16043
       2     C     3.07276  3.07276  0.00000 -0.14551
       3     C     3.07162  3.07162  0.00000 -0.14323
       4     C     3.07026  3.07026  0.00000 -0.14052
       5     H     0.42057  0.42057  0.00000  0.15885
       6     C     3.09058  3.09058  0.00000 -0.18117
       7     H     0.41984  0.41984  0.00000  0.16032
       8     C     3.08578  3.08578  0.00000 -0.17156
       9     H     0.42332  0.42332  0.00000  0.15337
      10     C     2.97084  2.97084  0.00000  0.05832
      11     H     0.41014  0.41014  0.00000  0.17973
      12     C     2.91588  2.91588  0.00000  0.16824
      13     O     4.17027  4.17027  0.00000 -0.34053
      14     H     0.45836  0.45836  0.00000  0.08328

   Total alpha = 28.00000, Total beta = 28.00000, Total charge =  0.00000
