                              Psi4 1.0.54 Driver

  ==> Input File <==

--------------------------------------------------------------------------
set {
	reference rhf
	basis cc-pvtz
}

set_num_threads( 4 )
memory 2 gb

molecule MOL {
0 1

O	 1.691890	 -0.465864	 -0.431208
C	 0.860843	 0.273204	 -0.013120
C	 -0.623368	 -0.117453	 -0.005652
C	 1.264502	 1.633926	 0.519343
C	 -0.892588	 -1.253841	 -1.002900
C	 -1.473463	 1.100646	 -0.372896
C	 -0.981836	 -0.579025	 1.418506
H	 -0.609333	 -0.970024	 -2.010649
H	 -1.950451	 -1.487353	 -1.013175
H	 -0.360848	 -2.161259	 -0.746463
H	 -1.232203	 1.461623	 -1.364827
H	 -2.524364	 0.834451	 -0.354500
H	 -1.312381	 1.914833	 0.318657
H	 -2.035706	 -0.826342	 1.468082
H	 -0.425078	 -1.458934	 1.716857
H	 -0.788494	 0.205047	 2.140903
H	 1.274137	 1.603608	 1.603203
H	 2.259832	 1.861792	 0.170252
H	 0.580043	 2.416136	 0.221187

	symmetry c1
}
set optking {
	frozen_dihedral = ("
		1 2 3 5
	")
}

ee,wfn = optimize('scf', return_wfn=True)
oeprop( wfn, 'DIPOLE', 'QUADRUPOLE', 'MULLIKEN_CHARGES')
f=open( 'psi4out.xyz', 'w' )
f.write( "19  " )
f.write( str(ee) + "\n" )
f.write( MOL.save_string_xyz() )
f.close()
--------------------------------------------------------------------------

    Molecular point group: c1
  Charge       = 0
  Multiplicity = 1
  Basis Set: CC-PVTZ
  Basis Set:
  @DF-RHF Final Energy:  -309.17093943777837
    Total Energy =                       -309.1709394377788840
    Molecular point group: c1
  Basis Set: CC-PVTZ
  Basis Set:
  Basis Set: CC-PVTZ
  Basis Set:
  @DF-RHF Final Energy:  -308.92223974513530
    Total Energy =                       -308.9222397451351299
  Basis Set: CC-PVTZ
  Basis Set:
  Basis Set: CC-PVTZ
  Basis Set:
  @DF-RHF Final Energy:  -309.05746423874382
    Total Energy =                       -309.0574642387438189
  Basis Set: CC-PVTZ
  Basis Set:
  Basis Set: CC-PVTZ
  Basis Set:
  @DF-RHF Final Energy:  -309.15543127103712
    Total Energy =                       -309.1554312710373438
  Basis Set: CC-PVTZ
  Basis Set:
  @DF-RHF Final Energy:  -309.17042081901229
    Total Energy =                       -309.1704208190122358
  @DF-RHF Final Energy:  -309.17227933994468
    Total Energy =                       -309.1722793399445095
  @DF-RHF Final Energy:  -309.16909535251654
    Total Energy =                       -309.1690953525164787
  @DF-RHF Final Energy:  -309.17335580582170
    Total Energy =                       -309.1733558058218136
  @DF-RHF Final Energy:  -309.17378868413886
    Total Energy =                       -309.1737886841386853
  @DF-RHF Final Energy:  -309.17403870301683
    Total Energy =                       -309.1740387030166630
  @DF-RHF Final Energy:  -309.17335439537101
    Total Energy =                       -309.1733543953708931
  @DF-RHF Final Energy:  -309.17354720877813
    Total Energy =                       -309.1735472087780749
  @DF-RHF Final Energy:  -309.17419723196167
    Total Energy =                       -309.1741972319617844
  Basis Set: CC-PVTZ
  Basis Set:
  @DF-RHF Final Energy:  -309.17424283095249
    Total Energy =                       -309.1742428309526645
  Basis Set: CC-PVTZ
  Basis Set:
  Basis Set: CC-PVTZ
  Basis Set:
  @DF-RHF Final Energy:  -309.17423388867672
    Total Energy =                       -309.1742338886770085
  Basis Set: CC-PVTZ
  Basis Set:
  Basis Set: CC-PVTZ
  Basis Set:
  @DF-RHF Final Energy:  -309.17424780745188
    Total Energy =                       -309.1742478074519909
  Basis Set: CC-PVTZ
  Basis Set:
  Charge       = 0
  Multiplicity = 1
  Basis Set: CC-PVTZ
  Basis Set:

    Orbital Energies (a.u.)
    -----------------------

    Doubly Occupied:

       1A    -20.537262     2A    -11.317848     3A    -11.245683
       4A    -11.225356     5A    -11.222193     6A    -11.221577
       7A    -11.206802     8A     -1.398392     9A     -1.110796
      10A     -1.003351    11A     -0.947496    12A     -0.936141
      13A     -0.835612    14A     -0.705489    15A     -0.666749
      16A     -0.634124    17A     -0.622050    18A     -0.597997
      19A     -0.592157    20A     -0.566706    21A     -0.546631
      22A     -0.545970    23A     -0.524969    24A     -0.514476
      25A     -0.502357    26A     -0.472836    27A     -0.467643
      28A     -0.394572

  @DF-RHF Final Energy:  -309.17424857516272

   => Energetics <=

    Nuclear Repulsion Energy =            326.9271710318795954
    One-Electron Energy =               -1067.0763676386882253
    Two-Electron Energy =                 430.9749480316457948
    DFT Exchange-Correlation Energy =       0.0000000000000000
    Empirical Dispersion Energy =           0.0000000000000000
    PCM Polarization Energy =               0.0000000000000000
    EFP Energy =                            0.0000000000000000
    Total Energy =                       -309.1742485751627783
    Molecular point group: c1
  Basis Set: CC-PVTZ
  Basis Set:

  -Total Gradient:
     Atom            X                  Y                   Z
    ------   -----------------  -----------------  -----------------
       1       -0.000063848122    -0.000418912519     0.000266808246
       2        0.000083149164     0.000657578929    -0.000427159399
       3       -0.000022490004    -0.000604790488     0.000260796030
       4       -0.000013307096     0.000013172463    -0.000041381959
       5       -0.000005981255     0.000350532289    -0.000118203144
       6        0.000009047034     0.000022974177     0.000017750340
       7        0.000016697877     0.000008143773     0.000003535121
       8       -0.000018112717    -0.000024908260     0.000018134785
       9        0.000030817429    -0.000001239295     0.000004840038
      10       -0.000005270934     0.000002175888    -0.000004756870
      11       -0.000021298235    -0.000011394582     0.000020694322
      12        0.000019756459     0.000011664361     0.000005716621
      13       -0.000011553945    -0.000002518965    -0.000034096791
      14        0.000006052659    -0.000001436822    -0.000004439859
      15       -0.000003575693    -0.000009902207     0.000001237354
      16        0.000002480483    -0.000001240116    -0.000014756118
      17       -0.000030574942    -0.000005524431     0.000038123063
      18        0.000028591656    -0.000006745137     0.000010103896
      19       -0.000000579814     0.000022370941    -0.000002945680

  **** Optimization is complete! (in 17 steps) ****
    Final optimized geometry and variables:
    Molecular point group: c1

    Geometry (in Angstrom), charge = 0, multiplicity = 1:

    O            1.776557180097    -0.422740047961    -0.301712835278
    C            0.863550802301     0.105792313877     0.244995104556
    C           -0.578824580071    -0.099733490762    -0.239310742145
    C            1.114217852882     0.977186564315     1.459150376386
    C           -0.564408147903    -0.593394610361    -1.687949221972
    C           -1.388639166221     1.201475450749    -0.149244261007
    C           -1.216261264021    -1.172098199388     0.662607987719
    H           -0.105584451649     0.135690755172    -2.344539243075
    H           -1.579419113264    -0.764173329066    -2.028642440525
    H           -0.009077807030    -1.514751858505    -1.783320966153
    H           -0.936595165871     1.990741066281    -0.739994193128
    H           -2.387595703057     1.036159875153    -0.534420826737
    H           -1.486976240407     1.556959783588     0.868411404532
    H           -2.231587431519    -1.367726925348     0.338197324053
    H           -0.662067564376    -2.101305880809     0.610159539869
    H           -1.257943542599    -0.860734217793     1.699667654381
    H            0.407391134873     0.782536381271     2.254825581597
    H            2.119883377759     0.803504390659     1.809625109559
    H            1.013747688518     2.020614981507     1.182484680741

  Mulliken Charges: (a.u.)
   Center  Symbol    Alpha    Beta     Spin     Total
       1     O     4.17643  4.17643  0.00000 -0.35285
       2     C     2.85193  2.85193  0.00000  0.29614
       3     C     3.00821  3.00821  0.00000 -0.01641
       4     C     3.16394  3.16394  0.00000 -0.32787
       5     C     3.15072  3.15072  0.00000 -0.30143
       6     C     3.16464  3.16464  0.00000 -0.32928
       7     C     3.15760  3.15760  0.00000 -0.31520
       8     H     0.44757  0.44757  0.00000  0.10486
       9     H     0.45187  0.45187  0.00000  0.09626
      10     H     0.43803  0.43803  0.00000  0.12394
      11     H     0.44335  0.44335  0.00000  0.11330
      12     H     0.44272  0.44272  0.00000  0.11456
      13     H     0.44573  0.44573  0.00000  0.10853
      14     H     0.44581  0.44581  0.00000  0.10838
      15     H     0.44096  0.44096  0.00000  0.11808
      16     H     0.44646  0.44646  0.00000  0.10709
      17     H     0.44656  0.44656  0.00000  0.10688
      18     H     0.43179  0.43179  0.00000  0.13643
      19     H     0.44570  0.44570  0.00000  0.10860

   Total alpha = 28.00000, Total beta = 28.00000, Total charge = -0.00000

*** Psi4 exiting successfully. Buy a developer a beer!
