                              Psi4 1.0.54 Driver

  ==> Input File <==

--------------------------------------------------------------------------
set {
	reference rhf
	basis cc-pvtz
}

set_num_threads( 4 )
memory 2 gb

molecule MOL {
0 1

O	 -1.510770	 1.240811	 -0.054933
C	 -1.081510	 0.147522	 0.122720
C	 0.327029	 -0.064006	 0.641890
C	 -1.903028	 -1.084121	 -0.174656
C	 1.349460	 -0.017068	 -0.500215
H	 0.399029	 -1.014606	 1.159950
H	 0.538021	 0.726928	 1.350471
C	 2.782249	 -0.179583	 -0.005797
H	 1.127623	 -0.796792	 -1.223165
H	 1.244481	 0.927951	 -1.020065
H	 3.484097	 -0.131399	 -0.829882
H	 2.920677	 -1.133128	 0.492541
H	 3.042387	 0.603182	 0.698105
H	 -1.341891	 -1.779207	 -0.789259
H	 -2.820449	 -0.808163	 -0.671328
H	 -2.133314	 -1.593056	 0.755831

	symmetry c1
}
set optking {
	frozen_dihedral = ("
		9 5 3 2
	")
}

ee,wfn = optimize('scf', return_wfn=True)
oeprop( wfn, 'DIPOLE', 'QUADRUPOLE', 'MULLIKEN_CHARGES')
f=open( 'psi4out.xyz', 'w' )
f.write( "16  " )
f.write( str(ee) + "\n" )
f.write( MOL.save_string_xyz() )
f.close()
--------------------------------------------------------------------------

    Molecular point group: c1
  Charge       = 0
  Multiplicity = 1
  Basis Set: CC-PVTZ
  Basis Set:
  @DF-RHF Final Energy:  -270.12944647723498
    Total Energy =                       -270.1294464772352057
    Molecular point group: c1
  Basis Set: CC-PVTZ
  Basis Set:
  Charge       = 0
  Multiplicity = 1
  Basis Set: CC-PVTZ
  Basis Set:

    Orbital Energies (a.u.)
    -----------------------

    Doubly Occupied:

       1A    -20.537389     2A    -11.319865     3A    -11.231439
       4A    -11.228467     5A    -11.227379     6A    -11.217514
       7A     -1.397533     8A     -1.083824     9A     -1.014240
      10A     -0.950491    11A     -0.829499    12A     -0.736589
      13A     -0.661381    14A     -0.651053    15A     -0.613714
      16A     -0.609919    17A     -0.576670    18A     -0.559621
      19A     -0.538213    20A     -0.519550    21A     -0.504864
      22A     -0.485176    23A     -0.474368    24A     -0.400568

  @DF-RHF Final Energy:  -270.12944733670906

   => Energetics <=

    Nuclear Repulsion Energy =            237.5251414027703731
    One-Electron Energy =                -836.5705297408247816
    Two-Electron Energy =                 328.9159410013451179
    DFT Exchange-Correlation Energy =       0.0000000000000000
    Empirical Dispersion Energy =           0.0000000000000000
    PCM Polarization Energy =               0.0000000000000000
    EFP Energy =                            0.0000000000000000
    Total Energy =                       -270.1294473367092905
    Molecular point group: c1
  Basis Set: CC-PVTZ
  Basis Set:

  -Total Gradient:
     Atom            X                  Y                   Z
    ------   -----------------  -----------------  -----------------
       1       -0.000054727927     0.000029043711     0.000110542351
       2        0.000176755930     0.000190250509    -0.000377132905
       3       -0.000056176714    -0.000471920304     0.000123373472
       4       -0.000076972426     0.000010618632     0.000183384855
       5       -0.000137953217     0.000509340882    -0.000122691738
       6        0.000007321260    -0.000012218822     0.000084527245
       7        0.000012743521    -0.000012492190    -0.000040601718
       8       -0.000101408184    -0.000087090417    -0.000046976382
       9        0.000180041829    -0.000185298869     0.000169743893
      10        0.000016981907     0.000049797614    -0.000046504304
      11        0.000016596123    -0.000020223243    -0.000033940588
      12        0.000012484693    -0.000026721514     0.000042039668
      13       -0.000021912080     0.000038599924    -0.000012679608
      14        0.000023211217     0.000019730091    -0.000009536207
      15        0.000006168967     0.000003862759    -0.000003217983
      16       -0.000003154899    -0.000035278759    -0.000020330050

  **** Optimization is complete! (in 2 steps) ****
    Final optimized geometry and variables:
    Molecular point group: c1

    Geometry (in Angstrom), charge = 0, multiplicity = 1:

    O           -1.513585748430     1.234961233736    -0.050661054583
    C           -1.081879253326     0.141838239673     0.121981995516
    C            0.327124531582    -0.068792136079     0.640225441157
    C           -1.902113229306    -1.090218463388    -0.177331863240
    C            1.349538748908    -0.019137546634    -0.501910873728
    H            0.400969595396    -1.018997660569     1.158813061111
    H            0.536739689446     0.722889750969     1.348329326559
    C            2.781801321818    -0.185741480369    -0.007382179780
    H            1.128057398975    -0.798258540178    -1.225554133705
    H            1.246633960637     0.927224250294    -1.019842678886
    H            3.483207021172    -0.148608164723    -0.832489309316
    H            2.915233084843    -1.135840912071     0.498977230845
    H            3.046845335365     0.601574995516     0.689581521740
    H           -1.340507050531    -1.783895776494    -0.793038460813
    H           -2.820014416424    -0.814442398092    -0.673232676771
    H           -2.131747337045    -1.600620008054     0.752535703063

  Mulliken Charges: (a.u.)
   Center  Symbol    Alpha    Beta     Spin     Total
       1     O     4.17700  4.17700  0.00000 -0.35400
       2     C     2.85762  2.85762  0.00000  0.28476
       3     C     3.09830  3.09830  0.00000 -0.19659
       4     C     3.15488  3.15488  0.00000 -0.30976
       5     C     3.09158  3.09158  0.00000 -0.18315
       6     H     0.44997  0.44997  0.00000  0.10006
       7     H     0.43944  0.43944  0.00000  0.12111
       8     C     3.14884  3.14884  0.00000 -0.29769
       9     H     0.45276  0.45276  0.00000  0.09448
      10     H     0.44118  0.44118  0.00000  0.11763
      11     H     0.44621  0.44621  0.00000  0.10759
      12     H     0.45509  0.45509  0.00000  0.08981
      13     H     0.45167  0.45167  0.00000  0.09667
      14     H     0.45097  0.45097  0.00000  0.09807
      15     H     0.43607  0.43607  0.00000  0.12786
      16     H     0.44842  0.44842  0.00000  0.10315

   Total alpha = 24.00000, Total beta = 24.00000, Total charge = -0.00000

*** Psi4 exiting successfully. Buy a developer a beer!
