  ==> Input File <==

--------------------------------------------------------------------------
set {
	reference rhf
	basis 6-31G*
}

set_num_threads( 4 )
memory 2 gb

molecule MOL {
0 1

O	 0.074228	 1.262779	 -0.000085
C	 0.028650	 0.075053	 -0.000277
C	 -1.233602	 -0.752807	 0.000328
O	 1.109162	 -0.694619	 -0.000298
C	 -2.501530	 0.091881	 0.000126
H	 -1.193807	 -1.406641	 -0.865785
H	 -1.193516	 -1.405779	 0.867015
H	 -2.545121	 0.729328	 -0.874513
H	 -3.377167	 -0.548497	 0.000561
H	 -2.544818	 0.730135	 0.874258
C	 0.900371	 -2.095331	 0.000227
H	 0.351879	 -2.397167	 0.880832
H	 1.883247	 -2.540098	 0.001011
H	 0.352804	 -2.398154	 -0.880648

	symmetry c1
}
set optking {
	frozen_dihedral = ("
		11 4 2 3
	")
}

ee = optimize('scf')
oeprop('DIPOLE', 'QUADRUPOLE', 'MULLIKEN_CHARGES')
f=open( 'psi4out.xyz', 'w' )
f.write( "14  " )
f.write( str(ee) + "\n" )
f.write( MOL.save_string_xyz() )
f.close()
--------------------------------------------------------------------------

    Molecular point group: c1
  Charge       = 0
  Multiplicity = 1
  Basis Set: 6-31G*
  Basis Set:
  @DF-RHF Final Energy:  -305.84403240195650
    Total Energy =                       -305.8440324019567811
    Molecular point group: c1
  Basis Set: 6-31G*
  Basis Set:
  Basis Set: 6-31G*
  Basis Set:
  @DF-RHF Final Energy:  -305.84143258969686
    Total Energy =                       -305.8414325896967512
  Basis Set: 6-31G*
  Basis Set:
  Basis Set: 6-31G*
  Basis Set:
  @DF-RHF Final Energy:  -305.85263600650580
    Total Energy =                       -305.8526360065058043
  Basis Set: 6-31G*
  Basis Set:
  Basis Set: 6-31G*
  Basis Set:
  @DF-RHF Final Energy:  -305.85580281080502
    Total Energy =                       -305.8558028108050166
  Basis Set: 6-31G*
  Basis Set:
  @DF-RHF Final Energy:  -305.85602075452073
    Total Energy =                       -305.8560207545205571
  @DF-RHF Final Energy:  -305.85680069988820
    Total Energy =                       -305.8568006998883675
  @DF-RHF Final Energy:  -305.85606583374664
    Total Energy =                       -305.8560658337466975
  @DF-RHF Final Energy:  -305.85693424514199
    Total Energy =                       -305.8569342451417015
  Basis Set: 6-31G*
  Basis Set:
  @DF-RHF Final Energy:  -305.85695938228963
    Total Energy =                       -305.8569593822895740
  Basis Set: 6-31G*
  Basis Set:
  Basis Set: 6-31G*
  Basis Set:
  @DF-RHF Final Energy:  -305.85696063242187
    Total Energy =                       -305.8569606324221581
  Basis Set: 6-31G*
  Basis Set:
  Basis Set: 6-31G*
  Basis Set:
  @DF-RHF Final Energy:  -305.85696180652587
    Total Energy =                       -305.8569618065259874
  Basis Set: 6-31G*
  Basis Set:
  Charge       = 0
  Multiplicity = 1
  Basis Set: 6-31G*
  Basis Set:

    Orbital Energies (a.u.)
    -----------------------

    Doubly Occupied:

       1A    -20.603449     2A    -20.539600     3A    -11.374573
       4A    -11.297483     5A    -11.249351     6A    -11.221055
       7A     -1.464156     8A     -1.365554     9A     -1.063784
      10A     -0.988083    11A     -0.899931    12A     -0.768978
      13A     -0.706208    14A     -0.689278    15A     -0.672645
      16A     -0.625957    17A     -0.603842    18A     -0.556663
      19A     -0.556543    20A     -0.526757    21A     -0.508732
      22A     -0.505527    23A     -0.447066    24A     -0.432667

  @DF-RHF Final Energy:  -305.85696189860670

   => Energetics <=

    Nuclear Repulsion Energy =            247.5627818156532953
    One-Electron Energy =                -907.5037272435572504
    Two-Electron Energy =                 354.0839835292969155
    DFT Exchange-Correlation Energy =       0.0000000000000000
    Empirical Dispersion Energy =           0.0000000000000000
    PCM Polarization Energy =               0.0000000000000000
    EFP Energy =                            0.0000000000000000
    Total Energy =                       -305.8569618986069827
    Molecular point group: c1
  Basis Set: 6-31G*
  Basis Set:

  -Total Gradient:
     Atom            X                  Y                   Z
    ------   -----------------  -----------------  -----------------
       1        0.000005755100     0.000000462426    -0.000000645327
       2        0.000013424398    -0.000019046010     0.000000261746
       3       -0.000011857289     0.000009882671     0.000000853040
       4       -0.000007618775     0.000012535566    -0.000002630181
       5        0.000002267610    -0.000005991448    -0.000000197521
       6       -0.000001027405     0.000001229102     0.000001936236
       7       -0.000005686164     0.000001970296    -0.000002050518
       8        0.000001476816    -0.000001912007     0.000001343407
       9       -0.000003191082     0.000000916742     0.000000024556
      10        0.000000746220    -0.000001098075    -0.000001010445
      11        0.000002464829    -0.000013405591     0.000004821605
      12        0.000005333162     0.000001853839    -0.000003083668
      13       -0.000003758658     0.000006331598    -0.000000424556
      14        0.000001671236     0.000006270892     0.000000801626

  **** Optimization is complete! (in 12 steps) ****
    Final optimized geometry and variables:
    Molecular point group: c1

    Geometry (in Angstrom), charge = 0, multiplicity = 1:

    O            0.325496525249     1.561291948895     0.000093415541
    C            0.239955684521     0.380447171438     0.000081928925
    C           -1.087818146975    -0.353147890995    -0.000117592097
    O            1.358886708952    -0.348222530699     0.000238633334
    C           -2.275289255808     0.602699206677    -0.000515585308
    H           -1.125478306267    -1.005288159945    -0.868117401239
    H           -1.125880053425    -1.005056032458     0.868042666079
    H           -2.258691386188     1.241121449022    -0.874504378321
    H           -3.203366764719     0.041045878153    -0.000650192501
    H           -2.259091244790     1.241367168535     0.873301080130
    C            1.364471460357    -1.755776600164     0.000218498716
    H            0.888118289115    -2.158837329581     0.885031648388
    H            2.404225107958    -2.043414923848     0.000190565644
    H            0.888084645013    -2.158782891561    -0.884601850344

  Mulliken Charges: (a.u.)
   Center  Symbol    Alpha    Beta     Spin     Total
       1     O     4.26732  4.26732  0.00000 -0.53464
       2     C     2.60117  2.60117  0.00000  0.79767
       3     C     3.23080  3.23080  0.00000 -0.46159
       4     O     4.30164  4.30164  0.00000 -0.60327
       5     C     3.23436  3.23436  0.00000 -0.46871
       6     H     0.40376  0.40376  0.00000  0.19248
       7     H     0.40376  0.40376  0.00000  0.19249
       8     H     0.40687  0.40687  0.00000  0.18626
       9     H     0.41910  0.41910  0.00000  0.16180
      10     H     0.40686  0.40686  0.00000  0.18627
      11     C     3.09352  3.09352  0.00000 -0.18704
      12     H     0.41671  0.41671  0.00000  0.16659
      13     H     0.39744  0.39744  0.00000  0.20512
      14     H     0.41671  0.41671  0.00000  0.16658

   Total alpha = 24.00000, Total beta = 24.00000, Total charge = -0.00000
