  ==> Input File <==

--------------------------------------------------------------------------
set {
	reference rhf
	basis 6-31G*
}

set_num_threads( 4 )
memory 2 gb

molecule MOL {
0 1

H	 2.574426	 -2.946483	 -1.898080
C	 2.548501	 -2.250430	 -1.065861
C	 1.292429	 -1.381579	 -1.114270
H	 2.588630	 -2.831620	 -0.148890
H	 3.449858	 -1.645824	 -1.113341
C	 1.217350	 -0.386724	 0.039429
H	 0.404174	 -2.005173	 -1.091389
H	 1.266126	 -0.839219	 -2.057957
N	 0.000003	 0.397874	 -0.023260
H	 1.217261	 -0.929191	 0.981073
H	 2.116431	 0.238591	 0.042949
C	 -1.217365	 -0.386708	 0.039277
H	 -0.000031	 1.072115	 0.718656
C	 -2.452633	 0.504241	 -0.042481
H	 -1.215291	 -1.074557	 -0.802042
H	 -1.269739	 -1.003477	 0.942735
C	 -3.758029	 -0.289423	 -0.010781
H	 -2.394220	 1.093569	 -0.952170
H	 -2.440793	 1.210787	 0.785871
H	 -3.816659	 -0.981993	 -0.845726
H	 -4.617837	 0.370165	 -0.069296
H	 -3.847478	 -0.867502	 0.904682

	symmetry c1
}
set optking {
	frozen_dihedral = ("
		10 6 9 12
	")
}

ee = optimize('scf')
oeprop('DIPOLE', 'QUADRUPOLE', 'MULLIKEN_CHARGES')
f=open( 'psi4out.xyz', 'w' )
f.write( "22  " )
f.write( str(ee) + "\n" )
f.write( MOL.save_string_xyz() )
f.close()
--------------------------------------------------------------------------

    Molecular point group: c1
  Charge       = 0
  Multiplicity = 1
  Basis Set: 6-31G*
  Basis Set:
  @DF-RHF Final Energy:  -290.37619724959342
    Total Energy =                       -290.3761972495931900
    Molecular point group: c1
  Basis Set: 6-31G*
  Basis Set:
  Basis Set: 6-31G*
  Basis Set:
  @DF-RHF Final Energy:  -290.37876243588209
    Total Energy =                       -290.3787624358824360
  Basis Set: 6-31G*
  Basis Set:
  Basis Set: 6-31G*
  Basis Set:
  @DF-RHF Final Energy:  -290.38045487020844
    Total Energy =                       -290.3804548702080410
  Basis Set: 6-31G*
  Basis Set:
  Basis Set: 6-31G*
  Basis Set:
  @DF-RHF Final Energy:  -290.38060649088487
    Total Energy =                       -290.3806064908847020
  Basis Set: 6-31G*
  Basis Set:
  Basis Set: 6-31G*
  Basis Set:
  @DF-RHF Final Energy:  -290.38062023149399
    Total Energy =                       -290.3806202314937082
  Basis Set: 6-31G*
  Basis Set:
  Basis Set: 6-31G*
  Basis Set:
  @DF-RHF Final Energy:  -290.38062218133268
    Total Energy =                       -290.3806221813326829
  Basis Set: 6-31G*
  Basis Set:
  Charge       = 0
  Multiplicity = 1
  Basis Set: 6-31G*
  Basis Set:

    Orbital Energies (a.u.)
    -----------------------

    Doubly Occupied:

       1A    -15.532956     2A    -11.238384     3A    -11.237065
       4A    -11.214501     5A    -11.211455     6A    -11.210181
       7A    -11.208836     8A     -1.203148     9A     -1.057132
      10A     -1.027100    11A     -0.928900    12A     -0.873630
      13A     -0.811314    14A     -0.784028    15A     -0.658195
      16A     -0.641105    17A     -0.620085    18A     -0.607661
      19A     -0.573920    20A     -0.553051    21A     -0.551931
      22A     -0.525268    23A     -0.502721    24A     -0.487616
      25A     -0.479801    26A     -0.471551    27A     -0.460424
      28A     -0.457888    29A     -0.356608

  @DF-RHF Final Energy:  -290.38062240004035

   => Energetics <=

    Nuclear Repulsion Energy =            317.4226492957794790
    One-Electron Energy =               -1020.6336304138521882
    Two-Electron Energy =                 412.8303587180323575
    DFT Exchange-Correlation Energy =       0.0000000000000000
    Empirical Dispersion Energy =           0.0000000000000000
    PCM Polarization Energy =               0.0000000000000000
    EFP Energy =                            0.0000000000000000
    Total Energy =                       -290.3806224000403517
    Molecular point group: c1
  Basis Set: 6-31G*
  Basis Set:

  -Total Gradient:
     Atom            X                  Y                   Z
    ------   -----------------  -----------------  -----------------
       1       -0.000001444474     0.000004409327    -0.000001982940
       2        0.000006605075     0.000007967244     0.000001867148
       3       -0.000009748313    -0.000014784990     0.000009734514
       4       -0.000000536475     0.000001531494    -0.000001167099
       5        0.000004632595    -0.000003294219     0.000000878121
       6       -0.001510978206    -0.002593673112    -0.002138717791
       7       -0.000003313683     0.000003384451    -0.000000443785
       8       -0.000003191419     0.000000045547    -0.000000120774
       9        0.000304710904     0.000910718072     0.003042818150
      10        0.001175758409     0.001942030464     0.000997097436
      11        0.000012312808    -0.000001985832     0.000004303812
      12        0.000024848984    -0.000261879177    -0.001917815824
      13        0.000001960846     0.000003879206     0.000005812852
      14        0.000001512409     0.000005163154    -0.000011561329
      15        0.000007041075     0.000002902694    -0.000001356485
      16       -0.000004720496    -0.000008076045     0.000001438805
      17       -0.000000130612     0.000000327355     0.000017385884
      18        0.000004005568    -0.000004811721    -0.000005426629
      19       -0.000005778680     0.000007644831    -0.000003672521
      20       -0.000000610908     0.000006284546    -0.000002331577
      21       -0.000000766225    -0.000000755454     0.000006373612
      22       -0.000002169181    -0.000007027836    -0.000003113579

  **** Optimization is complete! (in 7 steps) ****
    Final optimized geometry and variables:
    Molecular point group: c1

    Geometry (in Angstrom), charge = 0, multiplicity = 1:

    H            3.176760011459    -2.322326635311    -1.560321131979
    C            3.063591619479    -1.612635214884    -0.747081660009
    C            1.698699636174    -0.926420183045    -0.802528139008
    H            3.194460025685    -2.156299988861     0.184541593897
    H            3.871372651427    -0.890422264210    -0.824383231594
    C            1.509022099274     0.066668835620     0.341196215541
    H            0.921889933837    -1.684812161499    -0.776361050510
    H            1.586264243236    -0.393511878309    -1.742281807596
    N            0.303446913338     0.867737397830     0.217326509992
    H            1.560458516655    -0.460669722006     1.299931838746
    H            2.347066039567     0.758268875542     0.333384300019
    C           -0.952750621813     0.146852529932     0.300793026144
    H            0.319272227882     1.587639201816     0.912926468719
    C           -2.132786172792     1.113889470762     0.300867646701
    H           -1.037288245069    -0.507645646699    -0.559530585114
    H           -1.006565444707    -0.494176977486     1.187899445051
    C           -3.483023879995     0.400069112780     0.345180270590
    H           -2.068491038746     1.737552738569    -0.585541116605
    H           -2.050819378642     1.781596170222     1.157135443372
    H           -3.612482465288    -0.248590217077    -0.516513503302
    H           -4.301528084352     1.112689638923     0.346720401812
    H           -3.577293782674    -0.212648646828     1.237282895972

  Mulliken Charges: (a.u.)
   Center  Symbol    Alpha    Beta     Spin     Total
       1     H     0.41789  0.41789  0.00000  0.16421
       2     C     3.24340  3.24340  0.00000 -0.48680
       3     C     3.15738  3.15738  0.00000 -0.31476
       4     H     0.42179  0.42179  0.00000  0.15643
       5     H     0.42109  0.42109  0.00000  0.15782
       6     C     3.04946  3.04946  0.00000 -0.09892
       7     H     0.42133  0.42133  0.00000  0.15734
       8     H     0.41417  0.41417  0.00000  0.17166
       9     N     3.85773  3.85773  0.00000 -0.71547
      10     H     0.43613  0.43613  0.00000  0.12773
      11     H     0.42111  0.42111  0.00000  0.15779
      12     C     3.04911  3.04911  0.00000 -0.09821
      13     H     0.33292  0.33292  0.00000  0.33415
      14     C     3.15757  3.15757  0.00000 -0.31514
      15     H     0.41927  0.41927  0.00000  0.16146
      16     H     0.43730  0.43730  0.00000  0.12540
      17     C     3.24286  3.24286  0.00000 -0.48571
      18     H     0.41290  0.41290  0.00000  0.17421
      19     H     0.42692  0.42692  0.00000  0.14617
      20     H     0.42050  0.42050  0.00000  0.15900
      21     H     0.41773  0.41773  0.00000  0.16455
      22     H     0.42144  0.42144  0.00000  0.15711

   Total alpha = 29.00000, Total beta = 29.00000, Total charge = -0.00000
