  ==> Input File <==

--------------------------------------------------------------------------
set {
	reference rhf
	basis 6-31G*
}

set_num_threads( 4 )
memory 2 gb

molecule MOL {
0 1

H	 -0.606252	 3.668397	 2.831104
O	 0.076668	 3.075932	 2.550904
C	 -0.456792	 2.125384	 1.665202
C	 0.663849	 1.194467	 1.237062
H	 -1.250879	 1.556302	 2.146739
H	 -0.888885	 2.614368	 0.793117
C	 0.198102	 0.111031	 0.262842
H	 1.089369	 0.739590	 2.127425
H	 1.450855	 1.791973	 0.785304
C	 1.331804	 -0.827780	 -0.158768
H	 -0.604831	 -0.460839	 0.721575
H	 -0.226265	 0.578356	 -0.624873
C	 2.723619	 -0.410569	 0.329459
H	 1.342964	 -0.912588	 -1.244120
H	 1.116806	 -1.824343	 0.220779
C	 3.243875	 0.895854	 -0.272975
H	 3.424222	 -1.207124	 0.091250
H	 2.714788	 -0.329854	 1.414619
H	 3.251977	 0.848779	 -1.358681
H	 2.637085	 1.747371	 0.016682
H	 4.259473	 1.094070	 0.055697

	symmetry c1
}
set optking {
	frozen_dihedral = ("
		4 7 10 14
	")
}

ee = optimize('scf')
oeprop('DIPOLE', 'QUADRUPOLE', 'MULLIKEN_CHARGES')
f=open( 'psi4out.xyz', 'w' )
f.write( "21  " )
f.write( str(ee) + "\n" )
f.write( MOL.save_string_xyz() )
f.close()
--------------------------------------------------------------------------

    Molecular point group: c1
  Charge       = 0
  Multiplicity = 1
  Basis Set: 6-31G*
  Basis Set:
  @DF-RHF Final Energy:  -310.18389129646272
    Total Energy =                       -310.1838912964628889
    Molecular point group: c1
  Basis Set: 6-31G*
  Basis Set:
  Basis Set: 6-31G*
  Basis Set:
  @DF-RHF Final Energy:  -310.19758879577154
    Total Energy =                       -310.1975887957715372
  Basis Set: 6-31G*
  Basis Set:
  Basis Set: 6-31G*
  Basis Set:
  @DF-RHF Final Energy:  -310.20065367073710
    Total Energy =                       -310.2006536707370969
  Basis Set: 6-31G*
  Basis Set:
  Basis Set: 6-31G*
  Basis Set:
  @DF-RHF Final Energy:  -310.20132414785445
    Total Energy =                       -310.2013241478546206
  Basis Set: 6-31G*
  Basis Set:
  @DF-RHF Final Energy:  -310.20163931046420
    Total Energy =                       -310.2016393104642589
  Basis Set: 6-31G*
  Basis Set:
  @DF-RHF Final Energy:  -310.20170349601705
    Total Energy =                       -310.2017034960169894
  Basis Set: 6-31G*
  Basis Set:
  Basis Set: 6-31G*
  Basis Set:
  @DF-RHF Final Energy:  -310.20171982189771
    Total Energy =                       -310.2017198218977114
  Basis Set: 6-31G*
  Basis Set:
  Basis Set: 6-31G*
  Basis Set:
  @DF-RHF Final Energy:  -310.20172263626637
    Total Energy =                       -310.2017226362666520
  Basis Set: 6-31G*
  Basis Set:
  Charge       = 0
  Multiplicity = 1
  Basis Set: 6-31G*
  Basis Set:

    Orbital Energies (a.u.)
    -----------------------

    Doubly Occupied:

       1A    -20.552042     2A    -11.267137     3A    -11.216847
       4A    -11.214377     5A    -11.212763     6A    -11.210453
       7A    -11.205768     8A     -1.358854     9A     -1.081726
      10A     -1.029238    11A     -0.955073    12A     -0.873472
      13A     -0.820120    14A     -0.764852    15A     -0.688492
      16A     -0.660568    17A     -0.625117    18A     -0.615498
      19A     -0.570789    20A     -0.566778    21A     -0.540991
      22A     -0.526711    23A     -0.503199    24A     -0.494500
      25A     -0.477716    26A     -0.449592    27A     -0.447302
      28A     -0.445024    29A     -0.434170

  @DF-RHF Final Energy:  -310.20172339169847

   => Energetics <=

    Nuclear Repulsion Energy =            319.2708633439050345
    One-Electron Energy =               -1053.3268375791162725
    Two-Electron Energy =                 423.8542508435127729
    DFT Exchange-Correlation Energy =       0.0000000000000000
    Empirical Dispersion Energy =           0.0000000000000000
    PCM Polarization Energy =               0.0000000000000000
    EFP Energy =                            0.0000000000000000
    Total Energy =                       -310.2017233916984651
    Molecular point group: c1
  Basis Set: 6-31G*
  Basis Set:

  -Total Gradient:
     Atom            X                  Y                   Z
    ------   -----------------  -----------------  -----------------
       1       -0.000003870635    -0.000003909784    -0.000009397983
       2        0.000018066589    -0.000010250479    -0.000007071751
       3       -0.000034574096    -0.000006008325     0.000019285232
       4        0.000864207014     0.002409654753    -0.002704647420
       5        0.000007888056    -0.000004685244    -0.000004831587
       6        0.000009899204     0.000006559383     0.000000255545
       7       -0.000569577668    -0.002719320284     0.004016087193
       8        0.000018066077     0.000000194402    -0.000037203589
       9        0.000018680016     0.000051875752    -0.000011495333
      10       -0.003488272989    -0.003468776441    -0.001269836685
      11       -0.000028877709    -0.000010837977    -0.000000230179
      12        0.000032532006    -0.000016295384    -0.000015508871
      13        0.000028221676    -0.000014816212    -0.000032063501
      14        0.003158945010     0.003787210404     0.000019685747
      15       -0.000007487224     0.000003110759     0.000001788909
      16       -0.000018407018     0.000001587113     0.000022841035
      17        0.000001953329    -0.000030195227     0.000000448932
      18        0.000003278363     0.000014750800    -0.000011071070
      19        0.000015205104    -0.000032280338    -0.000000159817
      20       -0.000013530106     0.000038320341     0.000012226936
      21       -0.000012345000     0.000004111988     0.000010898253

  **** Optimization is complete! (in 9 steps) ****
    Final optimized geometry and variables:
    Molecular point group: c1

    Geometry (in Angstrom), charge = 0, multiplicity = 1:

    H           -2.026432323279     2.657189400297     2.093355556074
    O           -1.288677183396     2.117175698031     1.848304665831
    C           -1.691328815048     1.175738226866     0.886850703773
    C           -0.482758847301     0.332449265609     0.516942862494
    H           -2.484089654661     0.541184278583     1.280545926669
    H           -2.082870454690     1.675913178617     0.002064423569
    C           -0.832295293514    -0.726627465892    -0.533584312252
    H           -0.108963748607    -0.129514299849     1.425601160359
    H            0.293142295233     0.999744788822     0.162003301656
    C            0.303045723399    -1.677797398364    -1.012052703906
    H           -1.648427779588    -1.333613957529    -0.150299537490
    H           -1.239133086469    -0.209979502694    -1.399855985907
    C            1.744758767110    -1.367178446208    -0.570489849856
    H            0.312491142334    -1.683131926406    -2.098551419983
    H            0.063344057178    -2.688026811167    -0.696698162280
    C            2.424246353069    -0.262851973991    -1.383987232175
    H            2.329670249863    -2.276402266602    -0.686169700879
    H            1.780749129254    -1.124652947167     0.486541721966
    H            2.491946794182    -0.545614360589    -2.431073012042
    H            1.886002524491     0.677356927042    -1.334564511130
    H            3.433356479042    -0.081729417413    -1.026306649248

  Mulliken Charges: (a.u.)
   Center  Symbol    Alpha    Beta     Spin     Total
       1     H     0.28112  0.28112  0.00000  0.43776
       2     O     4.37220  4.37220  0.00000 -0.74440
       3     C     2.98909  2.98909  0.00000  0.02181
       4     C     3.16431  3.16431  0.00000 -0.32863
       5     H     0.43278  0.43278  0.00000  0.13444
       6     H     0.43291  0.43291  0.00000  0.13417
       7     C     3.16449  3.16449  0.00000 -0.32898
       8     H     0.41408  0.41408  0.00000  0.17184
       9     H     0.41126  0.41126  0.00000  0.17748
      10     C     3.15622  3.15622  0.00000 -0.31244
      11     H     0.42081  0.42081  0.00000  0.15838
      12     H     0.42206  0.42206  0.00000  0.15588
      13     C     3.15661  3.15661  0.00000 -0.31322
      14     H     0.42120  0.42120  0.00000  0.15760
      15     H     0.41922  0.41922  0.00000  0.16156
      16     C     3.24050  3.24050  0.00000 -0.48099
      17     H     0.42085  0.42085  0.00000  0.15831
      18     H     0.41826  0.41826  0.00000  0.16348
      19     H     0.42289  0.42289  0.00000  0.15422
      20     H     0.41987  0.41987  0.00000  0.16026
      21     H     0.41926  0.41926  0.00000  0.16147

   Total alpha = 29.00000, Total beta = 29.00000, Total charge = -0.00000
