  ==> Input File <==

--------------------------------------------------------------------------
set {
	reference rhf
	basis 6-31G*
}

set_num_threads( 4 )
memory 2 gb

molecule MOL {
0 1

H	 -3.161837	 0.500524	 -0.000234
C	 -2.367097	 -0.232926	 -0.000000
O	 -1.158440	 0.455814	 -0.000122
H	 -2.468853	 -0.861886	 -0.882833
H	 -2.468942	 -0.861421	 0.883154
C	 -0.070345	 -0.294041	 -0.449165
C	 1.176264	 0.572005	 -0.398243
H	 -0.248641	 -0.641535	 -1.467673
H	 0.058183	 -1.179707	 0.174521
C	 2.423671	 -0.170642	 -0.875035
H	 1.008222	 1.453471	 -1.009340
H	 1.312985	 0.919049	 0.621349
H	 2.316884	 -0.505720	 -1.903015
H	 3.297632	 0.470298	 -0.827766
H	 2.623472	 -1.044474	 -0.261111

	symmetry c1
}
set optking {
	frozen_dihedral = ("
		6 3 2 4
	")
}

ee = optimize('scf')
oeprop('DIPOLE', 'QUADRUPOLE', 'MULLIKEN_CHARGES')
f=open( 'psi4out.xyz', 'w' )
f.write( "15  " )
f.write( str(ee) + "\n" )
f.write( MOL.save_string_xyz() )
f.close()
--------------------------------------------------------------------------

    Molecular point group: c1
  Charge       = 0
  Multiplicity = 1
  Basis Set: 6-31G*
  Basis Set:
  @DF-RHF Final Energy:  -232.13836156841981
    Total Energy =                       -232.1383615684198389
    Molecular point group: c1
  Basis Set: 6-31G*
  Basis Set:
  Basis Set: 6-31G*
  Basis Set:
  @DF-RHF Final Energy:  -232.13840755949781
    Total Energy =                       -232.1384075594976935
  Basis Set: 6-31G*
  Basis Set:
  Basis Set: 6-31G*
  Basis Set:
  @DF-RHF Final Energy:  -232.13842298600085
    Total Energy =                       -232.1384229860008190
  Basis Set: 6-31G*
  Basis Set:
  Charge       = 0
  Multiplicity = 1
  Basis Set: 6-31G*
  Basis Set:

    Orbital Energies (a.u.)
    -----------------------

    Doubly Occupied:

       1A    -20.552405     2A    -11.266478     3A    -11.263897
       4A    -11.214158     5A    -11.212901     6A     -1.376974
       7A     -1.057185     8A     -0.955292     9A     -0.877373
      10A     -0.809105    11A     -0.673623    12A     -0.653651
      13A     -0.630421    14A     -0.607108    15A     -0.565522
      16A     -0.541904    17A     -0.502575    18A     -0.489565
      19A     -0.478172    20A     -0.461306    21A     -0.411957

  @DF-RHF Final Energy:  -232.13842308043047

   => Energetics <=

    Nuclear Repulsion Energy =            189.6461987547550052
    One-Electron Energy =                -690.3661008150070302
    Two-Electron Energy =                 268.5814789798212132
    DFT Exchange-Correlation Energy =       0.0000000000000000
    Empirical Dispersion Energy =           0.0000000000000000
    PCM Polarization Energy =               0.0000000000000000
    EFP Energy =                            0.0000000000000000
    Total Energy =                       -232.1384230804308118
    Molecular point group: c1
  Basis Set: 6-31G*
  Basis Set:

  -Total Gradient:
     Atom            X                  Y                   Z
    ------   -----------------  -----------------  -----------------
       1       -0.000002225248    -0.000000052373    -0.000002346153
       2       -0.001658305365     0.002924083505    -0.002561267559
       3        0.000816539969    -0.001523491105     0.003242406090
       4        0.001174572167    -0.002036688747     0.001337735853
       5        0.000004030258    -0.000006602674     0.000002267811
       6       -0.000362026712     0.000650751620    -0.002000432533
       7        0.000004087362    -0.000012156427    -0.000007147743
       8        0.000000918980     0.000004783641     0.000008824153
       9       -0.000002427474    -0.000001464843    -0.000004427076
      10        0.000019096793     0.000012452852    -0.000013137837
      11        0.000007376593     0.000002611331     0.000002412055
      12       -0.000011956290    -0.000010291129    -0.000003524737
      13        0.000000711887    -0.000003845605     0.000002080428
      14        0.000010596334    -0.000004573868    -0.000005891507
      15       -0.000000989254     0.000004483821     0.000002448756

  **** Optimization is complete! (in 4 steps) ****
    Final optimized geometry and variables:
    Molecular point group: c1

    Geometry (in Angstrom), charge = 0, multiplicity = 1:

    H           -3.137989276330     0.450099065253     0.354780468120
    C           -2.341778862726    -0.281721733914     0.342218468141
    O           -1.127658150039     0.400424088032     0.335221816829
    H           -2.449851174035    -0.918382927462    -0.533313801808
    H           -2.431281674437    -0.914125274574     1.223969537884
    C           -0.037215594947    -0.351485060008    -0.105959405500
    C            1.208069667224     0.516251840696    -0.052509162019
    H           -0.212560256368    -0.700526431876    -1.123912618737
    H            0.092102529702    -1.235636130642     0.519977174408
    C            2.457114954977    -0.223929965992    -0.529124403514
    H            1.038752274920     1.398222394541    -0.662587305438
    H            1.343581891517     0.862246770221     0.967553789339
    H            2.351244245510    -0.558856444098    -1.557261672367
    H            3.329993550173     0.418504817116    -0.481533773318
    H            2.658315108142    -1.097708362170     0.084429742022

  Mulliken Charges: (a.u.)
   Center  Symbol    Alpha    Beta     Spin     Total
       1     H     0.41317  0.41317  0.00000  0.17365
       2     C     3.07805  3.07805  0.00000 -0.15611
       3     O     4.30710  4.30710  0.00000 -0.61420
       4     H     0.43137  0.43137  0.00000  0.13726
       5     H     0.42848  0.42848  0.00000  0.14305
       6     C     2.98163  2.98163  0.00000  0.03674
       7     C     3.15989  3.15989  0.00000 -0.31979
       8     H     0.43279  0.43279  0.00000  0.13443
       9     H     0.43378  0.43378  0.00000  0.13245
      10     C     3.24793  3.24793  0.00000 -0.49585
      11     H     0.41431  0.41431  0.00000  0.17138
      12     H     0.41434  0.41434  0.00000  0.17132
      13     H     0.42091  0.42091  0.00000  0.15817
      14     H     0.41541  0.41541  0.00000  0.16919
      15     H     0.42085  0.42085  0.00000  0.15831

   Total alpha = 21.00000, Total beta = 21.00000, Total charge = -0.00000
