  ==> Input File <==

--------------------------------------------------------------------------
set {
	reference rhf
	basis 6-31G*
}

set_num_threads( 4 )
memory 2 gb

molecule MOL {
0 1

O	 -0.524041	 -1.816361	 -1.460572
C	 -1.451018	 -1.526599	 -0.774011
C	 -2.718711	 -2.337135	 -0.688840
O	 -1.481751	 -0.454642	 0.000584
H	 -2.468944	 -3.340766	 -0.366033
H	 -3.432194	 -1.898813	 -0.006744
H	 -3.152377	 -2.409798	 -1.679059
C	 -0.334255	 0.388708	 0.000906
C	 0.891947	 -0.504646	 0.000751
H	 -0.365390	 1.025305	 -0.873475
H	 -0.365484	 1.024911	 0.875569
C	 2.191998	 0.301789	 0.000897
H	 0.855148	 -1.151283	 -0.871571
H	 0.855132	 -1.151660	 0.872805
C	 3.441114	 -0.581407	 0.000108
H	 2.215074	 0.954890	 -0.869742
H	 2.215465	 0.953923	 0.872248
C	 4.739576	 0.224112	 -0.001102
H	 3.419457	 -1.233487	 -0.870178
H	 3.420834	 -1.233096	 0.870717
H	 4.804918	 0.861552	 -0.878265
H	 5.606527	 -0.429058	 -0.001824
H	 4.806469	 0.861674	 0.875853

	symmetry c1
}
set optking {
	frozen_dihedral = ("
		2 4 8 10
	")
}

ee = optimize('scf')
oeprop('DIPOLE', 'QUADRUPOLE', 'MULLIKEN_CHARGES')
f=open( 'psi4out.xyz', 'w' )
f.write( "23  " )
f.write( str(ee) + "\n" )
f.write( MOL.save_string_xyz() )
f.close()
--------------------------------------------------------------------------

    Molecular point group: c1
  Charge       = 0
  Multiplicity = 1
  Basis Set: 6-31G*
  Basis Set:
  @DF-RHF Final Energy:  -422.94260463882603
    Total Energy =                       -422.9426046388256282
    Molecular point group: c1
  Basis Set: 6-31G*
  Basis Set:
  Basis Set: 6-31G*
  Basis Set:
  @DF-RHF Final Energy:  -422.96680541397723
    Total Energy =                       -422.9668054139765445
  Basis Set: 6-31G*
  Basis Set:
  Basis Set: 6-31G*
  Basis Set:
  @DF-RHF Final Energy:  -422.97162258360743
    Total Energy =                       -422.9716225836075409
  Basis Set: 6-31G*
  Basis Set:
  Basis Set: 6-31G*
  Basis Set:
  @DF-RHF Final Energy:  -422.96979527431824
    Total Energy =                       -422.9697952743181304
  Basis Set: 6-31G*
  Basis Set:
  Basis Set: 6-31G*
  Basis Set:
  @DF-RHF Final Energy:  -422.97304290044531
    Total Energy =                       -422.9730429004451935
  Basis Set: 6-31G*
  Basis Set:
  Basis Set: 6-31G*
  Basis Set:
  @DF-RHF Final Energy:  -422.97334249067592
    Total Energy =                       -422.9733424906758046
  Basis Set: 6-31G*
  Basis Set:
  Basis Set: 6-31G*
  Basis Set:
  @DF-RHF Final Energy:  -422.97336106799747
    Total Energy =                       -422.9733610679983258
  Basis Set: 6-31G*
  Basis Set:
  Charge       = 0
  Multiplicity = 1
  Basis Set: 6-31G*
  Basis Set:

    Orbital Energies (a.u.)
    -----------------------

    Doubly Occupied:

       1A    -20.601761     2A    -20.539483     3A    -11.375064
       4A    -11.285466     5A    -11.231145     6A    -11.221797
       7A    -11.218807     8A    -11.218279     9A    -11.211021
      10A     -1.464156    11A     -1.360883    12A     -1.091058
      13A     -1.039978    14A     -1.001274    15A     -0.932529
      16A     -0.856459    17A     -0.799002    18A     -0.753528
      19A     -0.695889    20A     -0.677235    21A     -0.662577
      22A     -0.646072    23A     -0.606310    24A     -0.589519
      25A     -0.580935    26A     -0.569232    27A     -0.552701
      28A     -0.538964    29A     -0.520611    30A     -0.513652
      31A     -0.488754    32A     -0.475665    33A     -0.469117
      34A     -0.465559    35A     -0.440853    36A     -0.429200

  @DF-RHF Final Energy:  -422.97336206195229

   => Energetics <=

    Nuclear Repulsion Energy =            458.0194907825791120
    One-Electron Energy =               -1483.7366383784346908
    Two-Electron Energy =                 602.7437855339026100
    DFT Exchange-Correlation Energy =       0.0000000000000000
    Empirical Dispersion Energy =           0.0000000000000000
    PCM Polarization Energy =               0.0000000000000000
    EFP Energy =                            0.0000000000000000
    Total Energy =                       -422.9733620619529120
    Molecular point group: c1
  Basis Set: 6-31G*
  Basis Set:

  -Total Gradient:
     Atom            X                  Y                   Z
    ------   -----------------  -----------------  -----------------
       1        0.000147038034    -0.000195523892    -0.000101916901
       2        0.002282006746    -0.003213121577     0.004117415539
       3        0.000049017630    -0.000110158287     0.000128265385
       4       -0.004026267505     0.006373144750    -0.005359645769
       5       -0.000078663593    -0.000015168344    -0.000056348376
       6       -0.000011256701    -0.000022391718    -0.000025131846
       7       -0.000053669294     0.000013573737     0.000020554870
       8        0.004157301012    -0.007367803767    -0.002500444380
       9       -0.000137857335    -0.000073274476     0.000034071668
      10       -0.002603206834     0.004718184870     0.003631164587
      11        0.000181397388    -0.000185974850    -0.000087532264
      12       -0.000180402396     0.000038188225     0.000099801576
      13        0.000015678280    -0.000018913408    -0.000115431768
      14        0.000015470661    -0.000037639464     0.000178793592
      15       -0.000008067769     0.000036769508     0.000034263040
      16        0.000005116689     0.000065824489     0.000053501959
      17        0.000123417948     0.000033615596     0.000032008595
      18        0.000072549665    -0.000033749650    -0.000065198255
      19        0.000009905751    -0.000054528207    -0.000004681796
      20        0.000022808275     0.000043717698     0.000000936345
      21        0.000003410865     0.000005957796     0.000005276437
      22        0.000032501474     0.000023259452    -0.000010781849
      23       -0.000018228990    -0.000023988483    -0.000008940391

  **** Optimization is complete! (in 8 steps) ****
    Final optimized geometry and variables:
    Molecular point group: c1

    Geometry (in Angstrom), charge = 0, multiplicity = 1:

    O           -1.485255214401    -1.215513418314    -1.392043741259
    C           -2.170499733131    -0.845115155319    -0.493165220683
    C           -3.449245188484    -1.535001450153    -0.087652486804
    O           -1.926148009812     0.221580106990     0.248820778508
    H           -3.218522021878    -2.556191169682     0.192185457521
    H           -3.938059121452    -1.031748407500     0.733211174016
    H           -4.110917575005    -1.572748517548    -0.944620150920
    C           -0.696436137450     0.941189976652     0.147334325547
    C            0.578098226245     0.110125852439     0.197506410246
    H           -0.749272533785     1.590824896085    -0.718128442592
    H           -0.730242845551     1.586496063749     1.014958392408
    C            1.801232203054     1.010499727720     0.396876175822
    H            0.687972073232    -0.470452315074    -0.706294325435
    H            0.501624868293    -0.590778410029     1.026063890813
    C            3.115431901058     0.227277280919     0.414715140602
    H            1.840341565115     1.751706167039    -0.400030690906
    H            1.703905764127     1.567179265145     1.327542385143
    C            4.340097137003     1.122616739321     0.598544896141
    H            3.212065393087    -0.332103581069    -0.512663477256
    H            3.083228721393    -0.509666520139     1.214085382006
    H            4.418367576303     1.849816737066    -0.204677520751
    H            5.255382190916     0.539095648161     0.606053063442
    H            4.289269707202     1.670012290254     1.535579969393

  Mulliken Charges: (a.u.)
   Center  Symbol    Alpha    Beta     Spin     Total
       1     O     4.28437  4.28437  0.00000 -0.56874
       2     C     2.61289  2.61289  0.00000  0.77421
       3     C     3.28776  3.28776  0.00000 -0.57552
       4     O     4.31839  4.31839  0.00000 -0.63678
       5     H     0.39852  0.39852  0.00000  0.20297
       6     H     0.39985  0.39985  0.00000  0.20030
       7     H     0.39763  0.39763  0.00000  0.20473
       8     C     2.98916  2.98916  0.00000  0.02167
       9     C     3.17985  3.17985  0.00000 -0.35970
      10     H     0.41240  0.41240  0.00000  0.17520
      11     H     0.41140  0.41140  0.00000  0.17719
      12     C     3.16062  3.16062  0.00000 -0.32125
      13     H     0.39080  0.39080  0.00000  0.21840
      14     H     0.41863  0.41863  0.00000  0.16273
      15     C     3.15117  3.15117  0.00000 -0.30235
      16     H     0.42144  0.42144  0.00000  0.15712
      17     H     0.42339  0.42339  0.00000  0.15322
      18     C     3.23985  3.23985  0.00000 -0.47971
      19     H     0.41913  0.41913  0.00000  0.16175
      20     H     0.42174  0.42174  0.00000  0.15653
      21     H     0.42112  0.42112  0.00000  0.15776
      22     H     0.41801  0.41801  0.00000  0.16398
      23     H     0.42185  0.42185  0.00000  0.15630

   Total alpha = 36.00000, Total beta = 36.00000, Total charge =  0.00000
