  ==> Input File <==

--------------------------------------------------------------------------
set {
	reference rhf
	basis 6-31G*
}

set_num_threads( 4 )
memory 2 gb

molecule MOL {
0 1

H	 4.595788	 0.292963	 -0.576765
C	 3.740774	 -0.347948	 -0.387200
C	 2.439030	 0.452142	 -0.403981
H	 3.734896	 -1.123095	 -1.148344
H	 3.896528	 -0.829993	 0.573851
C	 1.210591	 -0.412574	 -0.140158
H	 2.314827	 0.945868	 -1.362729
H	 2.491028	 1.239833	 0.345839
N	 -0.005703	 0.374354	 -0.193368
H	 1.143902	 -1.183014	 -0.903663
H	 1.328117	 -0.933950	 0.815736
C	 -1.217365	 -0.386708	 0.039277
H	 0.051517	 1.121053	 0.473121
C	 -2.452633	 0.504241	 -0.042481
H	 -1.279992	 -1.157153	 -0.724562
H	 -1.204156	 -0.907031	 1.002850
C	 -3.758029	 -0.289423	 -0.010781
H	 -2.394220	 1.093569	 -0.952170
H	 -2.440793	 1.210787	 0.785871
H	 -3.816659	 -0.981993	 -0.845726
H	 -4.617837	 0.370165	 -0.069296
H	 -3.847478	 -0.867502	 0.904682

	symmetry c1
}
set optking {
	frozen_dihedral = ("
		15 12 14 18
	")
}

ee = optimize('scf')
oeprop('DIPOLE', 'QUADRUPOLE', 'MULLIKEN_CHARGES')
f=open( 'psi4out.xyz', 'w' )
f.write( "22  " )
f.write( str(ee) + "\n" )
f.write( MOL.save_string_xyz() )
f.close()
--------------------------------------------------------------------------

    Molecular point group: c1
  Charge       = 0
  Multiplicity = 1
  Basis Set: 6-31G*
  Basis Set:
  @DF-RHF Final Energy:  -290.38302795493570
    Total Energy =                       -290.3830279549356419
    Molecular point group: c1
  Basis Set: 6-31G*
  Basis Set:
  Basis Set: 6-31G*
  Basis Set:
  @DF-RHF Final Energy:  -290.38305137564055
    Total Energy =                       -290.3830513756403775
  Basis Set: 6-31G*
  Basis Set:
  Basis Set: 6-31G*
  Basis Set:
  @DF-RHF Final Energy:  -290.38306197784243
    Total Energy =                       -290.3830619778423170
  Basis Set: 6-31G*
  Basis Set:
  Charge       = 0
  Multiplicity = 1
  Basis Set: 6-31G*
  Basis Set:

    Orbital Energies (a.u.)
    -----------------------

    Doubly Occupied:

       1A    -15.533793     2A    -11.237961     3A    -11.237842
       4A    -11.213505     5A    -11.213427     6A    -11.209838
       7A    -11.209698     8A     -1.205713     9A     -1.059226
      10A     -1.025943    11A     -0.928179    12A     -0.868341
      13A     -0.811399    14A     -0.793780    15A     -0.668307
      16A     -0.626060    17A     -0.615088    18A     -0.613228
      19A     -0.573756    20A     -0.563258    21A     -0.529685
      22A     -0.527735    23A     -0.516291    24A     -0.485477
      25A     -0.482395    26A     -0.474345    27A     -0.465544
      28A     -0.450599    29A     -0.359056

  @DF-RHF Final Energy:  -290.38306239205855

   => Energetics <=

    Nuclear Repulsion Energy =            313.1720206436760350
    One-Electron Energy =               -1012.1112250984741650
    Two-Electron Energy =                 408.5561420627394682
    DFT Exchange-Correlation Energy =       0.0000000000000000
    Empirical Dispersion Energy =           0.0000000000000000
    PCM Polarization Energy =               0.0000000000000000
    EFP Energy =                            0.0000000000000000
    Total Energy =                       -290.3830623920586049
    Molecular point group: c1
  Basis Set: 6-31G*
  Basis Set:

  -Total Gradient:
     Atom            X                  Y                   Z
    ------   -----------------  -----------------  -----------------
       1        0.000000914576    -0.000000838570    -0.000002513302
       2        0.000001143754    -0.000000479736    -0.000009236675
       3        0.000003191126     0.000002205800    -0.000002536844
       4        0.000000632729    -0.000002142463     0.000002012862
       5       -0.000000591952     0.000003169711     0.000000580554
       6       -0.000007777145    -0.000017192681     0.000003837532
       7        0.000005757694     0.000005392298     0.000002168323
       8       -0.000002742759    -0.000001827604     0.000002517008
       9       -0.000005287687     0.000008763421    -0.000040105018
      10        0.000002367124     0.000000562752     0.000001431834
      11       -0.000008571555     0.000001335157     0.000002382605
      12        0.001035281843     0.001382397907    -0.000965248997
      13       -0.000019861936    -0.000005788692     0.000006087379
      14       -0.001086893072    -0.001562910581    -0.000712839593
      15       -0.000693518798    -0.000896939774     0.000978272328
      16        0.000005128169    -0.000030178420     0.000006911061
      17        0.000013322137    -0.000006660056    -0.000013788310
      18        0.000724238464     0.001096128015     0.000743245085
      19        0.000010842494     0.000008449885    -0.000000434762
      20       -0.000008422594     0.000002012189    -0.000004151061
      21        0.000010556265     0.000007364230     0.000007671634
      22        0.000020291122     0.000007177211    -0.000006263642

  **** Optimization is complete! (in 4 steps) ****
    Final optimized geometry and variables:
    Molecular point group: c1

    Geometry (in Angstrom), charge = 0, multiplicity = 1:

    H            4.604042356361     0.316220793088    -0.403464769437
    C            3.748361182890    -0.324350893381    -0.215675557262
    C            2.446207009511     0.474683019944    -0.244740952835
    H            3.747701832348    -1.103591425508    -0.972615669681
    H            3.898578429512    -0.801073877619     0.748913214165
    C            1.216713108106    -0.389870478853     0.014464370644
    H            2.328165258349     0.964144543764    -1.206414309901
    H            2.492440262009     1.265698221250     0.502032041119
    N            0.000145394268     0.395760856267    -0.051115263541
    H            1.155839767550    -1.163879020516    -0.745870553968
    H            1.327727898624    -0.906676109480     0.973586990813
    C           -1.211737542463    -0.366384925971     0.173707264152
    H            0.050637786328     1.143909807205     0.614520122744
    C           -2.448347564092     0.524616045416     0.108055224326
    H           -1.278865741366    -1.134469032562    -0.592272662603
    H           -1.198305894648    -0.896538363202     1.132229616255
    C           -3.754429896454    -0.265423396608     0.163453615289
    H           -2.399040771540     1.118310108991    -0.799500611578
    H           -2.421198109861     1.232027798641     0.935748675530
    H           -3.837561456977    -0.945534728398    -0.679380325409
    H           -4.613384000087     0.397370938065     0.138629311951
    H           -3.820294633783    -0.856297408898     1.072836156521

  Mulliken Charges: (a.u.)
   Center  Symbol    Alpha    Beta     Spin     Total
       1     H     0.41773  0.41773  0.00000  0.16453
       2     C     3.24327  3.24327  0.00000 -0.48654
       3     C     3.15550  3.15550  0.00000 -0.31101
       4     H     0.42069  0.42069  0.00000  0.15861
       5     H     0.42168  0.42168  0.00000  0.15664
       6     C     3.04660  3.04660  0.00000 -0.09321
       7     H     0.41298  0.41298  0.00000  0.17403
       8     H     0.42669  0.42669  0.00000  0.14662
       9     N     3.85813  3.85813  0.00000 -0.71626
      10     H     0.42169  0.42169  0.00000  0.15661
      11     H     0.43625  0.43625  0.00000  0.12751
      12     C     3.04612  3.04612  0.00000 -0.09223
      13     H     0.33531  0.33531  0.00000  0.32938
      14     C     3.15712  3.15712  0.00000 -0.31425
      15     H     0.42198  0.42198  0.00000  0.15604
      16     H     0.43645  0.43645  0.00000  0.12709
      17     C     3.24298  3.24298  0.00000 -0.48595
      18     H     0.41244  0.41244  0.00000  0.17512
      19     H     0.42667  0.42667  0.00000  0.14666
      20     H     0.42026  0.42026  0.00000  0.15947
      21     H     0.41775  0.41775  0.00000  0.16450
      22     H     0.42169  0.42169  0.00000  0.15662

   Total alpha = 29.00000, Total beta = 29.00000, Total charge = -0.00000
