                              Psi4 1.0.54 Driver

  ==> Input File <==

--------------------------------------------------------------------------
set {
	reference rhf
	basis cc-pvtz
}

set_num_threads( 4 )
memory 2 gb

molecule MOL {
0 1

H	 1.894033	 4.863307	 0.070205
C	 2.429252	 4.568247	 0.983093
C	 1.612322	 3.778266	 1.969220
O	 3.558629	 4.882792	 1.134341
C	 0.919680	 2.570032	 1.331965
H	 2.253442	 3.483731	 2.789921
H	 0.857928	 4.456881	 2.361235
C	 1.887034	 1.482333	 0.870100
H	 0.225887	 2.152582	 2.053579
H	 0.316195	 2.903308	 0.491176
C	 1.181757	 0.280428	 0.247371
H	 2.481847	 1.153268	 1.718051
H	 2.590837	 1.896136	 0.152566
C	 2.151032	 -0.811012	 -0.202643
H	 0.474527	 -0.123044	 0.965271
H	 0.595207	 0.611627	 -0.606774
C	 3.580021	 -0.656538	 0.320835
H	 2.170545	 -0.847575	 -1.289412
H	 1.766632	 -1.772905	 0.124928
C	 4.327657	 0.562694	 -0.213579
H	 4.138806	 -1.549270	 0.057813
H	 3.561991	 -0.620783	 1.406976
H	 4.355973	 0.557257	 -1.298551
H	 3.867136	 1.491650	 0.100501
H	 5.351524	 0.571613	 0.142204

	symmetry c1
}
set optking {
	frozen_dihedral = ("
		8 11 14 18
	")
}

ee,wfn = optimize('scf', return_wfn=True)
oeprop( wfn, 'DIPOLE', 'QUADRUPOLE', 'MULLIKEN_CHARGES')
f=open( 'psi4out.xyz', 'w' )
f.write( "25  " )
f.write( str(ee) + "\n" )
f.write( MOL.save_string_xyz() )
f.close()
--------------------------------------------------------------------------

    Molecular point group: c1
  Charge       = 0
  Multiplicity = 1
  Basis Set: CC-PVTZ
  Basis Set:
  @DF-RHF Final Energy:  -387.22211590630383
    Total Energy =                       -387.2221159063033156
    Molecular point group: c1
  Basis Set: CC-PVTZ
  Basis Set:
  Basis Set: CC-PVTZ
  Basis Set:
  @DF-RHF Final Energy:  -387.24212445547789
    Total Energy =                       -387.2421244554773239
  Basis Set: CC-PVTZ
  Basis Set:
  Basis Set: CC-PVTZ
  Basis Set:
  @DF-RHF Final Energy:  -387.24673674899623
    Total Energy =                       -387.2467367489964545
  Basis Set: CC-PVTZ
  Basis Set:
  Basis Set: CC-PVTZ
  Basis Set:
  @DF-RHF Final Energy:  -387.24800084328251
    Total Energy =                       -387.2480008432826253
  Basis Set: CC-PVTZ
  Basis Set:
  @DF-RHF Final Energy:  -387.24783810717975
    Total Energy =                       -387.2478381071799731
  @DF-RHF Final Energy:  -387.24729749154676
    Total Energy =                       -387.2472974915463055
  @DF-RHF Final Energy:  -387.24859857133055
    Total Energy =                       -387.2485985713298078
  Basis Set: CC-PVTZ
  Basis Set:
  @DF-RHF Final Energy:  -387.24865309211066
    Total Energy =                       -387.2486530921107715
  Basis Set: CC-PVTZ
  Basis Set:
  Basis Set: CC-PVTZ
  Basis Set:
  @DF-RHF Final Energy:  -387.24866408149683
    Total Energy =                       -387.2486640814968268
  Basis Set: CC-PVTZ
  Basis Set:
  Basis Set: CC-PVTZ
  Basis Set:
  @DF-RHF Final Energy:  -387.24866894077934
    Total Energy =                       -387.2486689407795666
  Basis Set: CC-PVTZ
  Basis Set:
  Charge       = 0
  Multiplicity = 1
  Basis Set: CC-PVTZ
  Basis Set:

    Orbital Energies (a.u.)
    -----------------------

    Doubly Occupied:

       1A    -20.551640     2A    -11.321188     3A    -11.233858
       4A    -11.232772     5A    -11.221185     6A    -11.219050
       7A    -11.215960     8A    -11.215366     9A    -11.205096
      10A     -1.406615    11A     -1.103448    12A     -1.066388
      13A     -1.011052    14A     -0.947370    15A     -0.874768
      16A     -0.828619    17A     -0.789474    18A     -0.770301
      19A     -0.669056    20A     -0.662180    21A     -0.629913
      22A     -0.624257    23A     -0.610934    24A     -0.594986
      25A     -0.567005    26A     -0.557967    27A     -0.533046
      28A     -0.523295    29A     -0.517386    30A     -0.497808
      31A     -0.491074    32A     -0.484712    33A     -0.452588
      34A     -0.448725    35A     -0.444183    36A     -0.412071

  @DF-RHF Final Energy:  -387.24866930693105

   => Energetics <=

    Nuclear Repulsion Energy =            451.2469592518216928
    One-Electron Energy =               -1419.1205876593130597
    Two-Electron Energy =                 580.6249591005600905
    DFT Exchange-Correlation Energy =       0.0000000000000000
    Empirical Dispersion Energy =           0.0000000000000000
    PCM Polarization Energy =               0.0000000000000000
    EFP Energy =                            0.0000000000000000
    Total Energy =                       -387.2486693069313333
    Molecular point group: c1
  Basis Set: CC-PVTZ
  Basis Set:

  -Total Gradient:
     Atom            X                  Y                   Z
    ------   -----------------  -----------------  -----------------
       1       -0.000011573930    -0.000002775923     0.000006742546
       2        0.000015621671    -0.000000997593    -0.000022496346
       3        0.000000509008     0.000029864642     0.000004593938
       4        0.000003371021    -0.000007117780     0.000009375243
       5       -0.000001908128    -0.000006040201    -0.000014178363
       6       -0.000004921655    -0.000004508344     0.000001184117
       7       -0.000005177923    -0.000003880051    -0.000005772674
       8       -0.000012082276    -0.001412880533     0.002820621737
       9        0.000013020788    -0.000007938444    -0.000000429006
      10       -0.000004256057     0.000001354568     0.000005719771
      11       -0.000671452134     0.001421444820    -0.004155149539
      12        0.000021565783    -0.000013475052     0.000011803751
      13        0.000008108719    -0.000006241972     0.000023091835
      14        0.003599841176     0.002922035096     0.001160690626
      15        0.000015862799    -0.000003075092    -0.000002101456
      16       -0.000001416603    -0.000009586507    -0.000003895671
      17        0.000007363578     0.000017374347     0.000021620857
      18       -0.002922201998    -0.002926057825     0.000133228383
      19        0.000001272654     0.000010884868     0.000005936642
      20        0.000003356890    -0.000001002669    -0.000006726077
      21       -0.000013438677    -0.000000837805    -0.000002011443
      22        0.000000066124     0.000005273095    -0.000002218734
      23       -0.000005585521     0.000001597909     0.000009176669
      24       -0.000013962189    -0.000005098209     0.000000890922
      25       -0.000021983118     0.000001684662     0.000000302274

  **** Optimization is complete! (in 11 steps) ****
    Final optimized geometry and variables:
    Molecular point group: c1

    Geometry (in Angstrom), charge = 0, multiplicity = 1:

    H           -1.204462378883     3.036694132053    -0.441412484747
    C           -0.549615891236     2.817150540429     0.412894588787
    C           -1.113294867732     1.840169265076     1.408528323563
    O            0.505491400517     3.343138312572     0.499972186308
    C           -1.587198283293     0.537849743362     0.756172881160
    H           -0.367269873372     1.655886105264     2.170687900474
    H           -1.960597417695     2.331717829184     1.881456856749
    C           -0.450358144429    -0.304646603910     0.178859832857
    H           -2.125171436646    -0.041605031943     1.498468361596
    H           -2.306417969078     0.768192203140    -0.026013518270
    C           -0.968370893370    -1.592094558516    -0.462534415235
    H            0.250932810580    -0.533614651791     0.973436924163
    H            0.095134678441     0.284781969352    -0.550161560830
    C            0.058745332820    -2.634640837937    -0.980259710233
    H           -1.593034232555    -2.082881016356     0.278277223389
    H           -1.636408938217    -1.329320282664    -1.276221498924
    C            1.516897736697    -2.560665739157    -0.510721810239
    H            0.034737693235    -2.654415400496    -2.065621347105
    H           -0.320476300225    -3.608524980625    -0.688542051417
    C            2.396918621816    -1.551740177636    -1.246075883765
    H            1.950880443835    -3.544927546090    -0.656275403180
    H            1.559017108706    -2.378488730825     0.558283402652
    H            2.390445833960    -1.746019699137    -2.313616544677
    H            2.076733553436    -0.530062514117    -1.095466790316
    H            3.423884749276    -1.623335354503    -0.905854152304

  Mulliken Charges: (a.u.)
   Center  Symbol    Alpha    Beta     Spin     Total
       1     H     0.46388  0.46388  0.00000  0.07223
       2     C     2.90574  2.90574  0.00000  0.18852
       3     C     3.08822  3.08822  0.00000 -0.17643
       4     O     4.16636  4.16636  0.00000 -0.33271
       5     C     3.11549  3.11549  0.00000 -0.23098
       6     H     0.44312  0.44312  0.00000  0.11375
       7     H     0.44045  0.44045  0.00000  0.11910
       8     C     3.10162  3.10162  0.00000 -0.20325
       9     H     0.44305  0.44305  0.00000  0.11390
      10     H     0.44954  0.44954  0.00000  0.10092
      11     C     3.09384  3.09384  0.00000 -0.18769
      12     H     0.44525  0.44525  0.00000  0.10949
      13     H     0.44639  0.44639  0.00000  0.10721
      14     C     3.09999  3.09999  0.00000 -0.19999
      15     H     0.45243  0.45243  0.00000  0.09515
      16     H     0.44899  0.44899  0.00000  0.10202
      17     C     3.10018  3.10018  0.00000 -0.20036
      18     H     0.45186  0.45186  0.00000  0.09628
      19     H     0.44676  0.44676  0.00000  0.10648
      20     C     3.14948  3.14948  0.00000 -0.29897
      21     H     0.44396  0.44396  0.00000  0.11207
      22     H     0.45143  0.45143  0.00000  0.09714
      23     H     0.45552  0.45552  0.00000  0.08897
      24     H     0.44906  0.44906  0.00000  0.10189
      25     H     0.44737  0.44737  0.00000  0.10526

   Total alpha = 36.00000, Total beta = 36.00000, Total charge = -0.00000

*** Psi4 exiting successfully. Buy a developer a beer!
