  ==> Input File <==

--------------------------------------------------------------------------
set {
	reference rhf
	basis 6-31G*
}

set_num_threads( 4 )
memory 2 gb

molecule MOL {
0 1

H	 -3.042581	 -0.665861	 0.004336
O	 -2.245037	 -1.176175	 0.000806
C	 -1.162163	 -0.365336	 0.001020
C	 -0.807346	 0.400826	 -1.094622
C	 -0.398376	 -0.327555	 1.161206
H	 -1.396839	 0.370517	 -1.995484
C	 0.320323	 1.206003	 -1.017400
H	 -0.701718	 -0.937472	 1.992531
C	 0.725216	 0.476687	 1.237670
H	 0.600500	 1.801305	 -1.868373
C	 1.083318	 1.248146	 0.131963
C	 1.542895	 0.536906	 2.506872
H	 1.956190	 1.875464	 0.175494
H	 2.605366	 0.514893	 2.289014
H	 1.316669	 -0.294979	 3.163112
H	 1.340126	 1.454354	 3.052327

	symmetry c1
}
set optking {
	frozen_dihedral = ("
		5 3 2 1
	")
}

ee = optimize('scf')
oeprop('DIPOLE', 'QUADRUPOLE', 'MULLIKEN_CHARGES')
f=open( 'psi4out.xyz', 'w' )
f.write( "16  " )
f.write( str(ee) + "\n" )
f.write( MOL.save_string_xyz() )
f.close()
--------------------------------------------------------------------------

    Molecular point group: c1
  Charge       = 0
  Multiplicity = 1
  Basis Set: 6-31G*
  Basis Set:
  @DF-RHF Final Energy:  -344.59052451171152
    Total Energy =                       -344.5905245117114646
    Molecular point group: c1
  Basis Set: 6-31G*
  Basis Set:
  Basis Set: 6-31G*
  Basis Set:
  @DF-RHF Final Energy:  -344.59103008247104
    Total Energy =                       -344.5910300824712067
  Basis Set: 6-31G*
  Basis Set:
  Basis Set: 6-31G*
  Basis Set:
  @DF-RHF Final Energy:  -344.59107783799726
    Total Energy =                       -344.5910778379970907
  Basis Set: 6-31G*
  Basis Set:
  Basis Set: 6-31G*
  Basis Set:
  @DF-RHF Final Energy:  -344.59108232037022
    Total Energy =                       -344.5910823203701625
  Basis Set: 6-31G*
  Basis Set:
  Basis Set: 6-31G*
  Basis Set:
  @DF-RHF Final Energy:  -344.59108345254657
    Total Energy =                       -344.5910834525467408
  Basis Set: 6-31G*
  Basis Set:
  Charge       = 0
  Multiplicity = 1
  Basis Set: 6-31G*
  Basis Set:

    Orbital Energies (a.u.)
    -----------------------

    Doubly Occupied:

       1A    -20.575744     2A    -11.287342     3A    -11.241060
       4A    -11.233113     5A    -11.222257     6A    -11.221511
       7A    -11.221373     8A    -11.219771     9A     -1.390900
      10A     -1.149853    11A     -1.042990    12A     -1.003468
      13A     -0.936140    14A     -0.825176    15A     -0.809718
      16A     -0.714019    17A     -0.676284    18A     -0.654059
      19A     -0.618335    20A     -0.588574    21A     -0.575056
      22A     -0.567588    23A     -0.550408    24A     -0.510972
      25A     -0.503575    26A     -0.480181    27A     -0.462501
      28A     -0.328880    29A     -0.317119

  @DF-RHF Final Energy:  -344.59108383959739

   => Energetics <=

    Nuclear Repulsion Energy =            345.0121828354096465
    One-Electron Energy =               -1151.3505919547737903
    Two-Electron Energy =                 461.7473252797665850
    DFT Exchange-Correlation Energy =       0.0000000000000000
    Empirical Dispersion Energy =           0.0000000000000000
    PCM Polarization Energy =               0.0000000000000000
    EFP Energy =                            0.0000000000000000
    Total Energy =                       -344.5910838395975020
    Molecular point group: c1
  Basis Set: 6-31G*
  Basis Set:

  -Total Gradient:
     Atom            X                  Y                   Z
    ------   -----------------  -----------------  -----------------
       1       -0.000041204942    -0.000047119551     0.001477668070
       2       -0.000307894750     0.000413847768    -0.001631036289
       3        0.000987358495    -0.001149096834    -0.000270828798
       4       -0.000011049745     0.000019531334    -0.000011060817
       5       -0.000645741649     0.000736677080     0.000427743132
       6       -0.000002085454    -0.000002062837     0.000005969273
       7       -0.000016840520    -0.000041819664     0.000001168337
       8        0.000009120644     0.000016573309    -0.000022297085
       9        0.000000820161     0.000044788399    -0.000011902167
      10        0.000002161900     0.000005218001     0.000001143081
      11        0.000014655646     0.000003385162     0.000024071504
      12        0.000004729695     0.000001238666     0.000001556471
      13       -0.000007036832     0.000000996391     0.000007094460
      14        0.000005802207    -0.000010939900     0.000000476102
      15       -0.000002278134     0.000004359232     0.000008611601
      16        0.000009483285     0.000004423453    -0.000008376874

  **** Optimization is complete! (in 6 steps) ****
    Final optimized geometry and variables:
    Molecular point group: c1

    Geometry (in Angstrom), charge = 0, multiplicity = 1:

    H           -2.888521278919    -0.888558616288    -0.419909264193
    O           -2.091907395218    -1.401786310802    -0.419455180313
    C           -0.999738882110    -0.576149607318    -0.376101568031
    C           -0.646609317324     0.184044747777    -1.476123854785
    C           -0.238247038364    -0.536867914570     0.780680094727
    H           -1.237636948197     0.131508861487    -2.372719135109
    C            0.479059102664     0.989367025695    -1.403998631349
    H           -0.540313358326    -1.145751026909     1.613586799337
    C            0.894284529751     0.261972413935     0.855330261595
    H            0.763369554549     1.582276553600    -2.255215994023
    C            1.244458042309     1.028555204727    -0.252288690779
    C            1.718228610720     0.320031795609     2.121011707127
    H            2.119783336378     1.653474772268    -0.213755926360
    H            2.779801137608     0.297835441988     1.898661323052
    H            1.495586089934    -0.514398236470     2.775565042734
    H            1.519202747342     1.235219216282     2.671887375513

  Mulliken Charges: (a.u.)
   Center  Symbol    Alpha    Beta     Spin     Total
       1     H     0.27167  0.27167  0.00000  0.45666
       2     O     4.38837  4.38837  0.00000 -0.77675
       3     C     2.81177  2.81177  0.00000  0.37647
       4     C     3.12804  3.12804  0.00000 -0.25607
       5     C     3.13438  3.13438  0.00000 -0.26875
       6     H     0.39745  0.39745  0.00000  0.20510
       7     C     3.09279  3.09279  0.00000 -0.18557
       8     H     0.39561  0.39561  0.00000  0.20877
       9     C     2.97401  2.97401  0.00000  0.05198
      10     H     0.39866  0.39866  0.00000  0.20267
      11     C     3.11763  3.11763  0.00000 -0.23527
      12     C     3.25415  3.25415  0.00000 -0.50831
      13     H     0.40249  0.40249  0.00000  0.19503
      14     H     0.41147  0.41147  0.00000  0.17707
      15     H     0.41166  0.41166  0.00000  0.17668
      16     H     0.40986  0.40986  0.00000  0.18028

   Total alpha = 29.00000, Total beta = 29.00000, Total charge =  0.00000
