  ==> Input File <==

--------------------------------------------------------------------------
set {
	reference rhf
	basis 6-31G*
}

set_num_threads( 4 )
memory 2 gb

molecule MOL {
0 1

H	 2.694285	 1.880406	 1.304085
N	 1.862285	 1.326263	 1.238929
C	 1.865559	 0.531981	 0.018834
H	 1.088939	 1.964042	 1.240562
C	 0.645745	 -0.382037	 -0.029944
H	 2.767066	 -0.073109	 0.021914
H	 1.899616	 1.139762	 -0.888823
C	 -0.679275	 0.379305	 0.025956
H	 0.698998	 -0.976915	 -0.937203
H	 0.693479	 -1.083846	 0.802235
C	 -1.903357	 -0.536963	 -0.023547
H	 -0.726309	 1.082987	 -0.803784
H	 -0.717680	 0.977832	 0.934877
C	 -3.225172	 0.228290	 0.028445
H	 -1.867824	 -1.134999	 -0.931459
H	 -1.860449	 -1.239604	 0.805977
H	 -3.313397	 0.915643	 -0.808262
H	 -4.073500	 -0.448134	 -0.008893
H	 -3.306061	 0.809945	 0.942516

	symmetry c1
}
set optking {
	frozen_dihedral = ("
		6 3 5 9
	")
}

ee = optimize('scf')
oeprop('DIPOLE', 'QUADRUPOLE', 'MULLIKEN_CHARGES')
f=open( 'psi4out.xyz', 'w' )
f.write( "19  " )
f.write( str(ee) + "\n" )
f.write( MOL.save_string_xyz() )
f.close()
--------------------------------------------------------------------------

    Molecular point group: c1
  Charge       = 0
  Multiplicity = 1
  Basis Set: 6-31G*
  Basis Set:
  @DF-RHF Final Energy:  -251.35002472281261
    Total Energy =                       -251.3500247228125772
    Molecular point group: c1
  Basis Set: 6-31G*
  Basis Set:
  Basis Set: 6-31G*
  Basis Set:
  @DF-RHF Final Energy:  -251.35041406198044
    Total Energy =                       -251.3504140619805298
  Basis Set: 6-31G*
  Basis Set:
  Basis Set: 6-31G*
  Basis Set:
  @DF-RHF Final Energy:  -251.35074675785870
    Total Energy =                       -251.3507467578588148
  Basis Set: 6-31G*
  Basis Set:
  Basis Set: 6-31G*
  Basis Set:
  @DF-RHF Final Energy:  -251.35076494177252
    Total Energy =                       -251.3507649417722405
  Basis Set: 6-31G*
  Basis Set:
  Basis Set: 6-31G*
  Basis Set:
  @DF-RHF Final Energy:  -251.35076866686242
    Total Energy =                       -251.3507686668624501
  Basis Set: 6-31G*
  Basis Set:
  Charge       = 0
  Multiplicity = 1
  Basis Set: 6-31G*
  Basis Set:

    Orbital Energies (a.u.)
    -----------------------

    Doubly Occupied:

       1A    -15.532394     2A    -11.240184     3A    -11.213268
       4A    -11.211477     5A    -11.208735     6A    -11.207071
       7A     -1.176701     8A     -1.070538     9A     -0.996797
      10A     -0.906185    11A     -0.813833    12A     -0.779657
      13A     -0.663398    14A     -0.652442    15A     -0.612808
      16A     -0.585573    17A     -0.559278    18A     -0.550255
      19A     -0.528998    20A     -0.500211    21A     -0.487909
      22A     -0.462485    23A     -0.460972    24A     -0.444100
      25A     -0.380799

  @DF-RHF Final Energy:  -251.35076921166203

   => Energetics <=

    Nuclear Repulsion Energy =            249.3062735128640099
    One-Electron Energy =                -832.8219514055454056
    Two-Electron Energy =                 332.1649086810193694
    DFT Exchange-Correlation Energy =       0.0000000000000000
    Empirical Dispersion Energy =           0.0000000000000000
    PCM Polarization Energy =               0.0000000000000000
    EFP Energy =                            0.0000000000000000
    Total Energy =                       -251.3507692116620547
    Molecular point group: c1
  Basis Set: 6-31G*
  Basis Set:

  -Total Gradient:
     Atom            X                  Y                   Z
    ------   -----------------  -----------------  -----------------
       1       -0.000013643934     0.000006967637     0.000006284541
       2       -0.000008696585     0.000011652516    -0.000000544566
       3       -0.000116113888     0.000169925322    -0.001495514371
       4       -0.000001424796     0.000003111863     0.000011062037
       5        0.000702473818    -0.000974364594     0.000929360307
       6        0.000009908635    -0.000007418925     0.001107530323
       7        0.000009189226    -0.000006353882    -0.000003070228
       8        0.000006609448     0.000001636551    -0.000037792391
       9       -0.000583628490     0.000796540850    -0.000528281498
      10        0.000010565189    -0.000023336457     0.000005680275
      11       -0.000011864081     0.000008356807     0.000002322692
      12       -0.000002526368    -0.000000489677    -0.000005424998
      13       -0.000006117486     0.000008164778    -0.000005637901
      14       -0.000001513484    -0.000005734068     0.000014806883
      15       -0.000003790204     0.000015088878    -0.000003975159
      16        0.000010607649    -0.000002417264    -0.000006391388
      17        0.000005986304    -0.000004563978     0.000002881294
      18       -0.000000821088    -0.000000074866     0.000002495414
      19       -0.000005199865     0.000003308509     0.000004208733

  **** Optimization is complete! (in 6 steps) ****
    Final optimized geometry and variables:
    Molecular point group: c1

    Geometry (in Angstrom), charge = 0, multiplicity = 1:

    H            3.039926167625     1.518397173962     1.069547055372
    N            2.148465292618     1.067064597729     1.000336851894
    C            2.084570008096     0.248075763451    -0.203646957674
    H            1.461166858048     1.794816271418     0.976465784474
    C            0.855187855905    -0.657809461646    -0.206309480371
    H            2.972853031185    -0.375068284557    -0.212239483254
    H            2.101361002725     0.838331471831    -1.123116301500
    C           -0.478327825381     0.092862842032    -0.167176101161
    H            0.885371822623    -1.268043107180    -1.107306452063
    H            0.917230176609    -1.331051753515     0.643873714272
    C           -1.689339703124    -0.836369835642    -0.272366617227
    H           -0.512095205563     0.816874576505    -0.981392945910
    H           -0.551491745609     0.659726286520     0.757699194000
    C           -3.022217545166    -0.091078976812    -0.213541579923
    H           -1.631586641163    -1.399554478138    -1.201410620896
    H           -1.649517595077    -1.568378402251     0.531233008656
    H           -3.106120753930     0.627402491537    -1.024275983232
    H           -3.860507069574    -0.776548399801    -0.291784191811
    H           -3.126240160843     0.452827995851     0.721120546926

  Mulliken Charges: (a.u.)
   Center  Symbol    Alpha    Beta     Spin     Total
       1     H     0.33206  0.33206  0.00000  0.33588
       2     N     3.92280  3.92280  0.00000 -0.84560
       3     C     3.06626  3.06626  0.00000 -0.13252
       4     H     0.33258  0.33258  0.00000  0.33485
       5     C     3.14697  3.14697  0.00000 -0.29393
       6     H     0.41926  0.41926  0.00000  0.16148
       7     H     0.43423  0.43423  0.00000  0.13154
       8     C     3.15869  3.15869  0.00000 -0.31737
       9     H     0.42571  0.42571  0.00000  0.14859
      10     H     0.41570  0.41570  0.00000  0.16859
      11     C     3.15057  3.15057  0.00000 -0.30115
      12     H     0.42726  0.42726  0.00000  0.14548
      13     H     0.41975  0.41975  0.00000  0.16051
      14     C     3.23930  3.23930  0.00000 -0.47859
      15     H     0.42364  0.42364  0.00000  0.15271
      16     H     0.42143  0.42143  0.00000  0.15714
      17     H     0.42267  0.42267  0.00000  0.15466
      18     H     0.41948  0.41948  0.00000  0.16103
      19     H     0.42165  0.42165  0.00000  0.15670

   Total alpha = 25.00000, Total beta = 25.00000, Total charge =  0.00000
