                              Psi4 1.0.54 Driver

  ==> Input File <==

--------------------------------------------------------------------------
set {
	reference rhf
	basis cc-pvtz
}

set_num_threads( 4 )
memory 2 gb

molecule MOL {
0 1

O	 2.514306	 0.069220	 0.861450
C	 1.704209	 0.119472	 -0.000093
C	 0.380337	 -0.600947	 -0.000234
O	 1.862426	 0.834053	 -1.102253
C	 -0.824290	 0.329213	 -0.000115
H	 0.371455	 -1.255476	 -0.865660
H	 0.371410	 -1.255787	 0.864952
C	 -2.146151	 -0.432825	 -0.000068
H	 -0.773936	 0.979158	 -0.866319
H	 -0.773838	 0.979034	 0.866186
C	 -3.366283	 0.483552	 0.000557
H	 -2.189286	 -1.084450	 -0.869996
H	 -2.188867	 -1.085083	 0.869399
C	 -4.687436	 -0.278003	 0.000108
H	 -3.325150	 1.134819	 -0.867957
H	 -3.325087	 1.133730	 0.869885
H	 -4.773783	 -0.912098	 -0.876078
H	 -5.531922	 0.401392	 0.000363
H	 -4.773901	 -0.912898	 0.875703
C	 3.065008	 1.564454	 -1.235054
H	 3.165325	 2.282575	 -0.434772
H	 3.002059	 2.071365	 -2.184226
H	 3.917256	 0.901337	 -1.222311

	symmetry c1
}
set optking {
	frozen_dihedral = ("
		1 2 3 6
	")
}

ee,wfn = optimize('scf', return_wfn=True)
oeprop( wfn, 'DIPOLE', 'QUADRUPOLE', 'MULLIKEN_CHARGES')
f=open( 'psi4out.xyz', 'w' )
f.write( "23  " )
f.write( str(ee) + "\n" )
f.write( MOL.save_string_xyz() )
f.close()
--------------------------------------------------------------------------

    Molecular point group: c1
  Charge       = 0
  Multiplicity = 1
  Basis Set: CC-PVTZ
  Basis Set:
  @DF-RHF Final Energy:  -423.12953380515569
    Total Energy =                       -423.1295338051559156
    Molecular point group: c1
  Basis Set: CC-PVTZ
  Basis Set:
  Basis Set: CC-PVTZ
  Basis Set:
  @DF-RHF Final Energy:  -423.12970129909837
    Total Energy =                       -423.1297012990983148
  Basis Set: CC-PVTZ
  Basis Set:
  Basis Set: CC-PVTZ
  Basis Set:
  @DF-RHF Final Energy:  -423.12888176316767
    Total Energy =                       -423.1288817631676693
  Basis Set: CC-PVTZ
  Basis Set:
  Basis Set: CC-PVTZ
  Basis Set:
  @DF-RHF Final Energy:  -423.12983446547776
    Total Energy =                       -423.1298344654782113
  Basis Set: CC-PVTZ
  Basis Set:
  Basis Set: CC-PVTZ
  Basis Set:
  @DF-RHF Final Energy:  -423.12984519755372
    Total Energy =                       -423.1298451975535500
  Basis Set: CC-PVTZ
  Basis Set:
  Basis Set: CC-PVTZ
  Basis Set:
  @DF-RHF Final Energy:  -423.12984731436302
    Total Energy =                       -423.1298473143623369
  Basis Set: CC-PVTZ
  Basis Set:
  Charge       = 0
  Multiplicity = 1
  Basis Set: CC-PVTZ
  Basis Set:

    Orbital Energies (a.u.)
    -----------------------

    Doubly Occupied:

       1A    -20.596796     2A    -20.532571     3A    -11.363323
       4A    -11.278519     5A    -11.232461     6A    -11.226110
       7A    -11.219504     8A    -11.218079     9A    -11.210242
      10A     -1.471750    11A     -1.364381    12A     -1.098407
      13A     -1.046751    14A     -0.984970    15A     -0.935705
      16A     -0.848199    17A     -0.798946    18A     -0.775471
      19A     -0.695739    20A     -0.683663    21A     -0.676033
      22A     -0.655308    23A     -0.609673    24A     -0.594388
      25A     -0.580149    26A     -0.571460    27A     -0.546328
      28A     -0.532830    29A     -0.525223    30A     -0.506923
      31A     -0.491753    32A     -0.478858    33A     -0.471218
      34A     -0.469222    35A     -0.458157    36A     -0.429766

  @DF-RHF Final Energy:  -423.12984743824506

   => Energetics <=

    Nuclear Repulsion Energy =            455.6666911671113667
    One-Electron Energy =               -1479.2353256274411706
    Two-Electron Energy =                 600.4387870220849663
    DFT Exchange-Correlation Energy =       0.0000000000000000
    Empirical Dispersion Energy =           0.0000000000000000
    PCM Polarization Energy =               0.0000000000000000
    EFP Energy =                            0.0000000000000000
    Total Energy =                       -423.1298474382448376
    Molecular point group: c1
  Basis Set: CC-PVTZ
  Basis Set:

  -Total Gradient:
     Atom            X                  Y                   Z
    ------   -----------------  -----------------  -----------------
       1        0.000186912602    -0.000387549529    -0.000260487436
       2       -0.000251677481     0.000502119476     0.000426556688
       3       -0.000119214645     0.000238924734    -0.000411497496
       4        0.000018447616     0.000004838362    -0.000018213193
       5       -0.000005424982    -0.000001958375    -0.000009978157
       6        0.000176575486    -0.000343195028     0.000252669918
       7       -0.000000203856    -0.000000514009    -0.000003255366
       8        0.000003848561     0.000001229141     0.000016386151
       9       -0.000002378047     0.000002304014     0.000003921337
      10       -0.000001833191    -0.000014575142    -0.000001081550
      11       -0.000002969520     0.000002640570    -0.000001968534
      12        0.000006159304     0.000003706098     0.000006431388
      13        0.000004989614     0.000004178444     0.000002846731
      14        0.000001174999    -0.000000264310    -0.000009594198
      15       -0.000003156822     0.000003992654     0.000000918251
      16       -0.000000060122    -0.000006377242     0.000000244803
      17       -0.000001211862    -0.000001346084     0.000000455208
      18       -0.000001288814     0.000001120149    -0.000002048534
      19        0.000003591508     0.000003560406    -0.000000960935
      20       -0.000014767592    -0.000006413896     0.000003342059
      21        0.000001045063    -0.000005871440     0.000000888925
      22       -0.000001436459     0.000000081049    -0.000001250644
      23        0.000002878647    -0.000000630040     0.000005674586

  **** Optimization is complete! (in 7 steps) ****
    Final optimized geometry and variables:
    Molecular point group: c1

    Geometry (in Angstrom), charge = 0, multiplicity = 1:

    O            2.635200722647    -0.225883868890     1.040829565905
    C            1.832214820939    -0.159963569382     0.173029921353
    C            0.500579854841    -0.864525671334     0.179410198450
    O            2.017039051537     0.547140180619    -0.929942717936
    C           -0.690928462551     0.095654721046     0.137395377518
    H            0.471265007154    -1.525390855445    -0.680490739929
    H            0.470755533699    -1.473021169017     1.071727389158
    C           -2.027264238089    -0.638813722637     0.185328223891
    H           -0.636213930202     0.697647755073    -0.761763014903
    H           -0.625732653029     0.780858987665     0.977897035570
    C           -3.229586791932     0.300150089246     0.149442035506
    H           -2.086881804576    -1.329854686991    -0.652193581081
    H           -2.073340701061    -1.246285965845     1.085696329307
    C           -4.564373068095    -0.435927090086     0.193943738381
    H           -3.182978171234     0.908011500862    -0.749844240679
    H           -3.170621604531     0.989956885191     0.986724655657
    H           -4.668510578496    -1.109251891311    -0.650360601087
    H           -5.396106945328     0.258438989755     0.167176528414
    H           -4.655670318719    -1.026452090266     1.099430375020
    C            3.234008796205     1.255410217937    -1.050203410435
    H            3.338376047478     1.972413290692    -0.249497596575
    H            3.191097369462     1.762157592057    -2.000655469931
    H            4.073565865877     0.576639013383    -1.026804067743

  Mulliken Charges: (a.u.)
   Center  Symbol    Alpha    Beta     Spin     Total
       1     O     4.20021  4.20021  0.00000 -0.40042
       2     C     2.81030  2.81030  0.00000  0.37941
       3     C     3.07687  3.07687  0.00000 -0.15375
       4     O     4.14947  4.14947  0.00000 -0.29893
       5     C     3.10070  3.10070  0.00000 -0.20140
       6     H     0.44689  0.44689  0.00000  0.10622
       7     H     0.43721  0.43721  0.00000  0.12558
       8     C     3.09092  3.09092  0.00000 -0.18185
       9     H     0.44303  0.44303  0.00000  0.11394
      10     H     0.44853  0.44853  0.00000  0.10293
      11     C     3.08418  3.08418  0.00000 -0.16836
      12     H     0.45419  0.45419  0.00000  0.09161
      13     H     0.45269  0.45269  0.00000  0.09461
      14     C     3.15032  3.15032  0.00000 -0.30064
      15     H     0.45383  0.45383  0.00000  0.09235
      16     H     0.45338  0.45338  0.00000  0.09323
      17     H     0.45492  0.45492  0.00000  0.09015
      18     H     0.44765  0.44765  0.00000  0.10469
      19     H     0.45452  0.45452  0.00000  0.09096
      20     C     3.03748  3.03748  0.00000 -0.07497
      21     H     0.45428  0.45428  0.00000  0.09144
      22     H     0.44569  0.44569  0.00000  0.10861
      23     H     0.45271  0.45271  0.00000  0.09457

   Total alpha = 36.00000, Total beta = 36.00000, Total charge = -0.00000

*** Psi4 exiting successfully. Buy a developer a beer!
