                              Psi4 1.0.54 Driver

  ==> Input File <==

--------------------------------------------------------------------------
set {
	reference rhf
	basis cc-pvtz
}

set_num_threads( 4 )
memory 2 gb

molecule MOL {
0 1

H	 -3.297947	 0.056092	 -1.175879
O	 -2.512108	 -0.469279	 -1.188595
C	 -1.526927	 0.233314	 -0.636585
C	 -0.234133	 -0.536400	 -0.620638
O	 -1.690484	 1.329244	 -0.224084
C	 0.926581	 0.227233	 0.000178
H	 -0.017824	 -0.818239	 -1.646067
H	 -0.422589	 -1.465741	 -0.092880
C	 2.220156	 -0.582071	 -0.000088
H	 1.073630	 1.155728	 -0.539922
H	 0.668375	 0.507441	 1.015183
C	 3.466689	 0.296012	 -0.000457
H	 2.239073	 -1.234095	 -0.869382
H	 2.239505	 -1.233985	 0.869270
H	 3.493549	 0.935857	 -0.875887
H	 4.368821	 -0.304526	 -0.001199
H	 3.494559	 0.935166	 0.875458

	symmetry c1
}
set optking {
	frozen_dihedral = ("
		10 6 9 13
	")
}

ee,wfn = optimize('scf', return_wfn=True)
oeprop( wfn, 'DIPOLE', 'QUADRUPOLE', 'MULLIKEN_CHARGES')
f=open( 'psi4out.xyz', 'w' )
f.write( "17  " )
f.write( str(ee) + "\n" )
f.write( MOL.save_string_xyz() )
f.close()
--------------------------------------------------------------------------

    Molecular point group: c1
  Charge       = 0
  Multiplicity = 1
  Basis Set: CC-PVTZ
  Basis Set:
  @DF-RHF Final Energy:  -345.04652093211291
    Total Energy =                       -345.0465209321130828
    Molecular point group: c1
  Basis Set: CC-PVTZ
  Basis Set:
  Basis Set: CC-PVTZ
  Basis Set:
  @DF-RHF Final Energy:  -345.04675878841346
    Total Energy =                       -345.0467587884133991
  Basis Set: CC-PVTZ
  Basis Set:
  Basis Set: CC-PVTZ
  Basis Set:
  @DF-RHF Final Energy:  -345.04656683453214
    Total Energy =                       -345.0465668345319727
  Basis Set: CC-PVTZ
  Basis Set:
  Basis Set: CC-PVTZ
  Basis Set:
  @DF-RHF Final Energy:  -345.04683813205713
    Total Energy =                       -345.0468381320573599
  Basis Set: CC-PVTZ
  Basis Set:
  Basis Set: CC-PVTZ
  Basis Set:
  @DF-RHF Final Energy:  -345.04683957967001
    Total Energy =                       -345.0468395796701770
  Basis Set: CC-PVTZ
  Basis Set:
  Charge       = 0
  Multiplicity = 1
  Basis Set: CC-PVTZ
  Basis Set:

    Orbital Energies (a.u.)
    -----------------------

    Doubly Occupied:

       1A    -20.604242     2A    -20.540860     3A    -11.373796
       4A    -11.239906     5A    -11.221052     6A    -11.220446
       7A    -11.211252     8A     -1.477836     9A     -1.369381
      10A     -1.092071    11A     -1.019978    12A     -0.915128
      13A     -0.825738    14A     -0.791530    15A     -0.704083
      16A     -0.689321    17A     -0.669977    18A     -0.628641
      19A     -0.594079    20A     -0.588753    21A     -0.573210
      22A     -0.538133    23A     -0.511815    24A     -0.484866
      25A     -0.484103    26A     -0.478521    27A     -0.467829
      28A     -0.446247

  @DF-RHF Final Energy:  -345.04683974288110

   => Energetics <=

    Nuclear Repulsion Energy =            304.7068991349808016
    One-Electron Energy =               -1073.9818881072185377
    Two-Electron Energy =                 424.2281492293566316
    DFT Exchange-Correlation Energy =       0.0000000000000000
    Empirical Dispersion Energy =           0.0000000000000000
    PCM Polarization Energy =               0.0000000000000000
    EFP Energy =                            0.0000000000000000
    Total Energy =                       -345.0468397428810476
    Molecular point group: c1
  Basis Set: CC-PVTZ
  Basis Set:

  -Total Gradient:
     Atom            X                  Y                   Z
    ------   -----------------  -----------------  -----------------
       1        0.000022185974     0.000001733248     0.000004248266
       2       -0.000012482697    -0.000022998012    -0.000006029033
       3        0.000002599181     0.000042824216     0.000012376187
       4       -0.000025497726    -0.000005167155     0.000013609793
       5        0.000013923123    -0.000029779158    -0.000012518496
       6       -0.001875053572    -0.003121526953    -0.003964626549
       7        0.000001422948     0.000008913716    -0.000001258935
       8        0.000000691604     0.000004848879    -0.000005068397
       9        0.002703848042     0.004227487450    -0.001867397336
      10        0.001122319367     0.001919861231     0.003603373388
      11       -0.000003883585    -0.000003262752     0.000005349486
      12        0.000010161516    -0.000001462149     0.000002315641
      13       -0.001960489274    -0.003013228432     0.002208142823
      14        0.000004414702    -0.000004308469     0.000006516524
      15       -0.000005179728    -0.000002709511    -0.000001903831
      16        0.000005175937    -0.000002728862     0.000000770789
      17       -0.000004155815     0.000001502716     0.000002099678

  **** Optimization is complete! (in 6 steps) ****
    Final optimized geometry and variables:
    Molecular point group: c1

    Geometry (in Angstrom), charge = 0, multiplicity = 1:

    H           -3.365476114351    -0.036312114568    -0.730939785688
    O           -2.575781082809    -0.554776410887    -0.766938513024
    C           -1.583064448563     0.153730512136    -0.236285580888
    C           -0.283954853696    -0.605143279570    -0.257115425413
    O           -1.745959713390     1.245146119456     0.188099208904
    C            0.885992991232     0.164551311476     0.334408141200
    H           -0.092730336511    -0.883010813866    -1.288325583854
    H           -0.449915139513    -1.537275864437     0.273791402273
    C            2.180447310266    -0.653295271881     0.365720546204
    H            1.039749659218     1.091388532624    -0.206569558235
    H            0.632644847827     0.472651666321     1.342602619021
    C            3.434959268085     0.207609251962     0.439087094306
    H            2.224586127323    -1.314550260128    -0.495476736393
    H            2.153127760530    -1.317411663179     1.225695798893
    H            3.530576882376     0.834188419373    -0.440983339374
    H            4.327014763558    -0.403542310361     0.511318592283
    H            3.408812297116     0.859523442200     1.305880508579

  Mulliken Charges: (a.u.)
   Center  Symbol    Alpha    Beta     Spin     Total
       1     H     0.38238  0.38238  0.00000  0.23525
       2     O     4.15982  4.15982  0.00000 -0.31963
       3     C     2.80506  2.80506  0.00000  0.38988
       4     C     3.11062  3.11062  0.00000 -0.22124
       5     O     4.19088  4.19088  0.00000 -0.38176
       6     C     3.08423  3.08423  0.00000 -0.16846
       7     H     0.43784  0.43784  0.00000  0.12433
       8     H     0.43743  0.43743  0.00000  0.12514
       9     C     3.08635  3.08635  0.00000 -0.17271
      10     H     0.44713  0.44713  0.00000  0.10574
      11     H     0.44535  0.44535  0.00000  0.10931
      12     C     3.14801  3.14801  0.00000 -0.29601
      13     H     0.45645  0.45645  0.00000  0.08710
      14     H     0.45308  0.45308  0.00000  0.09385
      15     H     0.45432  0.45432  0.00000  0.09137
      16     H     0.44844  0.44844  0.00000  0.10313
      17     H     0.45264  0.45264  0.00000  0.09472

   Total alpha = 28.00000, Total beta = 28.00000, Total charge = -0.00000

*** Psi4 exiting successfully. Buy a developer a beer!
