  ==> Input File <==

--------------------------------------------------------------------------
set {
	reference rhf
	basis 6-31G*
}

set_num_threads( 1 )
memory 2 gb

molecule MOL {
0 1

H	 -2.937319	 -0.204620	 1.958032
C	 -3.149605	 -0.344318	 0.890773
C	 -2.696669	 0.782851	 -0.001947
O	 -3.699116	 -1.328476	 0.514980
C	 -1.220012	 1.144545	 0.209990
H	 -2.895418	 0.505491	 -1.030674
H	 -3.314895	 1.647590	 0.236125
C	 -0.252658	 0.041456	 -0.226725
H	 -1.005419	 2.053023	 -0.344900
H	 -1.053809	 1.384444	 1.259076
C	 1.180775	 0.282413	 0.250794
H	 -0.266029	 -0.034465	 -1.312038
H	 -0.597733	 -0.921000	 0.146291
C	 2.148627	 -0.814315	 -0.201312
H	 1.516199	 1.249228	 -0.115937
H	 1.192670	 0.346017	 1.338083
C	 3.580890	 -0.659131	 0.322722
H	 2.166869	 -0.852443	 -1.289387
H	 1.762857	 -1.776509	 0.128956
C	 4.324889	 0.564933	 -0.213704
H	 4.142010	 -1.551473	 0.056605
H	 3.564836	 -0.624694	 1.410140
H	 4.342616	 0.565491	 -1.300421
H	 3.866655	 1.493402	 0.110242
H	 5.353900	 0.572371	 0.132816

	symmetry c1
}
set optking {
	frozen_dihedral = ("
		6 3 5 8,
		6 3 2 4,
		12 8 11 14,
		8 11 14 18,
		20 17 14 18
	")
}

ee = energy('scf')
oeprop('DIPOLE', 'QUADRUPOLE', 'MULLIKEN_CHARGES')
f=open( 'psi4out.xyz', 'w' )
f.write( "25  " )
f.write( str(ee) + "\n" )
f.write( MOL.save_string_xyz() )
f.close()
--------------------------------------------------------------------------

    Molecular point group: c1

    Geometry (in Angstrom), charge = 0, multiplicity = 1:

       Center              X                  Y                   Z               Mass
    ------------   -----------------  -----------------  -----------------  -----------------
           H         -2.966898447286    -0.162583990937     1.786333869712     1.007825032070
           C         -3.179184447286    -0.302281990937     0.719074869712    12.000000000000
           C         -2.726248447286     0.824887009063    -0.173645130288    12.000000000000
           O         -3.728695447286    -1.286439990937     0.343281869712    15.994914619560
           C         -1.249591447286     1.186581009063     0.038291869712    12.000000000000
           H         -2.924997447286     0.547527009063    -1.202372130288     1.007825032070
           H         -3.344474447286     1.689626009063     0.064426869712     1.007825032070
           C         -0.282237447286     0.083492009063    -0.398423130288    12.000000000000
           H         -1.034998447286     2.095059009063    -0.516598130288     1.007825032070
           H         -1.083388447286     1.426480009063     1.087377869712     1.007825032070
           C          1.151195552714     0.324449009063     0.079095869712    12.000000000000
           H         -0.295608447286     0.007571009063    -1.483736130288     1.007825032070
           H         -0.627312447286    -0.878963990937    -0.025407130288     1.007825032070
           C          2.119047552714    -0.772278990937    -0.373010130288    12.000000000000
           H          1.486619552714     1.291264009063    -0.287635130288     1.007825032070
           H          1.163090552714     0.388053009063     1.166384869712     1.007825032070
           C          3.551310552714    -0.617094990937     0.151023869712    12.000000000000
           H          2.137289552714    -0.810406990937    -1.461085130288     1.007825032070
           H          1.733277552714    -1.734472990937    -0.042742130288     1.007825032070
           C          4.295309552714     0.606969009063    -0.385402130288    12.000000000000
           H          4.112430552714    -1.509436990937    -0.115093130288     1.007825032070
           H          3.535256552714    -0.582657990937     1.238441869712     1.007825032070
           H          4.313036552714     0.607527009063    -1.472119130288     1.007825032070
           H          3.837075552714     1.535438009063    -0.061456130288     1.007825032070
           H          5.324320552714     0.614407009063    -0.038882130288     1.007825032070

  Charge       = 0
  Multiplicity = 1
  Basis Set: 6-31G*
  Basis Set:

    Orbital Energies (a.u.)
    -----------------------

    Doubly Occupied:

       1A    -20.562341     2A    -11.326347     3A    -11.235213
       4A    -11.234608     5A    -11.223670     6A    -11.219855
       7A    -11.217941     8A    -11.216881     9A    -11.210659
      10A     -1.402315    11A     -1.104016    12A     -1.069674
      13A     -1.013310    14A     -0.942471    15A     -0.875400
      16A     -0.820380    17A     -0.788501    18A     -0.781062
      19A     -0.664410    20A     -0.662010    21A     -0.633692
      22A     -0.625303    23A     -0.603999    24A     -0.592255
      25A     -0.574853    26A     -0.551661    27A     -0.535053
      28A     -0.524830    29A     -0.508313    30A     -0.495799
      31A     -0.490263    32A     -0.479555    33A     -0.464811
      34A     -0.458588    35A     -0.441086    36A     -0.409879

  @DF-RHF Final Energy:  -387.12146921610707

   => Energetics <=

    Nuclear Repulsion Energy =            439.8709371438530411
    One-Electron Energy =               -1396.0628501333774238
    Two-Electron Energy =                 569.0704437734170824
    DFT Exchange-Correlation Energy =       0.0000000000000000
    Empirical Dispersion Energy =           0.0000000000000000
    PCM Polarization Energy =               0.0000000000000000
    EFP Energy =                            0.0000000000000000
    Total Energy =                       -387.1214692161072435

  Mulliken Charges: (a.u.)
   Center  Symbol    Alpha    Beta     Spin     Total
       1     H     0.43254  0.43254  0.00000  0.13492
       2     C     2.83064  2.83064  0.00000  0.33872
       3     C     3.20790  3.20790  0.00000 -0.41580
       4     O     4.23795  4.23795  0.00000 -0.47590
       5     C     3.16689  3.16689  0.00000 -0.33379
       6     H     0.39975  0.39975  0.00000  0.20050
       7     H     0.40683  0.40683  0.00000  0.18634
       8     C     3.15582  3.15582  0.00000 -0.31164
       9     H     0.41232  0.41232  0.00000  0.17536
      10     H     0.41974  0.41974  0.00000  0.16052
      11     C     3.15446  3.15446  0.00000 -0.30891
      12     H     0.41792  0.41792  0.00000  0.16415
      13     H     0.41723  0.41723  0.00000  0.16555
      14     C     3.15323  3.15323  0.00000 -0.30645
      15     H     0.42089  0.42089  0.00000  0.15822
      16     H     0.42382  0.42382  0.00000  0.15237
      17     C     3.15276  3.15276  0.00000 -0.30552
      18     H     0.42321  0.42321  0.00000  0.15357
      19     H     0.42032  0.42032  0.00000  0.15936
      20     C     3.24131  3.24131  0.00000 -0.48263
      21     H     0.41995  0.41995  0.00000  0.16011
      22     H     0.42320  0.42320  0.00000  0.15361
      23     H     0.42197  0.42197  0.00000  0.15605
      24     H     0.42068  0.42068  0.00000  0.15864
      25     H     0.41867  0.41867  0.00000  0.16266

   Total alpha = 36.00000, Total beta = 36.00000, Total charge =  0.00000
