                              Psi4 1.0.54 Driver

  ==> Input File <==

--------------------------------------------------------------------------
set {
	reference rhf
	basis cc-pvtz
}

set_num_threads( 4 )
memory 2 gb

molecule MOL {
0 1

O	 0.623971	 1.347241	 -0.000777
C	 0.485107	 0.171416	 -0.000134
C	 1.606966	 -0.836201	 0.000174
O	 -0.695554	 -0.422406	 0.000602
C	 2.988788	 -0.202529	 -0.000115
H	 1.465110	 -1.474645	 -0.864821
H	 1.465209	 -1.474077	 0.865596
H	 3.131767	 0.419673	 -0.873407
H	 3.750876	 -0.972315	 0.000098
H	 3.131883	 0.420264	 0.872742
C	 -1.094332	 -1.103444	 1.181894
C	 -2.464766	 -1.690041	 0.936329
H	 -1.103753	 -0.404386	 2.006259
H	 -0.368568	 -1.871672	 1.408642
H	 -3.182566	 -0.911820	 0.709374
H	 -2.800152	 -2.218353	 1.820996
H	 -2.443203	 -2.387506	 0.108411

	symmetry c1
}
set optking {
	frozen_dihedral = ("
		11 4 2 3
	")
}

ee,wfn = optimize('scf', return_wfn=True)
oeprop( wfn, 'DIPOLE', 'QUADRUPOLE', 'MULLIKEN_CHARGES')
f=open( 'psi4out.xyz', 'w' )
f.write( "17  " )
f.write( str(ee) + "\n" )
f.write( MOL.save_string_xyz() )
f.close()
--------------------------------------------------------------------------

    Molecular point group: c1
  Charge       = 0
  Multiplicity = 1
  Basis Set: CC-PVTZ
  Basis Set:
  @DF-RHF Final Energy:  -345.01791614201369
    Total Energy =                       -345.0179161420139735
    Molecular point group: c1
  Basis Set: CC-PVTZ
  Basis Set:
  Basis Set: CC-PVTZ
  Basis Set:
  @DF-RHF Final Energy:  -345.01867448178649
    Total Energy =                       -345.0186744817864337
  Basis Set: CC-PVTZ
  Basis Set:
  Basis Set: CC-PVTZ
  Basis Set:
  @DF-RHF Final Energy:  -345.02093229876442
    Total Energy =                       -345.0209322987641372
  Basis Set: CC-PVTZ
  Basis Set:
  Basis Set: CC-PVTZ
  Basis Set:
  @DF-RHF Final Energy:  -345.02103228868589
    Total Energy =                       -345.0210322886861150
  Basis Set: CC-PVTZ
  Basis Set:
  @DF-RHF Final Energy:  -345.02115498128370
    Total Energy =                       -345.0211549812835301
  Basis Set: CC-PVTZ
  Basis Set:
  @DF-RHF Final Energy:  -345.02117872901175
    Total Energy =                       -345.0211787290121492
  Basis Set: CC-PVTZ
  Basis Set:
  Basis Set: CC-PVTZ
  Basis Set:
  @DF-RHF Final Energy:  -345.02118538285913
    Total Energy =                       -345.0211853828592439
  Basis Set: CC-PVTZ
  Basis Set:
  Basis Set: CC-PVTZ
  Basis Set:
  @DF-RHF Final Energy:  -345.02118885352553
    Total Energy =                       -345.0211888535254161
  Basis Set: CC-PVTZ
  Basis Set:
  Charge       = 0
  Multiplicity = 1
  Basis Set: CC-PVTZ
  Basis Set:

    Orbital Energies (a.u.)
    -----------------------

    Doubly Occupied:

       1A    -20.577442     2A    -20.541678     3A    -11.366133
       4A    -11.295122     5A    -11.241616     6A    -11.223113
       7A    -11.217394     8A     -1.460042     9A     -1.368929
      10A     -1.064901    11A     -1.040341    12A     -0.903196
      13A     -0.870736    14A     -0.770953    15A     -0.703904
      16A     -0.687896    17A     -0.658220    18A     -0.640744
      19A     -0.603067    20A     -0.563574    21A     -0.558960
      22A     -0.535826    23A     -0.527610    24A     -0.519579
      25A     -0.508559    26A     -0.488431    27A     -0.453981
      28A     -0.436685

  @DF-RHF Final Energy:  -345.02118974494618

   => Energetics <=

    Nuclear Repulsion Energy =            314.9423602583705701
    One-Electron Energy =               -1094.2698341670413811
    Two-Electron Energy =                 434.3062841637246834
    DFT Exchange-Correlation Energy =       0.0000000000000000
    Empirical Dispersion Energy =           0.0000000000000000
    PCM Polarization Energy =               0.0000000000000000
    EFP Energy =                            0.0000000000000000
    Total Energy =                       -345.0211897449460707
    Molecular point group: c1
  Basis Set: CC-PVTZ
  Basis Set:

  -Total Gradient:
     Atom            X                  Y                   Z
    ------   -----------------  -----------------  -----------------
       1       -0.000008629204    -0.000015375424    -0.000000966063
       2       -0.000329398434     0.000670221587     0.001899527085
       3        0.000048668930    -0.000054665953    -0.001144471794
       4        0.000867331155    -0.001697673494    -0.001083195443
       5       -0.000005003610    -0.000003834907    -0.000002331522
       6       -0.000006044016    -0.000003419854    -0.000012201278
       7        0.000005129988     0.000003886847    -0.000005496506
       8       -0.000003465824     0.000002580423    -0.000006595753
       9        0.000008765110    -0.000006092897     0.000003058965
      10        0.000003642055     0.000009799376     0.000011657063
      11       -0.000561384171     0.001108792871     0.000322810909
      12       -0.000009836464    -0.000017648910     0.000015675829
      13        0.000004088763     0.000016682138     0.000020240264
      14        0.000014699395    -0.000022191039     0.000008935786
      15       -0.000022310309     0.000029536624    -0.000006193639
      16        0.000000570842     0.000001439972     0.000003507897
      17       -0.000006824203    -0.000022037357    -0.000023961800

  **** Optimization is complete! (in 9 steps) ****
    Final optimized geometry and variables:
    Molecular point group: c1

    Geometry (in Angstrom), charge = 0, multiplicity = 1:

    O            0.366419605788     1.672374812452    -0.401204270634
    C            0.313298848394     0.502641141073    -0.289132915390
    C            1.524222520021    -0.396942839915    -0.208310815484
    O           -0.871499068779    -0.135813586957    -0.313152591744
    C            2.844152869671     0.352422428704    -0.300158451876
    H            1.426047485500    -1.125213532302    -1.006544119479
    H            1.470288076113    -0.961528405272     0.716400573559
    H            2.916922414682     0.896814034957    -1.231758269046
    H            3.672416640366    -0.343453746626    -0.243557098397
    H            2.942184483307     1.067417059990     0.505648833520
    C           -1.329826095053    -0.794561714903     0.853110615106
    C           -2.769030696662    -1.195452090271     0.627026272719
    H           -1.250268690271    -0.120974512455     1.699520642334
    H           -0.721113333755    -1.669025548902     1.053384089216
    H           -3.380483661116    -0.322652310573     0.440746305108
    H           -3.151103052829    -1.709040775929     1.501607832497
    H           -2.848420244998    -1.858695557024    -0.224910791376

  Mulliken Charges: (a.u.)
   Center  Symbol    Alpha    Beta     Spin     Total
       1     O     4.16859  4.16859  0.00000 -0.33718
       2     C     2.80239  2.80239  0.00000  0.39521
       3     C     3.11316  3.11316  0.00000 -0.22632
       4     O     4.16062  4.16062  0.00000 -0.32123
       5     C     3.13866  3.13866  0.00000 -0.27731
       6     H     0.43815  0.43815  0.00000  0.12370
       7     H     0.44619  0.44619  0.00000  0.10761
       8     H     0.44563  0.44563  0.00000  0.10875
       9     H     0.45107  0.45107  0.00000  0.09785
      10     H     0.44810  0.44810  0.00000  0.10380
      11     C     2.98211  2.98211  0.00000  0.03578
      12     C     3.13303  3.13303  0.00000 -0.26606
      13     H     0.45914  0.45914  0.00000  0.08172
      14     H     0.46133  0.46133  0.00000  0.07733
      15     H     0.44507  0.44507  0.00000  0.10986
      16     H     0.45716  0.45716  0.00000  0.08568
      17     H     0.44960  0.44960  0.00000  0.10079

   Total alpha = 28.00000, Total beta = 28.00000, Total charge = -0.00000

*** Psi4 exiting successfully. Buy a developer a beer!
