  ==> Input File <==

--------------------------------------------------------------------------
set {
	reference rhf
	basis 6-31G*
}

set_num_threads( 4 )
memory 2 gb

molecule MOL {
0 1

O	 -0.682937	 1.318834	 -0.186099
C	 -0.860635	 0.152188	 -0.042321
C	 -2.173363	 -0.477127	 0.338347
O	 0.083258	 -0.765189	 -0.202595
H	 -2.477673	 -1.180929	 -0.427595
H	 -2.923125	 0.290956	 0.455536
H	 -2.058825	 -1.029004	 1.264191
C	 -0.199168	 -1.891437	 -1.029999
C	 0.038840	 -1.578773	 -2.495687
H	 -1.215069	 -2.212782	 -0.857307
H	 0.477405	 -2.659095	 -0.682939
H	 -0.110655	 -2.474225	 -3.091124
H	 -0.649472	 -0.819428	 -2.844958
H	 1.054494	 -1.231566	 -2.651604

	symmetry c1
}
set optking {
	frozen_dihedral = ("
		8 4 2 1
	")
}

ee = optimize('scf')
oeprop('DIPOLE', 'QUADRUPOLE', 'MULLIKEN_CHARGES')
f=open( 'psi4out.xyz', 'w' )
f.write( "14  " )
f.write( str(ee) + "\n" )
f.write( MOL.save_string_xyz() )
f.close()
--------------------------------------------------------------------------

    Molecular point group: c1
  Charge       = 0
  Multiplicity = 1
  Basis Set: 6-31G*
  Basis Set:
  @DF-RHF Final Energy:  -305.84793617331462
    Total Energy =                       -305.8479361733146220
    Molecular point group: c1
  Basis Set: 6-31G*
  Basis Set:
  Basis Set: 6-31G*
  Basis Set:
  @DF-RHF Final Energy:  -305.85312253390254
    Total Energy =                       -305.8531225339027628
  Basis Set: 6-31G*
  Basis Set:
  Basis Set: 6-31G*
  Basis Set:
  @DF-RHF Final Energy:  -305.85524767569751
    Total Energy =                       -305.8552476756974556
  Basis Set: 6-31G*
  Basis Set:
  Basis Set: 6-31G*
  Basis Set:
  @DF-RHF Final Energy:  -305.85608633081461
    Total Energy =                       -305.8560863308145485
  Basis Set: 6-31G*
  Basis Set:
  @DF-RHF Final Energy:  -305.85665871591323
    Total Energy =                       -305.8566587159135679
  @DF-RHF Final Energy:  -305.85674225157777
    Total Energy =                       -305.8567422515777139
  Basis Set: 6-31G*
  Basis Set:
  @DF-RHF Final Energy:  -305.85676965376956
    Total Energy =                       -305.8567696537694474
  Basis Set: 6-31G*
  Basis Set:
  Basis Set: 6-31G*
  Basis Set:
  @DF-RHF Final Energy:  -305.85677544220312
    Total Energy =                       -305.8567754422032294
  Basis Set: 6-31G*
  Basis Set:
  Basis Set: 6-31G*
  Basis Set:
  @DF-RHF Final Energy:  -305.85677771950634
    Total Energy =                       -305.8567777195065105
  Basis Set: 6-31G*
  Basis Set:
  Charge       = 0
  Multiplicity = 1
  Basis Set: 6-31G*
  Basis Set:

    Orbital Energies (a.u.)
    -----------------------

    Doubly Occupied:

       1A    -20.591200     2A    -20.548282     3A    -11.377039
       4A    -11.299633     5A    -11.240750     6A    -11.229756
       7A     -1.459534     8A     -1.366922     9A     -1.047257
      10A     -1.014877    11A     -0.895177    12A     -0.767678
      13A     -0.693056    14A     -0.685640    15A     -0.669894
      16A     -0.615446    17A     -0.596323    18A     -0.584992
      19A     -0.552358    20A     -0.544978    21A     -0.524497
      22A     -0.488843    23A     -0.451438    24A     -0.435180

  @DF-RHF Final Energy:  -305.85677795824392

   => Energetics <=

    Nuclear Repulsion Energy =            248.7976359721543815
    One-Electron Energy =                -909.9473266544569015
    Two-Electron Energy =                 355.2929127240586240
    DFT Exchange-Correlation Energy =       0.0000000000000000
    Empirical Dispersion Energy =           0.0000000000000000
    PCM Polarization Energy =               0.0000000000000000
    EFP Energy =                            0.0000000000000000
    Total Energy =                       -305.8567779582439243
    Molecular point group: c1
  Basis Set: 6-31G*
  Basis Set:

  -Total Gradient:
     Atom            X                  Y                   Z
    ------   -----------------  -----------------  -----------------
       1       -0.000641573144    -0.000262237955    -0.003485061443
       2        0.001560347835     0.001187408850     0.003785125595
       3       -0.000001488555    -0.000007084463    -0.000005084458
       4       -0.002090039056    -0.002439817877     0.001996895680
       5       -0.000005682854     0.000002524985     0.000003849545
       6       -0.000003132343     0.000005468685     0.000008430350
       7       -0.000002257571     0.000002293514     0.000002930203
       8        0.001185683530     0.001491035555    -0.002365306515
       9        0.000004764333     0.000002900352     0.000051941745
      10       -0.000013284924    -0.000000228091     0.000015629631
      11        0.000010593750     0.000013123838     0.000005048875
      12       -0.000003972424    -0.000004226867     0.000019167590
      13       -0.000001893808     0.000004308675    -0.000025127009
      14        0.000001935228     0.000004530799    -0.000008439792

  **** Optimization is complete! (in 10 steps) ****
    Final optimized geometry and variables:
    Molecular point group: c1

    Geometry (in Angstrom), charge = 0, multiplicity = 1:

    O            0.016537991290     1.824532853114     0.420095960640
    C           -0.239856139310     0.678247962183     0.553413715470
    C           -1.628137305787     0.178509075847     0.883323409869
    O            0.721978260957    -0.252779754251     0.445787075654
    H           -2.105654446457    -0.231797423726    -0.000559600991
    H           -2.218733787528     1.011572673879     1.234371877972
    H           -1.592330446114    -0.597927530681     1.638012846406
    C            0.546535231121    -1.385901194896    -0.387294983001
    C            0.596972081128    -1.016401322701    -1.859712618428
    H           -0.376330523301    -1.899544417880    -0.141719415042
    H            1.364529835776    -2.042833595677    -0.131755672081
    H            0.541445147161    -1.913485576384    -2.468493450422
    H           -0.228789194756    -0.369580539883    -2.139049567633
    H            1.521406831552    -0.498720613659    -2.085247413763

  Mulliken Charges: (a.u.)
   Center  Symbol    Alpha    Beta     Spin     Total
       1     O     4.25428  4.25428  0.00000 -0.50855
       2     C     2.62149  2.62149  0.00000  0.75701
       3     C     3.30245  3.30245  0.00000 -0.60490
       4     O     4.30861  4.30861  0.00000 -0.61723
       5     H     0.40349  0.40349  0.00000  0.19302
       6     H     0.39010  0.39010  0.00000  0.21979
       7     H     0.40202  0.40202  0.00000  0.19595
       8     C     3.00799  3.00799  0.00000 -0.01598
       9     C     3.25304  3.25304  0.00000 -0.50608
      10     H     0.41999  0.41999  0.00000  0.16002
      11     H     0.40335  0.40335  0.00000  0.19330
      12     H     0.41578  0.41578  0.00000  0.16844
      13     H     0.41532  0.41532  0.00000  0.16936
      14     H     0.40208  0.40208  0.00000  0.19584

   Total alpha = 24.00000, Total beta = 24.00000, Total charge = -0.00000
