                              Psi4 1.0.54 Driver

  ==> Input File <==

--------------------------------------------------------------------------
set {
	reference rhf
	basis cc-pvtz
}

set_num_threads( 4 )
memory 2 gb

molecule MOL {
0 1

O	 3.219313	 0.959291	 -0.614106
C	 2.698710	 0.058177	 -0.050237
C	 1.246364	 -0.005813	 0.348416
O	 3.344101	 -1.038700	 0.312317
C	 0.453207	 1.232821	 -0.049003
H	 0.839270	 -0.907818	 -0.092281
H	 1.216683	 -0.160521	 1.422434
C	 -0.998367	 1.217982	 0.432195
H	 0.481498	 1.345443	 -1.127236
H	 0.951413	 2.105557	 0.354893
C	 -1.882951	 0.151251	 -0.211235
H	 -1.429490	 2.193659	 0.228843
H	 -1.019755	 1.099323	 1.513279
C	 -3.342450	 0.243269	 0.226009
H	 -1.826223	 0.246578	 -1.293162
H	 -1.508033	 -0.839650	 0.027695
C	 -3.600376	 -0.344647	 1.610423
H	 -3.968010	 -0.267933	 -0.501788
H	 -3.655335	 1.284840	 0.216109
C	 -5.060839	 -0.250650	 2.039363
H	 -3.288415	 -1.385450	 1.621809
H	 -2.977927	 0.167115	 2.339473
H	 -5.209194	 -0.676129	 3.025234
H	 -5.706462	 -0.783231	 1.348974
H	 -5.393729	 0.781518	 2.071306
C	 4.720529	 -1.114346	 0.001449
H	 4.874321	 -1.055557	 -1.065852
H	 5.057824	 -2.067950	 0.373977
H	 5.264321	 -0.313596	 0.480350

	symmetry c1
}
set optking {
	frozen_dihedral = ("
		17 14 11 15
	")
}

ee,wfn = optimize('scf', return_wfn=True)
oeprop( wfn, 'DIPOLE', 'QUADRUPOLE', 'MULLIKEN_CHARGES')
f=open( 'psi4out.xyz', 'w' )
f.write( "29  " )
f.write( str(ee) + "\n" )
f.write( MOL.save_string_xyz() )
f.close()
--------------------------------------------------------------------------

    Molecular point group: c1
  Charge       = 0
  Multiplicity = 1
  Basis Set: CC-PVTZ
  Basis Set:
  @DF-RHF Final Energy:  -501.22254470814050
    Total Energy =                       -501.2225447081398215
    Molecular point group: c1
  Basis Set: CC-PVTZ
  Basis Set:
  Basis Set: CC-PVTZ
  Basis Set:
  @DF-RHF Final Energy:  -501.22276744922146
    Total Energy =                       -501.2227674492216920
  Basis Set: CC-PVTZ
  Basis Set:
  Basis Set: CC-PVTZ
  Basis Set:
  @DF-RHF Final Energy:  -501.22277953100388
    Total Energy =                       -501.2227795310047895
  Basis Set: CC-PVTZ
  Basis Set:
  Basis Set: CC-PVTZ
  Basis Set:
  @DF-RHF Final Energy:  -501.22268617428824
    Total Energy =                       -501.2226861742885831
  Basis Set: CC-PVTZ
  Basis Set:
  Basis Set: CC-PVTZ
  Basis Set:
  @DF-RHF Final Energy:  -501.22279404014671
    Total Energy =                       -501.2227940401468231
  Basis Set: CC-PVTZ
  Basis Set:
  Charge       = 0
  Multiplicity = 1
  Basis Set: CC-PVTZ
  Basis Set:

    Orbital Energies (a.u.)
    -----------------------

    Doubly Occupied:

       1A    -20.595985     2A    -20.533830     3A    -11.364244
       4A    -11.278246     5A    -11.232922     6A    -11.217060
       7A    -11.215379     8A    -11.214117     9A    -11.213909
      10A    -11.212565    11A    -11.207338    12A     -1.471865
      13A     -1.365457    14A     -1.099223    15A     -1.067341
      16A     -1.019428    17A     -0.977976    18A     -0.929611
      19A     -0.862367    20A     -0.812274    21A     -0.781889
      22A     -0.764259    23A     -0.702858    24A     -0.685435
      25A     -0.675737    26A     -0.640052    27A     -0.630006
      28A     -0.613578    29A     -0.598134    30A     -0.581768
      31A     -0.562567    32A     -0.557340    33A     -0.543209
      34A     -0.526105    35A     -0.513986    36A     -0.511995
      37A     -0.496309    38A     -0.483477    39A     -0.472855
      40A     -0.460888    41A     -0.458367    42A     -0.448277
      43A     -0.446786    44A     -0.439147

  @DF-RHF Final Energy:  -501.22279347197161

   => Energetics <=

    Nuclear Repulsion Energy =            616.2589667623198011
    One-Electron Energy =               -1903.9911978904783609
    Two-Electron Energy =                 786.5094376561877425
    DFT Exchange-Correlation Energy =       0.0000000000000000
    Empirical Dispersion Energy =           0.0000000000000000
    PCM Polarization Energy =               0.0000000000000000
    EFP Energy =                            0.0000000000000000
    Total Energy =                       -501.2227934719709310
    Molecular point group: c1
  Basis Set: CC-PVTZ
  Basis Set:

  -Total Gradient:
     Atom            X                  Y                   Z
    ------   -----------------  -----------------  -----------------
       1       -0.000011518420     0.000019476337    -0.000054443992
       2        0.000033185862     0.000028679312     0.000100110112
       3       -0.000027205520    -0.000018251846    -0.000043256359
       4       -0.000017341646    -0.000034760368    -0.000015892474
       5        0.000024842077     0.000033525767     0.000053349953
       6       -0.000049478359    -0.000038516334    -0.000002842325
       7        0.000010115990     0.000007540571    -0.000005625298
       8        0.000002077021     0.000029560850    -0.000047765744
       9       -0.000003294803     0.000015916501    -0.000000771736
      10        0.000025761618    -0.000004247939     0.000009339324
      11        0.000073615674     0.001694764447    -0.000038518155
      12       -0.000007979875    -0.000003453046    -0.000014787168
      13       -0.000005363407     0.000015553652     0.000006331948
      14        0.000283563006     0.001264264795     0.000747968328
      15       -0.000119054937    -0.001785411840    -0.000150994067
      16        0.000055714120    -0.000030168965    -0.000003825644
      17       -0.000241306058    -0.001192689799    -0.000568390231
      18       -0.000020554721    -0.000000397444    -0.000003368071
      19       -0.000003618516     0.000004545147     0.000003868003
      20        0.000004384202    -0.000009404790     0.000023010750
      21        0.000005210110    -0.000007350321     0.000001923727
      22        0.000010669405     0.000011560102     0.000006332145
      23       -0.000011337725    -0.000003694778     0.000012462095
      24       -0.000006926646    -0.000007039058    -0.000010477179
      25       -0.000001909350     0.000008679087    -0.000000783400
      26       -0.000003678045     0.000003596185    -0.000004900411
      27        0.000001930531    -0.000000474414    -0.000005275648
      28       -0.000001876089    -0.000007072850     0.000003598793
      29        0.000001374506     0.000005271043     0.000003622723

  **** Optimization is complete! (in 6 steps) ****
    Final optimized geometry and variables:
    Molecular point group: c1

    Geometry (in Angstrom), charge = 0, multiplicity = 1:

    O            3.106662599288     0.862550248728    -1.007578813596
    C            2.588970488007    -0.027499515842    -0.423760362531
    C            1.140112182972    -0.081009543676    -0.011016895814
    O            3.234760849698    -1.120196635760    -0.049428271062
    C            0.346726034498     1.153405192350    -0.421184140821
    H            0.726703063011    -0.988956263309    -0.433271407555
    H            1.119736150216    -0.218343860148     1.065568840873
    C           -1.101328624481     1.149520896677     0.071575179877
    H            0.366870142070     1.249617514946    -1.501197824054
    H            0.850198857430     2.030839156503    -0.034246083749
    C           -1.991262116255     0.079882175786    -0.562175318536
    H           -1.531231712211     2.123567738350    -0.142192541880
    H           -1.109848788106     1.046830269030     1.153179887573
    C           -3.459140391652     0.146098877103    -0.129596511574
    H           -1.937302393930     0.171614777908    -1.643442873632
    H           -1.608261252802    -0.910443695962    -0.332192449328
    C           -3.738165461583    -0.435081980416     1.255637995362
    H           -4.059746180742    -0.399270809574    -0.852352315523
    H           -3.803459617653     1.176641619015    -0.168895127696
    C           -5.211878960909    -0.365049712251     1.642523110515
    H           -3.409758580305    -1.470690333406     1.276686161358
    H           -3.150008711815     0.086578472123     2.004229195227
    H           -5.381674973302    -0.793740168321     2.623580708788
    H           -5.828772224515    -0.907100404891     0.933372955687
    H           -5.561979454021     0.661602856053     1.665423476801
    C            4.607955244913    -1.204910205648    -0.372057407800
    H            4.751739623002    -1.163907054390    -1.441593399404
    H            4.946197819819    -2.153320382259     0.012719983923
    H            5.158502378937    -0.398059226670     0.088569331279

  Mulliken Charges: (a.u.)
   Center  Symbol    Alpha    Beta     Spin     Total
       1     O     4.19698  4.19698  0.00000 -0.39396
       2     C     2.80471  2.80471  0.00000  0.39059
       3     C     3.10218  3.10218  0.00000 -0.20435
       4     O     4.14718  4.14718  0.00000 -0.29436
       5     C     3.09152  3.09152  0.00000 -0.18303
       6     H     0.43909  0.43909  0.00000  0.12181
       7     H     0.43985  0.43985  0.00000  0.12031
       8     C     3.10319  3.10319  0.00000 -0.20638
       9     H     0.44608  0.44608  0.00000  0.10784
      10     H     0.43956  0.43956  0.00000  0.12089
      11     C     3.10297  3.10297  0.00000 -0.20594
      12     H     0.44510  0.44510  0.00000  0.10980
      13     H     0.45292  0.45292  0.00000  0.09416
      14     C     3.09376  3.09376  0.00000 -0.18752
      15     H     0.44577  0.44577  0.00000  0.10846
      16     H     0.45436  0.45436  0.00000  0.09128
      17     C     3.08317  3.08317  0.00000 -0.16635
      18     H     0.44799  0.44799  0.00000  0.10403
      19     H     0.45435  0.45435  0.00000  0.09131
      20     C     3.15011  3.15011  0.00000 -0.30022
      21     H     0.45508  0.45508  0.00000  0.08985
      22     H     0.45447  0.45447  0.00000  0.09106
      23     H     0.44840  0.44840  0.00000  0.10320
      24     H     0.45465  0.45465  0.00000  0.09069
      25     H     0.45460  0.45460  0.00000  0.09080
      26     C     3.03813  3.03813  0.00000 -0.07625
      27     H     0.45435  0.45435  0.00000  0.09130
      28     H     0.44527  0.44527  0.00000  0.10946
      29     H     0.45423  0.45423  0.00000  0.09153

   Total alpha = 44.00000, Total beta = 44.00000, Total charge = -0.00000

*** Psi4 exiting successfully. Buy a developer a beer!
