  ==> Input File <==

--------------------------------------------------------------------------
set {
	reference rhf
	basis 6-31G*
}

set_num_threads( 4 )
memory 2 gb

molecule MOL {
0 1

O	 -2.042549	 -1.228399	 -0.269030
C	 -1.653912	 -0.146171	 0.050137
C	 -0.332303	 0.024011	 0.778412
C	 -2.438579	 1.106236	 -0.272369
C	 0.845713	 -0.001731	 -0.208243
H	 -0.323783	 0.953829	 1.340327
H	 -0.235459	 -0.796807	 1.480410
C	 0.393028	 -0.142756	 -1.662278
H	 1.515617	 -0.823174	 0.039835
H	 1.417806	 0.913390	 -0.088223
C	 1.562000	 -0.159621	 -2.646365
H	 -0.187019	 -1.056327	 -1.773449
H	 -0.276537	 0.677653	 -1.909623
H	 2.232435	 -0.990460	 -2.445676
H	 2.141986	 0.756241	 -2.581120
H	 1.211351	 -0.257414	 -3.668866
H	 -3.277823	 0.863061	 -0.908988
H	 -1.806773	 1.843019	 -0.759671
H	 -2.802853	 1.554979	 0.648059

	symmetry c1
}
set optking {
	frozen_dihedral = ("
		9 5 3 2
	")
}

ee = optimize('scf')
oeprop('DIPOLE', 'QUADRUPOLE', 'MULLIKEN_CHARGES')
f=open( 'psi4out.xyz', 'w' )
f.write( "19  " )
f.write( str(ee) + "\n" )
f.write( MOL.save_string_xyz() )
f.close()
--------------------------------------------------------------------------

    Molecular point group: c1
  Charge       = 0
  Multiplicity = 1
  Basis Set: 6-31G*
  Basis Set:
  @DF-RHF Final Energy:  -309.05180218998834
    Total Energy =                       -309.0518021899882797
    Molecular point group: c1
  Basis Set: 6-31G*
  Basis Set:
  Basis Set: 6-31G*
  Basis Set:
  @DF-RHF Final Energy:  -309.05499796341491
    Total Energy =                       -309.0549979634150759
  Basis Set: 6-31G*
  Basis Set:
  Basis Set: 6-31G*
  Basis Set:
  @DF-RHF Final Energy:  -309.05510943626297
    Total Energy =                       -309.0551094362631375
  Basis Set: 6-31G*
  Basis Set:
  Basis Set: 6-31G*
  Basis Set:
  @DF-RHF Final Energy:  -309.05605806272575
    Total Energy =                       -309.0560580627257536
  Basis Set: 6-31G*
  Basis Set:
  Basis Set: 6-31G*
  Basis Set:
  @DF-RHF Final Energy:  -309.05623125113738
    Total Energy =                       -309.0562312511372056
  Basis Set: 6-31G*
  Basis Set:
  Basis Set: 6-31G*
  Basis Set:
  @DF-RHF Final Energy:  -309.05620765459867
    Total Energy =                       -309.0562076545983246
  Basis Set: 6-31G*
  Basis Set:
  Basis Set: 6-31G*
  Basis Set:
  @DF-RHF Final Energy:  -309.05624249168397
    Total Energy =                       -309.0562424916839745
  Basis Set: 6-31G*
  Basis Set:
  Charge       = 0
  Multiplicity = 1
  Basis Set: 6-31G*
  Basis Set:

    Orbital Energies (a.u.)
    -----------------------

    Doubly Occupied:

       1A    -20.547328     2A    -11.325166     3A    -11.230830
       4A    -11.229800     5A    -11.227978     6A    -11.220694
       7A    -11.212909     8A     -1.393424     9A     -1.085525
      10A     -1.026644    11A     -0.982685    12A     -0.890421
      13A     -0.811654    14A     -0.724059    15A     -0.659106
      16A     -0.639651    17A     -0.622383    18A     -0.616765
      19A     -0.577072    20A     -0.572937    21A     -0.562891
      22A     -0.538638    23A     -0.509631    24A     -0.491427
      25A     -0.485171    26A     -0.466221    27A     -0.463122
      28A     -0.397103

  @DF-RHF Final Energy:  -309.05624268249233

   => Energetics <=

    Nuclear Repulsion Energy =            309.1338086279962454
    One-Electron Energy =               -1031.3576289065285891
    Two-Electron Energy =                 413.1675775960399619
    DFT Exchange-Correlation Energy =       0.0000000000000000
    Empirical Dispersion Energy =           0.0000000000000000
    PCM Polarization Energy =               0.0000000000000000
    EFP Energy =                            0.0000000000000000
    Total Energy =                       -309.0562426824923818
    Molecular point group: c1
  Basis Set: 6-31G*
  Basis Set:

  -Total Gradient:
     Atom            X                  Y                   Z
    ------   -----------------  -----------------  -----------------
       1        0.000011934518    -0.000009219226    -0.000002440524
       2       -0.000002712865    -0.000085901746     0.000038518071
       3       -0.000030079200     0.000115233649    -0.000059117819
       4        0.000022695706     0.000021345715    -0.000040886241
       5        0.000074504158     0.000035995175     0.000092182613
       6       -0.000004247791    -0.000000356005     0.000002992842
       7        0.000000498501    -0.000001893309     0.000007751260
       8        0.000007378355    -0.000000759440    -0.000000989352
       9       -0.000065517481    -0.000080497384    -0.000071357462
      10       -0.000003987492    -0.000000579282    -0.000010240940
      11        0.000005708072    -0.000003400180    -0.000002925152
      12        0.000007708641     0.000008726227     0.000012772620
      13       -0.000016042116     0.000008242514     0.000008666136
      14        0.000006020294     0.000001582078    -0.000003671654
      15        0.000003646826    -0.000001986579    -0.000004769331
      16        0.000003265199    -0.000000434541     0.000000688642
      17       -0.000000784291    -0.000003514558     0.000009225637
      18       -0.000009605462     0.000001830662     0.000010971529
      19       -0.000010383572    -0.000004413770     0.000012629123

  **** Optimization is complete! (in 8 steps) ****
    Final optimized geometry and variables:
    Molecular point group: c1

    Geometry (in Angstrom), charge = 0, multiplicity = 1:

    O           -1.621928288478    -1.131473512366     0.454884760449
    C           -1.195418872185    -0.049258270682     0.721793536256
    C            0.185759593763     0.121881419587     1.336058186455
    C           -2.014666697263     1.201110098620     0.486995303069
    C            1.372011103138     0.070222983310     0.323745682548
    H            0.218285677878     1.057153711403     1.884817808746
    H            0.294934163950    -0.678868436535     2.057277204927
    C            1.014242050608    -0.088530416765    -1.158426696941
    H            2.022379307033    -0.751870252328     0.603174517825
    H            1.963496276060     0.973132150847     0.441253039228
    C            2.261043186336    -0.123195350602    -2.041733736738
    H            0.441854574679    -0.998052535782    -1.302212284872
    H            0.376671985530     0.732541241191    -1.479700828245
    H            2.908254647979    -0.952974235994    -1.772483119595
    H            2.839295558164     0.791600577536    -1.946117374874
    H            1.994362103814    -0.238565185720    -3.087389219399
    H           -2.903422062842     0.959771343914    -0.079411144683
    H           -1.434426262447     1.955551427979    -0.035034605732
    H           -2.304937114890     1.626611765838     1.444394859389

  Mulliken Charges: (a.u.)
   Center  Symbol    Alpha    Beta     Spin     Total
       1     O     4.26220  4.26220  0.00000 -0.52440
       2     C     2.73765  2.73765  0.00000  0.52470
       3     C     3.20528  3.20528  0.00000 -0.41056
       4     C     3.28935  3.28935  0.00000 -0.57869
       5     C     3.15296  3.15296  0.00000 -0.30592
       6     H     0.41488  0.41488  0.00000  0.17023
       7     H     0.39884  0.39884  0.00000  0.20232
       8     C     3.16667  3.16667  0.00000 -0.33334
       9     H     0.41284  0.41284  0.00000  0.17432
      10     H     0.41811  0.41811  0.00000  0.16379
      11     C     3.24014  3.24014  0.00000 -0.48028
      12     H     0.40351  0.40351  0.00000  0.19298
      13     H     0.42474  0.42474  0.00000  0.15051
      14     H     0.41976  0.41976  0.00000  0.16048
      15     H     0.42240  0.42240  0.00000  0.15521
      16     H     0.41651  0.41651  0.00000  0.16699
      17     H     0.39736  0.39736  0.00000  0.20527
      18     H     0.41024  0.41024  0.00000  0.17952
      19     H     0.40657  0.40657  0.00000  0.18687

   Total alpha = 28.00000, Total beta = 28.00000, Total charge = -0.00000
