                              Psi4 1.0.54 Driver

  ==> Input File <==

--------------------------------------------------------------------------
set {
	reference rhf
	basis cc-pvtz
}

set_num_threads( 4 )
memory 2 gb

molecule MOL {
0 1

O	 0.883158	 4.460448	 0.194762
C	 -0.202897	 4.930465	 0.293134
C	 -1.457310	 4.080611	 0.287718
C	 -0.406225	 6.422341	 0.431661
C	 -1.206008	 2.586263	 0.144187
H	 -2.000989	 4.293653	 1.205374
H	 -2.094892	 4.443129	 -0.515448
C	 -2.496605	 1.771726	 0.143731
H	 -0.561579	 2.255106	 0.950512
H	 -0.655427	 2.404760	 -0.771811
C	 -2.258482	 0.271340	 0.000669
H	 -3.044677	 1.960603	 1.064175
H	 -3.138759	 2.110646	 -0.666229
C	 -3.544441	 -0.550271	 -0.000253
H	 -1.616878	 -0.068429	 0.809999
H	 -1.711371	 0.081451	 -0.919515
C	 -4.804551	 0.308747	 0.000556
H	 -3.553737	 -1.201524	 -0.870151
H	 -3.553831	 -1.203282	 0.868313
H	 -4.842050	 0.949078	 -0.874436
H	 -5.698404	 -0.304480	 -0.000254
H	 -4.842277	 0.947103	 0.876982
H	 -0.928630	 6.644485	 1.355670
H	 0.548970	 6.924280	 0.424529
H	 -1.019555	 6.793174	 -0.382189

	symmetry c1
}
set optking {
	frozen_dihedral = ("
		15 11 14 18
	")
}

ee,wfn = optimize('scf', return_wfn=True)
oeprop( wfn, 'DIPOLE', 'QUADRUPOLE', 'MULLIKEN_CHARGES')
f=open( 'psi4out.xyz', 'w' )
f.write( "25  " )
f.write( str(ee) + "\n" )
f.write( MOL.save_string_xyz() )
f.close()
--------------------------------------------------------------------------

    Molecular point group: c1
  Charge       = 0
  Multiplicity = 1
  Basis Set: CC-PVTZ
  Basis Set:
  @DF-RHF Final Energy:  -387.26027741718650
    Total Energy =                       -387.2602774171863302
    Molecular point group: c1
  Basis Set: CC-PVTZ
  Basis Set:
  Basis Set: CC-PVTZ
  Basis Set:
  @DF-RHF Final Energy:  -386.54813714412705
    Total Energy =                       -386.5481371441269403
  Basis Set: CC-PVTZ
  Basis Set:
  Basis Set: CC-PVTZ
  Basis Set:
  @DF-RHF Final Energy:  -386.76805943181989
    Total Energy =                       -386.7680594318197791
  Basis Set: CC-PVTZ
  Basis Set:
  Basis Set: CC-PVTZ
  Basis Set:
  @DF-RHF Final Energy:  -387.07695924182701
    Total Energy =                       -387.0769592418270122
  Basis Set: CC-PVTZ
  Basis Set:
  @DF-RHF Final Energy:  -387.23596714220889
    Total Energy =                       -387.2359671422087786
  @DF-RHF Final Energy:  -387.26220495451207
    Total Energy =                       -387.2622049545121854
  @DF-RHF Final Energy:  -387.26434571874807
    Total Energy =                       -387.2643457187475633
  @DF-RHF Final Energy:  -387.26456432135831
    Total Energy =                       -387.2645643213583071
  @DF-RHF Final Energy:  -387.26456608422700
    Total Energy =                       -387.2645660842272264
  Basis Set: CC-PVTZ
  Basis Set:
  @DF-RHF Final Energy:  -387.26458658322503
    Total Energy =                       -387.2645865832250820
  Basis Set: CC-PVTZ
  Basis Set:
  Basis Set: CC-PVTZ
  Basis Set:
  @DF-RHF Final Energy:  -387.26459612639081
    Total Energy =                       -387.2645961263905292
  Basis Set: CC-PVTZ
  Basis Set:
  Basis Set: CC-PVTZ
  Basis Set:
  @DF-RHF Final Energy:  -387.26460009240748
    Total Energy =                       -387.2646000924073633
  Basis Set: CC-PVTZ
  Basis Set:
  Charge       = 0
  Multiplicity = 1
  Basis Set: CC-PVTZ
  Basis Set:

    Orbital Energies (a.u.)
    -----------------------

    Doubly Occupied:

       1A    -20.538742     2A    -11.320381     3A    -11.229962
       4A    -11.226483     5A    -11.214727     6A    -11.214248
       7A    -11.214087     8A    -11.212035     9A    -11.207234
      10A     -1.398753    11A     -1.093384    12A     -1.054020
      13A     -1.013999    14A     -0.967770    15A     -0.897875
      16A     -0.827812    17A     -0.772261    18A     -0.730055
      19A     -0.662139    20A     -0.653713    21A     -0.631135
      22A     -0.626687    23A     -0.597876    24A     -0.595591
      25A     -0.559690    26A     -0.557330    27A     -0.549747
      28A     -0.522875    29A     -0.512830    30A     -0.494686
      31A     -0.494435    32A     -0.479231    33A     -0.458200
      34A     -0.453140    35A     -0.447213    36A     -0.401322

  @DF-RHF Final Energy:  -387.26460079163485

   => Energetics <=

    Nuclear Repulsion Energy =            443.9558224251161391
    One-Electron Energy =               -1404.7775082733410272
    Two-Electron Energy =                 573.5570850565898127
    DFT Exchange-Correlation Energy =       0.0000000000000000
    Empirical Dispersion Energy =           0.0000000000000000
    PCM Polarization Energy =               0.0000000000000000
    EFP Energy =                            0.0000000000000000
    Total Energy =                       -387.2646007916350754
    Molecular point group: c1
  Basis Set: CC-PVTZ
  Basis Set:

  -Total Gradient:
     Atom            X                  Y                   Z
    ------   -----------------  -----------------  -----------------
       1        0.000081310041    -0.000001758258    -0.000023512390
       2       -0.000107841851    -0.000004822254     0.000028324184
       3       -0.000035750468     0.000027801758     0.000049978875
       4       -0.000032772063    -0.000011277468     0.000052556555
       5        0.000002842202    -0.000049938894     0.000003787548
       6        0.000071805929     0.000004049648    -0.000047808957
       7        0.000009497252     0.000039453703    -0.000010480288
       8        0.000000883520    -0.000003201502     0.000034559813
       9        0.000012949995    -0.000024356942    -0.000008925371
      10       -0.000066871209     0.000008894623     0.000029660598
      11        0.001822102826    -0.000553342908    -0.001408426572
      12        0.000059514503     0.000009848873    -0.000028738249
      13       -0.000000692682     0.000015195842    -0.000019214790
      14        0.000453983373    -0.001953199618     0.001315105733
      15       -0.001593021097     0.000739283718     0.000988773983
      16       -0.000044206150     0.000007438593     0.000013027407
      17       -0.000005092363    -0.000007138472     0.000009669473
      18       -0.000662934835     0.001725965269    -0.000873951743
      19        0.000005331151    -0.000011926075     0.000002591854
      20       -0.000008170494     0.000043352806    -0.000018376872
      21       -0.000011146265    -0.000018632984    -0.000014111741
      22        0.000011225515    -0.000003261795    -0.000015603893
      23        0.000034472620     0.000001318768    -0.000034381760
      24       -0.000010009863     0.000006440787    -0.000015550752
      25        0.000012590409     0.000013812786    -0.000008952645

  **** Optimization is complete! (in 13 steps) ****
    Final optimized geometry and variables:
    Molecular point group: c1

    Geometry (in Angstrom), charge = 0, multiplicity = 1:

    O            2.019594513182     1.567736708836     1.874238022890
    C            0.942837310636     1.998883470330     1.619721749074
    C           -0.036682013728     1.260659021074     0.729994156710
    C            0.475210939538     3.326914517077     2.171263505649
    C            0.472470945992    -0.073126486775     0.201732038512
    H           -0.955677830073     1.126012200296     1.295682565571
    H           -0.298025479208     1.925912981787    -0.089963635151
    C           -0.547146205173    -0.778214182420    -0.689533576373
    H            0.734740520779    -0.710219421868     1.038733351148
    H            1.392225657952     0.090573210070    -0.348021880701
    C           -0.022940581666    -2.117329326690    -1.211085548023
    H           -1.463825530067    -0.933149088924    -0.127731072671
    H           -0.803884447135    -0.127554406846    -1.519982628340
    C           -0.968393491980    -2.942548214294    -2.124502863679
    H            0.235693860900    -2.719885048863    -0.346594344807
    H            0.907448273975    -1.932441721434    -1.737191701024
    C           -2.277617074644    -2.280287275077    -2.556198298313
    H           -0.429679116893    -3.208504823763    -3.027254447581
    H           -1.209703265184    -3.877622516788    -1.631796070483
    H           -2.105245608554    -1.371867065137    -3.121585456183
    H           -2.837690046297    -2.956524450944    -3.192189707423
    H           -2.908878169547    -2.030990250365    -1.711973641832
    H           -0.427680594737     3.191993513466     2.756420789443
    H            1.247282357841     3.759584378106     2.788626887140
    H            0.234764597647     4.004600505460     1.359440474135

  Mulliken Charges: (a.u.)
   Center  Symbol    Alpha    Beta     Spin     Total
       1     O     4.17100  4.17100  0.00000 -0.34199
       2     C     2.86213  2.86213  0.00000  0.27574
       3     C     3.11341  3.11341  0.00000 -0.22681
       4     C     3.15124  3.15124  0.00000 -0.30249
       5     C     3.08285  3.08285  0.00000 -0.16569
       6     H     0.44577  0.44577  0.00000  0.10846
       7     H     0.44583  0.44583  0.00000  0.10835
       8     C     3.09024  3.09024  0.00000 -0.18048
       9     H     0.44623  0.44623  0.00000  0.10754
      10     H     0.44625  0.44625  0.00000  0.10750
      11     C     3.10068  3.10068  0.00000 -0.20136
      12     H     0.45473  0.45473  0.00000  0.09053
      13     H     0.45411  0.45411  0.00000  0.09179
      14     C     3.08782  3.08782  0.00000 -0.17564
      15     H     0.45035  0.45035  0.00000  0.09930
      16     H     0.45003  0.45003  0.00000  0.09994
      17     C     3.15742  3.15742  0.00000 -0.31484
      18     H     0.45110  0.45110  0.00000  0.09780
      19     H     0.45105  0.45105  0.00000  0.09790
      20     H     0.45373  0.45373  0.00000  0.09254
      21     H     0.44408  0.44408  0.00000  0.11184
      22     H     0.45378  0.45378  0.00000  0.09245
      23     H     0.45040  0.45040  0.00000  0.09920
      24     H     0.43537  0.43537  0.00000  0.12925
      25     H     0.45041  0.45041  0.00000  0.09919

   Total alpha = 36.00000, Total beta = 36.00000, Total charge =  0.00000

*** Psi4 exiting successfully. Buy a developer a beer!
