                              Psi4 1.0.54 Driver

  ==> Input File <==

--------------------------------------------------------------------------
set {
	reference rhf
	basis cc-pvtz
}

set_num_threads( 4 )
memory 2 gb

molecule MOL {
0 1

H	 2.614283	 2.028610	 0.296620
O	 3.358864	 1.662087	 -0.142800
C	 3.565468	 0.338079	 0.273842
C	 2.533667	 -0.637565	 -0.272227
H	 4.548038	 0.064914	 -0.086598
H	 3.593945	 0.282242	 1.360360
C	 2.635664	 -2.047182	 0.306069
H	 1.543201	 -0.235020	 -0.082247
H	 2.654638	 -0.682144	 -1.351938
C	 1.605995	 -3.006338	 -0.289446
H	 2.508303	 -2.003234	 1.382568
H	 3.634983	 -2.439365	 0.124847
C	 1.710449	 -4.451956	 0.199975
H	 0.606862	 -2.629504	 -0.084611
H	 1.714609	 -3.001331	 -1.370485
C	 1.371328	 -4.661412	 1.674718
H	 1.040996	 -5.063643	 -0.398524
H	 2.713572	 -4.824753	 0.005237
C	 1.393274	 -6.130275	 2.089893
H	 0.385965	 -4.247444	 1.877595
H	 2.067378	 -4.110589	 2.300107
C	 1.058799	 -6.342670	 3.562614
H	 0.689324	 -6.686753	 1.477224
H	 2.374513	 -6.547623	 1.880004
H	 0.069394	 -5.964461	 3.797717
H	 1.080595	 -7.394756	 3.822898
H	 1.767993	 -5.829155	 4.203471

	symmetry c1
}
set optking {
	frozen_dihedral = ("
		8 4 3 2
	")
}

ee,wfn = optimize('scf', return_wfn=True)
oeprop( wfn, 'DIPOLE', 'QUADRUPOLE', 'MULLIKEN_CHARGES')
f=open( 'psi4out.xyz', 'w' )
f.write( "27  " )
f.write( str(ee) + "\n" )
f.write( MOL.save_string_xyz() )
f.close()
--------------------------------------------------------------------------

    Molecular point group: c1
  Charge       = 0
  Multiplicity = 1
  Basis Set: CC-PVTZ
  Basis Set:
  @DF-RHF Final Energy:  -388.42761473640940
    Total Energy =                       -388.4276147364093958
    Molecular point group: c1
  Basis Set: CC-PVTZ
  Basis Set:
  Basis Set: CC-PVTZ
  Basis Set:
  @DF-RHF Final Energy:  -388.42787765425243
    Total Energy =                       -388.4278776542524838
  Basis Set: CC-PVTZ
  Basis Set:
  Basis Set: CC-PVTZ
  Basis Set:
  @DF-RHF Final Energy:  -388.42792853797977
    Total Energy =                       -388.4279285379798239
  Basis Set: CC-PVTZ
  Basis Set:
  Basis Set: CC-PVTZ
  Basis Set:
  @DF-RHF Final Energy:  -388.42793478170341
    Total Energy =                       -388.4279347817041526
  Basis Set: CC-PVTZ
  Basis Set:
  Charge       = 0
  Multiplicity = 1
  Basis Set: CC-PVTZ
  Basis Set:

    Orbital Energies (a.u.)
    -----------------------

    Doubly Occupied:

       1A    -20.545038     2A    -11.264662     3A    -11.216588
       4A    -11.214579     5A    -11.214413     6A    -11.213649
       7A    -11.212852     8A    -11.211577     9A    -11.207205
      10A     -1.363363    11A     -1.096597    12A     -1.063540
      13A     -1.012628    14A     -0.946330    15A     -0.884502
      16A     -0.824687    17A     -0.805140    18A     -0.778530
      19A     -0.693591    20A     -0.648619    21A     -0.644150
      22A     -0.609649    23A     -0.608537    24A     -0.586345
      25A     -0.573620    26A     -0.556119    27A     -0.545675
      28A     -0.521493    29A     -0.511492    30A     -0.497343
      31A     -0.482580    32A     -0.476541    33A     -0.464794
      34A     -0.460784    35A     -0.455609    36A     -0.444523
      37A     -0.424099

  @DF-RHF Final Energy:  -388.42793432820736

   => Energetics <=

    Nuclear Repulsion Energy =            454.1632818245791441
    One-Electron Energy =               -1426.6195379652219799
    Two-Electron Energy =                 584.0283218124357063
    DFT Exchange-Correlation Energy =       0.0000000000000000
    Empirical Dispersion Energy =           0.0000000000000000
    PCM Polarization Energy =               0.0000000000000000
    EFP Energy =                            0.0000000000000000
    Total Energy =                       -388.4279343282071295
    Molecular point group: c1
  Basis Set: CC-PVTZ
  Basis Set:

  -Total Gradient:
     Atom            X                  Y                   Z
    ------   -----------------  -----------------  -----------------
       1        0.000095439982    -0.000043852911    -0.000050295559
       2       -0.001147414418     0.000281190186     0.001562032559
       3        0.001461431948    -0.000208678206    -0.002473809304
       4       -0.000476891899    -0.001270954285     0.003068652915
       5        0.000006183582     0.000011377754    -0.000034682312
       6       -0.000038505184     0.000052766180    -0.000008780116
       7       -0.000034297791     0.000007308287    -0.000040193130
       8        0.000028721873     0.001097931960    -0.001972029511
       9        0.000053801585    -0.000013743110    -0.000024881848
      10        0.000022717184    -0.000001066927    -0.000021782888
      11       -0.000007451375    -0.000023860271     0.000052652871
      12        0.000022004564     0.000015190963    -0.000039656855
      13       -0.000041413106     0.000013470493     0.000018836368
      14        0.000003293499    -0.000002221957    -0.000023218112
      15        0.000022904524    -0.000000158629    -0.000006950938
      16        0.000003536310     0.000015875814    -0.000006704581
      17       -0.000012757254     0.000018784746     0.000003123042
      18       -0.000009126660    -0.000001255300    -0.000012542012
      19        0.000013741209    -0.000000368765     0.000009611772
      20        0.000011340675    -0.000007510471    -0.000007022561
      21        0.000024162073     0.000061397701     0.000009257136
      22       -0.000000919874    -0.000001210651     0.000000007924
      23       -0.000000562485     0.000002837994    -0.000002188480
      24        0.000002623144    -0.000002933603    -0.000000019536
      25       -0.000000125331     0.000000870305     0.000001503899
      26       -0.000001787249    -0.000001471694    -0.000000023985
      27       -0.000000649521     0.000000284401    -0.000000896762

  **** Optimization is complete! (in 5 steps) ****
    Final optimized geometry and variables:
    Molecular point group: c1

    Geometry (in Angstrom), charge = 0, multiplicity = 1:

    H            0.362858985910     4.700264464296    -0.632099424959
    O            1.193190074070     4.391726601629    -0.945721392862
    C            1.393223605704     3.066305252544    -0.536119249114
    C            0.356253818132     2.108571778275    -1.103010817462
    H            2.383206689372     2.791997656517    -0.876277985245
    H            1.398755943558     3.005917827812     0.550562282111
    C            0.462649926451     0.700863085635    -0.525888927819
    H           -0.636769158813     2.515117947725    -0.919608363683
    H            0.468142186897     2.077259317138    -2.182792891235
    C           -0.558013480381    -0.265682072202    -1.124043938723
    H            0.341388450518     0.749344951931     0.551526679976
    H            1.464339555496     0.315347512653    -0.703822765763
    C           -0.440973422609    -1.710464749270    -0.635377505012
    H           -1.561242584799     0.101419491314    -0.920130273870
    H           -0.448285033808    -0.258653345841    -2.204729961610
    C           -0.764650035942    -1.921131871043     0.842575508631
    H           -1.112277694702    -2.326261835689    -1.227486385720
    H            0.562481974997    -2.077036089055    -0.839234615435
    C           -0.727176789252    -3.389244497153     1.259072934937
    H           -1.751680669996    -1.515212512005     1.053984476550
    H           -0.067233819511    -1.363937154534     1.460586310074
    C           -1.046424080152    -3.602739180356     2.734959414358
    H           -1.432022497401    -3.952214530632     0.653413695430
    H            0.255481561377    -3.798642798589     1.040821916941
    H           -2.037031129088    -3.233081599334     2.978568339043
    H           -1.013018451138    -4.654214630020     2.996328090314
    H           -0.336023450110    -3.082152263888     3.368654476571

  Mulliken Charges: (a.u.)
   Center  Symbol    Alpha    Beta     Spin     Total
       1     H     0.39512  0.39512  0.00000  0.20977
       2     O     4.20144  4.20144  0.00000 -0.40289
       3     C     2.96745  2.96745  0.00000  0.06510
       4     C     3.09372  3.09372  0.00000 -0.18744
       5     H     0.45325  0.45325  0.00000  0.09350
       6     H     0.47320  0.47320  0.00000  0.05361
       7     C     3.10222  3.10222  0.00000 -0.20443
       8     H     0.46218  0.46218  0.00000  0.07564
       9     H     0.44925  0.44925  0.00000  0.10151
      10     C     3.09872  3.09872  0.00000 -0.19745
      11     H     0.45252  0.45252  0.00000  0.09497
      12     H     0.45299  0.45299  0.00000  0.09402
      13     C     3.09803  3.09803  0.00000 -0.19607
      14     H     0.45317  0.45317  0.00000  0.09365
      15     H     0.44688  0.44688  0.00000  0.10623
      16     C     3.08828  3.08828  0.00000 -0.17656
      17     H     0.44809  0.44809  0.00000  0.10383
      18     H     0.45332  0.45332  0.00000  0.09336
      19     C     3.08399  3.08399  0.00000 -0.16798
      20     H     0.45534  0.45534  0.00000  0.08932
      21     H     0.45371  0.45371  0.00000  0.09258
      22     C     3.14973  3.14973  0.00000 -0.29946
      23     H     0.45390  0.45390  0.00000  0.09219
      24     H     0.45441  0.45441  0.00000  0.09118
      25     H     0.45533  0.45533  0.00000  0.08934
      26     H     0.44825  0.44825  0.00000  0.10350
      27     H     0.45552  0.45552  0.00000  0.08897

   Total alpha = 37.00000, Total beta = 37.00000, Total charge =  0.00000

*** Psi4 exiting successfully. Buy a developer a beer!
