  ==> Input File <==

--------------------------------------------------------------------------
set {
	reference rhf
	basis 6-31G*
}

set_num_threads( 1 )
memory 2 gb

molecule MOL {
0 1

O	 3.537480	 0.247285	 0.966359
C	 2.843464	 0.164689	 -0.000222
C	 1.546494	 -0.624492	 -0.000609
C	 3.216101	 0.848241	 -1.299858
C	 0.291004	 0.242674	 0.000989
H	 1.557904	 -1.283758	 -0.867573
H	 1.558622	 -1.285963	 0.864672
C	 -0.994322	 -0.586602	 0.000262
H	 0.309117	 0.896430	 -0.865270
H	 0.309661	 0.894078	 0.869017
C	 -2.259874	 0.272531	 0.000494
H	 -1.004862	 -1.240012	 -0.870939
H	 -1.005220	 -1.241071	 0.870675
C	 -3.549786	 -0.549746	 -0.000374
H	 -2.250389	 0.926680	 -0.869574
H	 -2.250838	 0.925513	 0.871430
C	 -4.809590	 0.315458	 -0.000369
H	 -3.560515	 -1.202009	 -0.871156
H	 -3.561123	 -1.202955	 0.869711
H	 -4.844746	 0.956611	 -0.876632
H	 -5.706986	 -0.295590	 -0.001609
H	 -4.845960	 0.954827	 0.877144
H	 2.439821	 1.547567	 -1.596423
H	 4.151280	 1.377044	 -1.178854
H	 3.313427	 0.117656	 -2.097609

	symmetry c1
}
set optking {
	frozen_dihedral = ("
		9 5 8 12,
		15 11 8 12,
		15 11 14 18,
		9 5 3 6
	")
}

ee = energy('scf')
oeprop('DIPOLE', 'QUADRUPOLE', 'MULLIKEN_CHARGES')
f=open( 'psi4out.xyz', 'w' )
f.write( "25  " )
f.write( str(ee) + "\n" )
f.write( MOL.save_string_xyz() )
f.close()
--------------------------------------------------------------------------

    Molecular point group: c1

    Geometry (in Angstrom), charge = 0, multiplicity = 1:

       Center              X                  Y                   Z               Mass
    ------------   -----------------  -----------------  -----------------  -----------------
           O          3.565013990165     0.202014989250     1.005779317418    15.994914619560
           C          2.870997990165     0.119418989250     0.039198317418    12.000000000000
           C          1.574027990165    -0.669762010750     0.038811317418    12.000000000000
           C          3.243634990165     0.802970989250    -1.260437682582    12.000000000000
           C          0.318537990165     0.197403989250     0.040409317418    12.000000000000
           H          1.585437990165    -1.329028010750    -0.828152682582     1.007825032070
           H          1.586155990165    -1.331233010750     0.904092317418     1.007825032070
           C         -0.966788009835    -0.631872010750     0.039682317418    12.000000000000
           H          0.336650990165     0.851159989250    -0.825849682582     1.007825032070
           H          0.337194990165     0.848807989250     0.908437317418     1.007825032070
           C         -2.232340009835     0.227260989250     0.039914317418    12.000000000000
           H         -0.977328009835    -1.285282010750    -0.831518682582     1.007825032070
           H         -0.977686009835    -1.286341010750     0.910095317418     1.007825032070
           C         -3.522252009835    -0.595016010750     0.039046317418    12.000000000000
           H         -2.222855009835     0.881409989250    -0.830153682582     1.007825032070
           H         -2.223304009835     0.880242989250     0.910850317418     1.007825032070
           C         -4.782056009835     0.270187989250     0.039051317418    12.000000000000
           H         -3.532981009835    -1.247279010750    -0.831735682582     1.007825032070
           H         -3.533589009835    -1.248225010750     0.909131317418     1.007825032070
           H         -4.817212009835     0.911340989250    -0.837211682582     1.007825032070
           H         -5.679452009835    -0.340860010750     0.037811317418     1.007825032070
           H         -4.818426009835     0.909556989250     0.916564317418     1.007825032070
           H          2.467354990165     1.502296989250    -1.557002682582     1.007825032070
           H          4.178813990165     1.331773989250    -1.139433682582     1.007825032070
           H          3.340960990165     0.072385989250    -2.058188682582     1.007825032070

  Charge       = 0
  Multiplicity = 1
  Basis Set: 6-31G*
  Basis Set:

    Orbital Energies (a.u.)
    -----------------------

    Doubly Occupied:

       1A    -20.548782     2A    -11.324362     3A    -11.232256
       4A    -11.229180     5A    -11.226847     6A    -11.224517
       7A    -11.220172     8A    -11.219577     9A    -11.212172
      10A     -1.393504    11A     -1.101911    12A     -1.061703
      13A     -1.012248    14A     -0.970671    15A     -0.896249
      16A     -0.821832    17A     -0.797390    18A     -0.732619
      19A     -0.667781    20A     -0.647657    21A     -0.638198
      22A     -0.612282    23A     -0.606457    24A     -0.588281
      25A     -0.566606    26A     -0.557980    27A     -0.545038
      28A     -0.538593    29A     -0.507337    30A     -0.503356
      31A     -0.488487    32A     -0.478894    33A     -0.469834
      34A     -0.468337    35A     -0.456854    36A     -0.395798

  @DF-RHF Final Energy:  -387.13354216130546

   => Energetics <=

    Nuclear Repulsion Energy =            438.8784597895834736
    One-Electron Energy =               -1394.0965383513407687
    Two-Electron Energy =                 568.0845364004536577
    DFT Exchange-Correlation Energy =       0.0000000000000000
    Empirical Dispersion Energy =           0.0000000000000000
    PCM Polarization Energy =               0.0000000000000000
    EFP Energy =                            0.0000000000000000
    Total Energy =                       -387.1335421613035805

  Mulliken Charges: (a.u.)
   Center  Symbol    Alpha    Beta     Spin     Total
       1     O     4.25936  4.25936  0.00000 -0.51873
       2     C     2.73556  2.73556  0.00000  0.52888
       3     C     3.20321  3.20321  0.00000 -0.40642
       4     C     3.29031  3.29031  0.00000 -0.58062
       5     C     3.16256  3.16256  0.00000 -0.32512
       6     H     0.41608  0.41608  0.00000  0.16784
       7     H     0.40087  0.40087  0.00000  0.19826
       8     C     3.15234  3.15234  0.00000 -0.30468
       9     H     0.41979  0.41979  0.00000  0.16042
      10     H     0.41060  0.41060  0.00000  0.17880
      11     C     3.15164  3.15164  0.00000 -0.30328
      12     H     0.42216  0.42216  0.00000  0.15569
      13     H     0.41905  0.41905  0.00000  0.16190
      14     C     3.15205  3.15205  0.00000 -0.30410
      15     H     0.42373  0.42373  0.00000  0.15255
      16     H     0.42188  0.42188  0.00000  0.15624
      17     C     3.23957  3.23957  0.00000 -0.47915
      18     H     0.42286  0.42286  0.00000  0.15428
      19     H     0.42194  0.42194  0.00000  0.15613
      20     H     0.42165  0.42165  0.00000  0.15671
      21     H     0.41845  0.41845  0.00000  0.16310
      22     H     0.42098  0.42098  0.00000  0.15804
      23     H     0.40779  0.40779  0.00000  0.18442
      24     H     0.39669  0.39669  0.00000  0.20662
      25     H     0.40889  0.40889  0.00000  0.18223

   Total alpha = 36.00000, Total beta = 36.00000, Total charge = -0.00000
