  ==> Input File <==

--------------------------------------------------------------------------
set {
	reference rhf
	basis cc-pvtz
}

set_num_threads( 4 )
memory 2 gb

molecule MOL {
0 1

H	 3.083659	 -1.378387	 0.000000
O	 2.179005	 -1.633391	 0.000000
C	 1.366950	 -0.558201	 0.000000
C	 1.637224	 0.573977	 0.753529
C	 0.233232	 -0.609222	 -0.784921
H	 2.520844	 0.612024	 1.364427
C	 0.774650	 1.650935	 0.720597
H	 0.021709	 -1.482198	 -1.368029
C	 -0.625850	 0.474572	 -0.812058
H	 0.994015	 2.521537	 1.307755
C	 -0.361620	 1.607893	 -0.061998
C	 -1.850467	 0.432282	 -1.653427
H	 -1.034220	 2.443796	 -0.089631
O	 -2.171572	 -0.482623	 -2.331114
H	 -2.466867	 1.335451	 -1.609414

	symmetry c1
}
set optking {
	frozen_dihedral = ("
		4 3 2 1
	")
}

ee = optimize('scf')
oeprop('DIPOLE', 'QUADRUPOLE', 'MULLIKEN_CHARGES')
f=open( 'psi4out.xyz', 'w' )
f.write( "15  " )
f.write( str(ee) + "\n" )
f.write( MOL.save_string_xyz() )
f.close()
--------------------------------------------------------------------------

    Molecular point group: c1
  Charge       = 0
  Multiplicity = 1
  Basis Set: CC-PVTZ
  Basis Set:
  @DF-RHF Final Energy:  -418.43704972788277
    Total Energy =                       -418.4370497278828225
    Molecular point group: c1
  Basis Set: CC-PVTZ
  Basis Set:
  Basis Set: CC-PVTZ
  Basis Set:
  @DF-RHF Final Energy:  -418.43720162901519
    Total Energy =                       -418.4372016290155898
  Basis Set: CC-PVTZ
  Basis Set:
  Basis Set: CC-PVTZ
  Basis Set:
  @DF-RHF Final Energy:  -418.43725681372047
    Total Energy =                       -418.4372568137204098
  Basis Set: CC-PVTZ
  Basis Set:
  Basis Set: CC-PVTZ
  Basis Set:
  @DF-RHF Final Energy:  -418.43708388947732
    Total Energy =                       -418.4370838894776625
  Basis Set: CC-PVTZ
  Basis Set:
  Basis Set: CC-PVTZ
  Basis Set:
  @DF-RHF Final Energy:  -418.43731295605750
    Total Energy =                       -418.4373129560576672
  Basis Set: CC-PVTZ
  Basis Set:
  Charge       = 0
  Multiplicity = 1
  Basis Set: CC-PVTZ
  Basis Set:

    Orbital Energies (a.u.)
    -----------------------

    Doubly Occupied:

       1A    -20.590125     2A    -20.554454     3A    -11.327797
       4A    -11.308254     5A    -11.250647     6A    -11.250481
       7A    -11.247943     8A    -11.245945     9A    -11.238744
      10A     -1.420251    11A     -1.410260    12A     -1.174685
      13A     -1.052258    14A     -1.030816    15A     -0.901515
      16A     -0.849624    17A     -0.813442    18A     -0.741404
      19A     -0.704581    20A     -0.689659    21A     -0.646248
      22A     -0.641415    23A     -0.620447    24A     -0.610990
      25A     -0.564932    26A     -0.554225    27A     -0.543985
      28A     -0.512876    29A     -0.492703    30A     -0.426916
      31A     -0.357820    32A     -0.336670

  @DF-RHF Final Energy:  -418.43731396844487

   => Energetics <=

    Nuclear Repulsion Energy =            403.8614933216647387
    One-Electron Energy =               -1370.3733870199398552
    Two-Electron Energy =                 548.0745797298299067
    DFT Exchange-Correlation Energy =       0.0000000000000000
    Empirical Dispersion Energy =           0.0000000000000000
    PCM Polarization Energy =               0.0000000000000000
    EFP Energy =                            0.0000000000000000
    Total Energy =                       -418.4373139684452099
    Molecular point group: c1
  Basis Set: CC-PVTZ
  Basis Set:

  -Total Gradient:
     Atom            X                  Y                   Z
    ------   -----------------  -----------------  -----------------
       1        0.000081094912     0.000018343208    -0.002226169431
       2       -0.000585563552    -0.000418607857     0.003439609197
       3        0.001486912482     0.001149615961    -0.002338039734
       4       -0.000841822061    -0.000839488396     0.001161606612
       5       -0.000146267704     0.000113305783    -0.000034235161
       6       -0.000002830983     0.000007039848    -0.000000915507
       7       -0.000226636102     0.000100315822    -0.000055904655
       8        0.000012973767    -0.000018349964    -0.000007959571
       9        0.000026302072    -0.000216253160    -0.000079609069
      10        0.000017623740    -0.000006746989    -0.000001384085
      11        0.000180505215     0.000113035103     0.000128954095
      12       -0.000004249067    -0.000014066699     0.000018029648
      13       -0.000012372662    -0.000004442061    -0.000005144996
      14        0.000010985455     0.000008847261     0.000000551287
      15        0.000003344484     0.000007452141     0.000000611368

  **** Optimization is complete! (in 6 steps) ****
    Final optimized geometry and variables:
    Molecular point group: c1

    Geometry (in Angstrom), charge = 0, multiplicity = 1:

    H            2.945023278168    -1.497242208451     0.539198237877
    O            2.038940761116    -1.746701884852     0.504369727933
    C            1.233205640383    -0.658333038789     0.468941065564
    C            1.498107255525     0.467213616477     1.235941029751
    C            0.096654882142    -0.712352572573    -0.306570059389
    H            2.374991559355     0.491806464982     1.856008853069
    C            0.636994728225     1.543927955581     1.206555892905
    H           -0.114114536950    -1.583957305813    -0.892184176174
    C           -0.772047261733     0.367327387270    -0.321686179374
    H            0.852654139724     2.412210917085     1.798434434440
    C           -0.504326585003     1.497833305060     0.428319033682
    C           -2.001496431314     0.323430396103    -1.154646464423
    H           -1.180283878785     2.331556677175     0.408136405837
    O           -2.321422602663    -0.588562723158    -1.836815705821
    H           -2.622753853660     1.222990891808    -1.099906812193

  Mulliken Charges: (a.u.)
   Center  Symbol    Alpha    Beta     Spin     Total
       1     H     0.38554  0.38554  0.00000  0.22893
       2     O     4.17783  4.17783  0.00000 -0.35566
       3     C     2.85392  2.85392  0.00000  0.29217
       4     C     3.11762  3.11762  0.00000 -0.23525
       5     C     3.11817  3.11817  0.00000 -0.23635
       6     H     0.42394  0.42394  0.00000  0.15212
       7     C     3.06478  3.06478  0.00000 -0.12957
       8     H     0.40320  0.40320  0.00000  0.19360
       9     C     2.97322  2.97322  0.00000  0.05356
      10     H     0.41925  0.41925  0.00000  0.16149
      11     C     3.10472  3.10472  0.00000 -0.20945
      12     C     2.90906  2.90906  0.00000  0.18188
      13     H     0.42287  0.42287  0.00000  0.15427
      14     O     4.16928  4.16928  0.00000 -0.33856
      15     H     0.45659  0.45659  0.00000  0.08682

   Total alpha = 32.00000, Total beta = 32.00000, Total charge =  0.00000
