                              Psi4 1.0.54 Driver

  ==> Input File <==

--------------------------------------------------------------------------
set {
	reference rhf
	basis cc-pvtz
}

set_num_threads( 4 )
memory 2 gb

molecule MOL {
0 1

H	 -3.436473	 1.252944	 -1.023892
O	 -3.458596	 0.315260	 -0.960865
C	 -3.176635	 -0.080824	 0.355601
C	 -1.763371	 0.265266	 0.799691
H	 -3.321825	 -1.153438	 0.379502
H	 -3.895468	 0.357385	 1.043382
C	 -0.673390	 -0.426948	 -0.013392
H	 -1.631049	 1.344913	 0.747560
H	 -1.664587	 -0.001624	 1.849167
C	 0.737842	 -0.043159	 0.423759
H	 -0.806103	 -0.190518	 -1.063345
H	 -0.797221	 -1.503753	 0.074146
C	 1.007258	 -0.345206	 1.896590
H	 1.454762	 -0.568704	 -0.199714
H	 0.896046	 1.017959	 0.242494
C	 2.381600	 0.095627	 2.403245
H	 0.887074	 -1.411894	 2.071472
H	 0.245975	 0.146364	 2.496112
C	 3.559874	 -0.655388	 1.787786
H	 2.409105	 -0.038451	 3.480298
H	 2.503114	 1.161498	 2.228391
H	 3.462512	 -1.725364	 1.941892
H	 4.494016	 -0.341454	 2.239523
H	 3.640148	 -0.480997	 0.721602

	symmetry c1
}
set optking {
	frozen_dihedral = ("
		13 10 7 11
	")
}

ee,wfn = optimize('scf', return_wfn=True)
oeprop( wfn, 'DIPOLE', 'QUADRUPOLE', 'MULLIKEN_CHARGES')
f=open( 'psi4out.xyz', 'w' )
f.write( "24  " )
f.write( str(ee) + "\n" )
f.write( MOL.save_string_xyz() )
f.close()
--------------------------------------------------------------------------

    Molecular point group: c1
  Charge       = 0
  Multiplicity = 1
  Basis Set: CC-PVTZ
  Basis Set:
  @DF-RHF Final Energy:  -349.37703665430189
    Total Energy =                       -349.3770366543017190
    Molecular point group: c1
  Basis Set: CC-PVTZ
  Basis Set:
  Basis Set: CC-PVTZ
  Basis Set:
  @DF-RHF Final Energy:  -348.48100204128406
    Total Energy =                       -348.4810020412841141
  Basis Set: CC-PVTZ
  Basis Set:
  Basis Set: CC-PVTZ
  Basis Set:
  @DF-RHF Final Energy:  -348.69949179297112
    Total Energy =                       -348.6994917929710027
  Basis Set: CC-PVTZ
  Basis Set:
  Basis Set: CC-PVTZ
  Basis Set:
  @DF-RHF Final Energy:  -349.05608961710743
    Total Energy =                       -349.0560896171073750
  Basis Set: CC-PVTZ
  Basis Set:
  @DF-RHF Final Energy:  -349.29169347116175
    Total Energy =                       -349.2916934711615795
  @DF-RHF Final Energy:  -349.36530960075635
    Total Energy =                       -349.3653096007562908
  @DF-RHF Final Energy:  -349.37487301013692
    Total Energy =                       -349.3748730101367528
  @DF-RHF Final Energy:  -349.37784301706728
    Total Energy =                       -349.3778430170670504
  @DF-RHF Final Energy:  -349.37831726237067
    Total Energy =                       -349.3783172623712403
  Basis Set: CC-PVTZ
  Basis Set:
  @DF-RHF Final Energy:  -349.37833830780767
    Total Energy =                       -349.3783383078079510
  Basis Set: CC-PVTZ
  Basis Set:
  Basis Set: CC-PVTZ
  Basis Set:
  @DF-RHF Final Energy:  -349.37833581526206
    Total Energy =                       -349.3783358152619485
  Basis Set: CC-PVTZ
  Basis Set:
  Basis Set: CC-PVTZ
  Basis Set:
  @DF-RHF Final Energy:  -349.37834345402774
    Total Energy =                       -349.3783434540279131
  Basis Set: CC-PVTZ
  Basis Set:
  Charge       = 0
  Multiplicity = 1
  Basis Set: CC-PVTZ
  Basis Set:

    Orbital Energies (a.u.)
    -----------------------

    Doubly Occupied:

       1A    -20.546321     2A    -11.265497     3A    -11.214495
       4A    -11.212935     5A    -11.210590     6A    -11.210003
       7A    -11.209095     8A    -11.205399     9A     -1.364200
      10A     -1.089980    11A     -1.047986    12A     -0.985423
      13A     -0.917649    14A     -0.854411    15A     -0.807060
      16A     -0.769223    17A     -0.682411    18A     -0.641768
      19A     -0.634160    20A     -0.620209    21A     -0.602313
      22A     -0.584870    23A     -0.557819    24A     -0.548710
      25A     -0.517605    26A     -0.508982    27A     -0.500736
      28A     -0.478492    29A     -0.471427    30A     -0.456336
      31A     -0.455965    32A     -0.438050    33A     -0.426764

  @DF-RHF Final Energy:  -349.37834386433963

   => Energetics <=

    Nuclear Repulsion Energy =            388.0788923878110381
    One-Electron Energy =               -1242.8407046723116309
    Two-Electron Energy =                 505.3834684201605114
    DFT Exchange-Correlation Energy =       0.0000000000000000
    Empirical Dispersion Energy =           0.0000000000000000
    PCM Polarization Energy =               0.0000000000000000
    EFP Energy =                            0.0000000000000000
    Total Energy =                       -349.3783438643400814
    Molecular point group: c1
  Basis Set: CC-PVTZ
  Basis Set:

  -Total Gradient:
     Atom            X                  Y                   Z
    ------   -----------------  -----------------  -----------------
       1       -0.000002195029    -0.000036149363    -0.000031957480
       2       -0.000007613280     0.000088628970     0.000032860010
       3        0.000025583548    -0.000063558603    -0.000035868909
       4       -0.000002578462    -0.000003779521     0.000017847336
       5       -0.000015782063    -0.000019818396    -0.000005588952
       6        0.000008948865     0.000010344612     0.000010493261
       7        0.000400347011    -0.001204279016    -0.000534409659
       8        0.000022872850    -0.000016255622     0.000003966193
       9       -0.000013262149     0.000003051159     0.000014205042
      10        0.000348649228    -0.001110393211    -0.000459000371
      11       -0.000428661447     0.001328017451     0.000563135864
      12       -0.000014967099     0.000020566452     0.000000597160
      13       -0.000310970916     0.000995005732     0.000418440520
      14        0.000012409695    -0.000010969483    -0.000010169007
      15        0.000001835230     0.000009832814     0.000012466136
      16       -0.000009022137    -0.000018071290     0.000022116274
      17       -0.000005295848    -0.000009543301    -0.000004573484
      18       -0.000005977534     0.000011377067     0.000008008699
      19       -0.000010024161     0.000025976468    -0.000020870261
      20        0.000004596188     0.000002585058     0.000003196809
      21        0.000001675106    -0.000021227862    -0.000008795484
      22       -0.000005936081     0.000019935574     0.000004742306
      23       -0.000001632289     0.000001672216     0.000009055257
      24        0.000007000769    -0.000002947905    -0.000009897260

  **** Optimization is complete! (in 13 steps) ****
    Final optimized geometry and variables:
    Molecular point group: c1

    Geometry (in Angstrom), charge = 0, multiplicity = 1:

    H           -1.193928494162     2.837821308141    -2.429615264230
    O           -1.356395941689     1.994600214717    -2.811921627502
    C           -2.057763981360     1.186869697363    -1.903699489393
    C           -1.258762355455     0.846419032741    -0.653756094365
    H           -2.306896690635     0.281953786693    -2.443589799345
    H           -2.993931693289     1.662342648338    -1.622247724838
    C           -0.000193313755     0.029892180093    -0.944165928650
    H           -0.987592209128     1.771396509341    -0.145921288830
    H           -1.916230686089     0.309239725886     0.022277787951
    C            0.928960364750    -0.174681891330     0.254621367156
    H            0.554040607610     0.535386548948    -1.726014840150
    H           -0.292025891392    -0.937708973924    -1.345634441952
    C            0.293732676673    -0.880549876339     1.452497598005
    H            1.792076001432    -0.736397294746    -0.084888748621
    H            1.306788394041     0.792993303840     0.579135265896
    C            1.251081430274    -1.133026413509     2.619873539395
    H           -0.131315063535    -1.828964894608     1.129068085941
    H           -0.535562454764    -0.286264217059     1.820433200899
    C            2.351209768120    -2.153560407972     2.338102855871
    H            0.670727539583    -1.477051446737     3.470559989332
    H            1.701695839997    -0.191525403387     2.923259427881
    H            1.929032417763    -3.104838700490     2.030272167254
    H            2.947078549653    -2.330182598523     3.226382505174
    H            3.024383665955    -1.822604679463     1.556819313606

  Mulliken Charges: (a.u.)
   Center  Symbol    Alpha    Beta     Spin     Total
       1     H     0.39525  0.39525  0.00000  0.20949
       2     O     4.20367  4.20367  0.00000 -0.40734
       3     C     2.97502  2.97502  0.00000  0.04996
       4     C     3.10585  3.10585  0.00000 -0.21170
       5     H     0.45895  0.45895  0.00000  0.08209
       6     H     0.45974  0.45974  0.00000  0.08053
       7     C     3.09740  3.09740  0.00000 -0.19480
       8     H     0.45826  0.45826  0.00000  0.08348
       9     H     0.45145  0.45145  0.00000  0.09711
      10     C     3.10127  3.10127  0.00000 -0.20255
      11     H     0.44010  0.44010  0.00000  0.11979
      12     H     0.45323  0.45323  0.00000  0.09354
      13     C     3.09827  3.09827  0.00000 -0.19655
      14     H     0.44501  0.44501  0.00000  0.10999
      15     H     0.45462  0.45462  0.00000  0.09075
      16     C     3.08912  3.08912  0.00000 -0.17823
      17     H     0.45447  0.45447  0.00000  0.09107
      18     H     0.44711  0.44711  0.00000  0.10579
      19     C     3.15147  3.15147  0.00000 -0.30294
      20     H     0.44879  0.44879  0.00000  0.10243
      21     H     0.45515  0.45515  0.00000  0.08969
      22     H     0.45500  0.45500  0.00000  0.09000
      23     H     0.44696  0.44696  0.00000  0.10609
      24     H     0.45384  0.45384  0.00000  0.09231

   Total alpha = 33.00000, Total beta = 33.00000, Total charge = -0.00000

*** Psi4 exiting successfully. Buy a developer a beer!
