  ==> Input File <==

--------------------------------------------------------------------------
set {
	reference rhf
	basis cc-pvtz
}

set_num_threads( 4 )
memory 2 gb

molecule MOL {
0 1

H	 -2.497152	 -0.552467	 0.672705
N	 -1.731424	 0.087229	 0.668109
C	 -0.561396	 -0.500007	 0.035200
H	 -1.540581	 0.325283	 1.619027
C	 0.575129	 0.507849	 -0.048832
H	 -0.843399	 -0.803694	 -0.967529
H	 -0.206877	 -1.396869	 0.545464
C	 1.951750	 -0.141983	 0.035101
H	 0.478254	 1.061643	 -0.975981
H	 0.467676	 1.231891	 0.755499
H	 2.101550	 -0.848142	 -0.774949
H	 2.738260	 0.600794	 -0.026526
H	 2.078939	 -0.679792	 0.968824

	symmetry c1
}
set optking {
	frozen_dihedral = ("
		6 3 5 9
	")
}

ee = optimize('scf')
oeprop('DIPOLE', 'QUADRUPOLE', 'MULLIKEN_CHARGES')
f=open( 'psi4out.xyz', 'w' )
f.write( "13  " )
f.write( str(ee) + "\n" )
f.write( MOL.save_string_xyz() )
f.close()
--------------------------------------------------------------------------

    Molecular point group: c1
  Charge       = 0
  Multiplicity = 1
  Basis Set: CC-PVTZ
  Basis Set:
  @DF-RHF Final Energy:  -173.34889712618619
    Total Energy =                       -173.3488971261862162
    Molecular point group: c1
  Basis Set: CC-PVTZ
  Basis Set:
  Basis Set: CC-PVTZ
  Basis Set:
  @DF-RHF Final Energy:  -173.34924436313662
    Total Energy =                       -173.3492443631366768
  Basis Set: CC-PVTZ
  Basis Set:
  Basis Set: CC-PVTZ
  Basis Set:
  @DF-RHF Final Energy:  -173.34932345209106
    Total Energy =                       -173.3493234520909425
  Basis Set: CC-PVTZ
  Basis Set:
  Basis Set: CC-PVTZ
  Basis Set:
  @DF-RHF Final Energy:  -173.34932496906026
    Total Energy =                       -173.3493249690601488
  Basis Set: CC-PVTZ
  Basis Set:
  Charge       = 0
  Multiplicity = 1
  Basis Set: CC-PVTZ
  Basis Set:

    Orbital Energies (a.u.)
    -----------------------

    Doubly Occupied:

       1A    -15.526376     2A    -11.238643     3A    -11.210643
       4A    -11.206837     5A     -1.177408     6A     -1.035008
       7A     -0.898749     8A     -0.799775     9A     -0.668235
      10A     -0.620091    11A     -0.608261    12A     -0.566341
      13A     -0.534023    14A     -0.490245    15A     -0.478628
      16A     -0.467036    17A     -0.383745

  @DF-RHF Final Energy:  -173.34932525956549

   => Energetics <=

    Nuclear Repulsion Energy =            131.9087426193416945
    One-Electron Energy =                -494.6960507149677824
    Two-Electron Energy =                 189.4379828360606837
    DFT Exchange-Correlation Energy =       0.0000000000000000
    Empirical Dispersion Energy =           0.0000000000000000
    PCM Polarization Energy =               0.0000000000000000
    EFP Energy =                            0.0000000000000000
    Total Energy =                       -173.3493252595654042
    Molecular point group: c1
  Basis Set: CC-PVTZ
  Basis Set:

  -Total Gradient:
     Atom            X                  Y                   Z
    ------   -----------------  -----------------  -----------------
       1       -0.000000998172     0.000011511803     0.000004530355
       2        0.000013676237    -0.000035927870    -0.000002181117
       3        0.004678801611    -0.005234566257    -0.000282744803
       4        0.000004365945    -0.000005939284    -0.000019350087
       5       -0.004230980775     0.004929768096     0.002749425543
       6       -0.003288323974     0.003641232807    -0.000188923121
       7        0.000002782319     0.000021596154    -0.000004783713
       8       -0.000003318956     0.000008456895     0.000014900890
       9        0.002811130160    -0.003320579660    -0.002268262554
      10        0.000001193059    -0.000012567147     0.000002640771
      11       -0.000005251466    -0.000005250944    -0.000002623210
      12        0.000007770542     0.000000442494    -0.000000022101
      13        0.000009153469     0.000001822912    -0.000002606854

  **** Optimization is complete! (in 5 steps) ****
    Final optimized geometry and variables:
    Molecular point group: c1

    Geometry (in Angstrom), charge = 0, multiplicity = 1:

    H           -2.556025189273    -0.519173632869     0.420213540269
    N           -1.784245639505     0.112782492959     0.449703251792
    C           -0.592120972048    -0.485885048066    -0.135790339617
    H           -1.631877075317     0.348701908295     1.407987138036
    C            0.544031794479     0.536840415731    -0.213556288592
    H           -0.869025257948    -0.791593770202    -1.138098624153
    H           -0.256286774660    -1.371550137313     0.402246121220
    C            1.925558761172    -0.112485780730    -0.179105538009
    H            0.455969516732     1.096892133771    -1.137482358875
    H            0.451805049986     1.242971891509     0.604333327105
    H            2.041632136510    -0.830017461917    -0.985312226925
    H            2.709204341635     0.628777056792    -0.284878269345
    H            2.090828441553    -0.639415362162     0.754846266139

  Mulliken Charges: (a.u.)
   Center  Symbol    Alpha    Beta     Spin     Total
       1     H     0.42939  0.42939  0.00000  0.14122
       2     N     3.69144  3.69144  0.00000 -0.38288
       3     C     3.02616  3.02616  0.00000 -0.05232
       4     H     0.43075  0.43075  0.00000  0.13851
       5     C     3.07699  3.07699  0.00000 -0.15399
       6     H     0.45630  0.45630  0.00000  0.08739
       7     H     0.46727  0.46727  0.00000  0.06545
       8     C     3.15247  3.15247  0.00000 -0.30494
       9     H     0.45243  0.45243  0.00000  0.09515
      10     H     0.45544  0.45544  0.00000  0.08913
      11     H     0.45540  0.45540  0.00000  0.08920
      12     H     0.44883  0.44883  0.00000  0.10235
      13     H     0.45713  0.45713  0.00000  0.08574

   Total alpha = 17.00000, Total beta = 17.00000, Total charge =  0.00000
