                              Psi4 1.0.54 Driver

  ==> Input File <==

--------------------------------------------------------------------------
set {
	reference rhf
	basis cc-pvtz
}

set_num_threads( 4 )
memory 2 gb

molecule MOL {
0 1

H	 -2.195635	 0.397665	 2.521611
C	 -1.745930	 -0.448576	 3.035931
O	 -0.541806	 -0.817281	 2.451393
H	 -1.544164	 -0.166304	 4.058917
H	 -2.459557	 -1.270537	 3.034513
C	 -0.647155	 -1.218363	 1.124867
C	 0.725601	 -1.493331	 0.564260
H	 -1.246574	 -2.125709	 1.051464
H	 -1.129840	 -0.448261	 0.527046
O	 1.401606	 -0.295166	 0.366636
H	 1.271447	 -2.134157	 1.253335
H	 0.620690	 -2.027582	 -0.379954
C	 2.714315	 -0.441627	 -0.061017
H	 2.765292	 -0.641548	 -1.128869
H	 3.305661	 0.447341	 0.150952
H	 3.143725	 -1.278506	 0.470147

	symmetry c1
}
set optking {
	frozen_dihedral = ("
		7 10 13 14
	")
}

ee,wfn = optimize('scf', return_wfn=True)
oeprop( wfn, 'DIPOLE', 'QUADRUPOLE', 'MULLIKEN_CHARGES')
f=open( 'psi4out.xyz', 'w' )
f.write( "16  " )
f.write( str(ee) + "\n" )
f.write( MOL.save_string_xyz() )
f.close()
--------------------------------------------------------------------------

    Molecular point group: c1
  Charge       = 0
  Multiplicity = 1
  Basis Set: CC-PVTZ
  Basis Set:
  @DF-RHF Final Energy:  -307.09586982278563
    Total Energy =                       -307.0958698227856303
    Molecular point group: c1
  Basis Set: CC-PVTZ
  Basis Set:
  Basis Set: CC-PVTZ
  Basis Set:
  @DF-RHF Final Energy:  -307.09683217599348
    Total Energy =                       -307.0968321759935975
  Basis Set: CC-PVTZ
  Basis Set:
  Basis Set: CC-PVTZ
  Basis Set:
  @DF-RHF Final Energy:  -307.09708161220806
    Total Energy =                       -307.0970816122080009
  Basis Set: CC-PVTZ
  Basis Set:
  Charge       = 0
  Multiplicity = 1
  Basis Set: CC-PVTZ
  Basis Set:

    Orbital Energies (a.u.)
    -----------------------

    Doubly Occupied:

       1A    -20.547731     2A    -20.547063     3A    -11.267595
       4A    -11.266868     5A    -11.261560     6A    -11.261384
       7A     -1.391268     8A     -1.373945     9A     -1.032106
      10A     -0.937323    11A     -0.892136    12A     -0.824256
      13A     -0.686003    14A     -0.682484    15A     -0.659255
      16A     -0.638336    17A     -0.631657    18A     -0.598132
      19A     -0.552242    20A     -0.536154    21A     -0.509488
      22A     -0.479430    23A     -0.464553    24A     -0.422935
      25A     -0.412928

  @DF-RHF Final Energy:  -307.09708266065604

   => Energetics <=

    Nuclear Repulsion Energy =            258.8451322963710481
    One-Electron Energy =                -932.1307672926384384
    Two-Electron Energy =                 366.1885523356114049
    DFT Exchange-Correlation Energy =       0.0000000000000000
    Empirical Dispersion Energy =           0.0000000000000000
    PCM Polarization Energy =               0.0000000000000000
    EFP Energy =                            0.0000000000000000
    Total Energy =                       -307.0970826606559854
    Molecular point group: c1
  Basis Set: CC-PVTZ
  Basis Set:

  -Total Gradient:
     Atom            X                  Y                   Z
    ------   -----------------  -----------------  -----------------
       1        0.000002400172    -0.000000661327    -0.000000829938
       2       -0.000002872115    -0.000000609577    -0.000000477085
       3        0.000005390978    -0.000007384975     0.000024570767
       4        0.000001711165    -0.000001264749    -0.000000897588
       5       -0.000001239823    -0.000000184859     0.000001382718
       6        0.000014939528     0.000075749823    -0.000016231441
       7        0.000612932380    -0.000149200122     0.001783983037
       8        0.000033482205     0.000000113564    -0.000005558511
       9       -0.000012448558    -0.000000084813    -0.000011458891
      10       -0.000777782498     0.000793219761    -0.002793907415
      11        0.000030515505     0.000031409643     0.000006823360
      12        0.000005374013     0.000003747763     0.000007820797
      13        0.000038347882    -0.003149741498     0.001419056093
      14        0.000029405275     0.002402586708    -0.000400797410
      15       -0.000003250689     0.000019799793    -0.000011307509
      16        0.000023094580    -0.000017495133    -0.000002170986

  **** Optimization is complete! (in 4 steps) ****
    Final optimized geometry and variables:
    Molecular point group: c1

    Geometry (in Angstrom), charge = 0, multiplicity = 1:

    H           -2.513724785955     1.153607420900     1.295258685721
    C           -2.056733625941     0.305359115916     1.799737671163
    O           -0.854926929931    -0.053095828449     1.204193297746
    H           -1.849368913859     0.580324790003     2.823591731223
    H           -2.766631875706    -0.519839433982     1.796490377468
    C           -0.967332851805    -0.443614520070    -0.124893137118
    C            0.402930718970    -0.708703075312    -0.696422810543
    H           -1.563158784500    -1.353057734551    -0.201806999289
    H           -1.457390214346     0.329119804026    -0.713157182746
    O            1.074181247901     0.494241375604    -0.881869758274
    H            0.954962384760    -1.354267546634    -0.017590992113
    H            0.291866895936    -1.234173175545    -1.645153846336
    C            2.385343377009     0.370765805783    -1.324808825172
    H            2.427120489970     0.191200843876    -2.397138134133
    H            2.891941112711     1.303848849099    -1.121278031867
    H            2.912198050490    -0.428119195989    -0.810352205945

  Mulliken Charges: (a.u.)
   Center  Symbol    Alpha    Beta     Spin     Total
       1     H     0.47020  0.47020  0.00000  0.05959
       2     C     3.03202  3.03202  0.00000 -0.06404
       3     O     4.17034  4.17034  0.00000 -0.34067
       4     H     0.44638  0.44638  0.00000  0.10725
       5     H     0.47371  0.47371  0.00000  0.05259
       6     C     2.96126  2.96126  0.00000  0.07748
       7     C     2.96035  2.96035  0.00000  0.07930
       8     H     0.47619  0.47619  0.00000  0.04762
       9     H     0.47070  0.47070  0.00000  0.05860
      10     O     4.17137  4.17137  0.00000 -0.34275
      11     H     0.46912  0.46912  0.00000  0.06176
      12     H     0.47732  0.47732  0.00000  0.04535
      13     C     3.03098  3.03098  0.00000 -0.06196
      14     H     0.46925  0.46925  0.00000  0.06150
      15     H     0.44763  0.44763  0.00000  0.10473
      16     H     0.47317  0.47317  0.00000  0.05365

   Total alpha = 25.00000, Total beta = 25.00000, Total charge = -0.00000

*** Psi4 exiting successfully. Buy a developer a beer!
