  ==> Input File <==

--------------------------------------------------------------------------
set {
	reference rhf
	basis cc-pvtz
}

set_num_threads( 4 )
memory 2 gb

molecule MOL {
0 1

H	 1.166964	 -1.062386	 0.758429
O	 1.324748	 -0.612467	 -0.052206
C	 0.706474	 0.636793	 -0.025501
C	 1.629635	 1.785820	 0.266291
H	 -0.054239	 0.586106	 0.744597
H	 0.186898	 0.832448	 -0.961695
C	 2.900149	 1.688732	 0.589827
H	 1.171728	 2.758729	 0.195451
H	 3.387330	 0.737327	 0.687069
H	 3.491763	 2.563590	 0.781334

	symmetry c1
}
set optking {
	frozen_dihedral = ("
		5 3 2 1
	")
}

ee = optimize('scf')
oeprop('DIPOLE', 'QUADRUPOLE', 'MULLIKEN_CHARGES')
f=open( 'psi4out.xyz', 'w' )
f.write( "10  " )
f.write( str(ee) + "\n" )
f.write( MOL.save_string_xyz() )
f.close()
--------------------------------------------------------------------------

    Molecular point group: c1
  Charge       = 0
  Multiplicity = 1
  Basis Set: CC-PVTZ
  Basis Set:
  @DF-RHF Final Energy:  -191.99596192347070
    Total Energy =                       -191.9959619234707304
    Molecular point group: c1
  Basis Set: CC-PVTZ
  Basis Set:
  Basis Set: CC-PVTZ
  Basis Set:
  @DF-RHF Final Energy:  -191.99708774291821
    Total Energy =                       -191.9970877429182394
  Basis Set: CC-PVTZ
  Basis Set:
  Basis Set: CC-PVTZ
  Basis Set:
  @DF-RHF Final Energy:  -191.99741368033557
    Total Energy =                       -191.9974136803355691
  Basis Set: CC-PVTZ
  Basis Set:
  Basis Set: CC-PVTZ
  Basis Set:
  @DF-RHF Final Energy:  -191.99743227255715
    Total Energy =                       -191.9974322725570914
  Basis Set: CC-PVTZ
  Basis Set:
  Charge       = 0
  Multiplicity = 1
  Basis Set: CC-PVTZ
  Basis Set:

    Orbital Energies (a.u.)
    -----------------------

    Doubly Occupied:

       1A    -20.553869     2A    -11.278612     3A    -11.224788
       4A    -11.210282     5A     -1.373681     6A     -1.058874
       7A     -0.928946     8A     -0.763731     9A     -0.703763
      10A     -0.657462    11A     -0.616297    12A     -0.578306
      13A     -0.518549    14A     -0.508679    15A     -0.449551
      16A     -0.363694

  @DF-RHF Final Energy:  -191.99743324056891

   => Energetics <=

    Nuclear Repulsion Energy =            119.4022623618879351
    One-Electron Energy =                -497.2212202272683612
    Two-Electron Energy =                 185.8215246248115875
    DFT Exchange-Correlation Energy =       0.0000000000000000
    Empirical Dispersion Energy =           0.0000000000000000
    PCM Polarization Energy =               0.0000000000000000
    EFP Energy =                            0.0000000000000000
    Total Energy =                       -191.9974332405688244
    Molecular point group: c1
  Basis Set: CC-PVTZ
  Basis Set:

  -Total Gradient:
     Atom            X                  Y                   Z
    ------   -----------------  -----------------  -----------------
       1       -0.001226982093    -0.000643916482    -0.000673674548
       2        0.001739217527     0.000859988050     0.001095820965
       3       -0.001271714650    -0.000702855288    -0.001480000669
       4       -0.000067217326    -0.000009312154     0.000108907973
       5        0.000827621701     0.000479518258     0.000978855074
       6       -0.000000409717    -0.000005670004     0.000010264447
       7       -0.000045036651    -0.000014532236     0.000091622347
       8        0.000013887086     0.000023271967    -0.000029348302
       9        0.000017322606     0.000009759319    -0.000040014270
      10        0.000013311519     0.000003748568    -0.000062433018

  **** Optimization is complete! (in 5 steps) ****
    Final optimized geometry and variables:
    Molecular point group: c1

    Geometry (in Angstrom), charge = 0, multiplicity = 1:

    H           -0.463493511198    -1.861672829665     0.576457552621
    O           -0.269739219890    -1.400756766331    -0.217315777544
    C           -0.909210859533    -0.157703607253    -0.226820200371
    C            0.007311020575     0.990558057117     0.087795668054
    H           -1.736943284253    -0.140740025985     0.478051009632
    H           -1.335614311423    -0.010417399420    -1.213361335610
    C            1.289581630686     0.894818329470     0.357322624194
    H           -0.466457227388     1.958688261054     0.075177899150
    H            1.789987689002    -0.053782743052     0.364646927707
    H            1.877417131963     1.767847317866     0.568749056333

  Mulliken Charges: (a.u.)
   Center  Symbol    Alpha    Beta     Spin     Total
       1     H     0.39038  0.39038  0.00000  0.21924
       2     O     4.19907  4.19907  0.00000 -0.39813
       3     C     2.95028  2.95028  0.00000  0.09945
       4     C     3.08090  3.08090  0.00000 -0.16180
       5     H     0.47045  0.47045  0.00000  0.05910
       6     H     0.45817  0.45817  0.00000  0.08365
       7     C     3.17634  3.17634  0.00000 -0.35269
       8     H     0.42412  0.42412  0.00000  0.15175
       9     H     0.42109  0.42109  0.00000  0.15783
      10     H     0.42920  0.42920  0.00000  0.14161

   Total alpha = 16.00000, Total beta = 16.00000, Total charge = -0.00000
