                              Psi4 1.0.54 Driver

  ==> Input File <==

--------------------------------------------------------------------------
set {
	reference rhf
	basis cc-pvtz
}

set_num_threads( 4 )
memory 2 gb

molecule MOL {
0 1

H	 -1.945446	 1.447213	 0.156575
C	 -1.976437	 0.414521	 -0.175433
O	 -0.775228	 0.000056	 -0.739966
H	 -2.728278	 0.332090	 -0.947503
H	 -2.280292	 -0.208581	 0.659461
C	 0.406133	 -0.000384	 0.036994
C	 1.526415	 -0.003194	 -0.997339
C	 0.498772	 1.259027	 0.900673
C	 0.495883	 -1.257378	 0.904465
H	 1.452279	 0.872071	 -1.630204
H	 1.451276	 -0.881020	 -1.626529
H	 2.497919	 -0.002741	 -0.517601
H	 0.368981	 2.144239	 0.289753
H	 1.470064	 1.313479	 1.377660
H	 -0.248448	 1.271586	 1.684297
H	 0.363971	 -2.144195	 0.296316
H	 1.467114	 -1.312636	 1.381470
H	 -0.251246	 -1.265768	 1.688235

	symmetry c1
}
set optking {
	frozen_dihedral = ("
		2 3 6 7
	")
}

ee,wfn = optimize('scf', return_wfn=True)
oeprop( wfn, 'DIPOLE', 'QUADRUPOLE', 'MULLIKEN_CHARGES')
f=open( 'psi4out.xyz', 'w' )
f.write( "18  " )
f.write( str(ee) + "\n" )
f.write( MOL.save_string_xyz() )
f.close()
--------------------------------------------------------------------------

    Molecular point group: c1
  Charge       = 0
  Multiplicity = 1
  Basis Set: CC-PVTZ
  Basis Set:
  @DF-RHF Final Energy:  -271.27550485131513
    Total Energy =                       -271.2755048513152474
    Molecular point group: c1
  Basis Set: CC-PVTZ
  Basis Set:
  Basis Set: CC-PVTZ
  Basis Set:
  @DF-RHF Final Energy:  -271.27576201806812
    Total Energy =                       -271.2757620180681783
  Basis Set: CC-PVTZ
  Basis Set:
  Basis Set: CC-PVTZ
  Basis Set:
  @DF-RHF Final Energy:  -271.27609626111689
    Total Energy =                       -271.2760962611169475
  Basis Set: CC-PVTZ
  Basis Set:
  Basis Set: CC-PVTZ
  Basis Set:
  @DF-RHF Final Energy:  -271.27610777158401
    Total Energy =                       -271.2761077715842362
  Basis Set: CC-PVTZ
  Basis Set:
  Basis Set: CC-PVTZ
  Basis Set:
  @DF-RHF Final Energy:  -271.27611705873613
    Total Energy =                       -271.2761170587361903
  Basis Set: CC-PVTZ
  Basis Set:
  Charge       = 0
  Multiplicity = 1
  Basis Set: CC-PVTZ
  Basis Set:

    Orbital Energies (a.u.)
    -----------------------

    Doubly Occupied:

       1A    -20.539979     2A    -11.280206     3A    -11.258706
       4A    -11.209358     5A    -11.205065     6A    -11.201906
       7A     -1.372969     8A     -1.074753     9A     -0.948603
      10A     -0.939313    11A     -0.912835    12A     -0.753260
      13A     -0.657103    14A     -0.647517    15A     -0.639593
      16A     -0.590830    17A     -0.575076    18A     -0.552831
      19A     -0.535738    20A     -0.525733    21A     -0.515345
      22A     -0.491393    23A     -0.486587    24A     -0.441585
      25A     -0.405306

  @DF-RHF Final Energy:  -271.27611761516630

   => Energetics <=

    Nuclear Repulsion Energy =            272.6690682094259728
    One-Electron Energy =                -908.3671938940490236
    Two-Electron Energy =                 364.4220080694566946
    DFT Exchange-Correlation Energy =       0.0000000000000000
    Empirical Dispersion Energy =           0.0000000000000000
    PCM Polarization Energy =               0.0000000000000000
    EFP Energy =                            0.0000000000000000
    Total Energy =                       -271.2761176151663562
    Molecular point group: c1
  Basis Set: CC-PVTZ
  Basis Set:

  -Total Gradient:
     Atom            X                  Y                   Z
    ------   -----------------  -----------------  -----------------
       1       -0.000008843496     0.000016946311     0.000001041094
       2        0.000386164219     0.001998506031    -0.000636698755
       3       -0.000575781799    -0.002513035614     0.000867356338
       4        0.000005053556    -0.000008150826     0.000008636303
       5       -0.000012333445     0.000014171099    -0.000013484112
       6        0.000150240144    -0.001262114084    -0.000283830452
       7       -0.000032208614     0.001747355608     0.000019189027
       8        0.000023648299     0.000017805161     0.000020757888
       9        0.000050208659    -0.000012555017     0.000033671627
      10        0.000005553690     0.000006222613     0.000004880015
      11       -0.000010397229     0.000002177377     0.000001911577
      12       -0.000006992709    -0.000004699754     0.000005035512
      13       -0.000017816057    -0.000007812288     0.000009025576
      14        0.000004474780     0.000023584825    -0.000015372751
      15        0.000029704767    -0.000009619354    -0.000004349768
      16       -0.000004111517    -0.000000295185     0.000003103731
      17       -0.000011980066    -0.000017262364    -0.000006053883
      18        0.000025416817     0.000008775462    -0.000014818964

  **** Optimization is complete! (in 6 steps) ****
    Final optimized geometry and variables:
    Molecular point group: c1

    Geometry (in Angstrom), charge = 0, multiplicity = 1:

    H           -2.009260126925     1.392197813732     0.033561397683
    C           -1.986813012003     0.325816623940    -0.164025942018
    O           -0.783185628331    -0.081161872825    -0.728479909015
    H           -2.761915523966     0.097658365763    -0.881950064903
    H           -2.216239853328    -0.200766076407     0.758110065543
    C            0.402030280686    -0.066170427059     0.045590344521
    C            1.527388881057    -0.065374240912    -0.983106915107
    C            0.510734620836     1.186526163089     0.917420640330
    C            0.463487729400    -1.327906859863     0.906621076429
    H            1.486335951383     0.835359664660    -1.582363791981
    H            1.426954631764    -0.915601750575    -1.645851546229
    H            2.495979626444    -0.117178474972    -0.499736968339
    H            0.399433577301     2.082572919418     0.318564139291
    H            1.484983023098     1.217155433660     1.389469239830
    H           -0.233335735269     1.204966209412     1.703827189637
    H            0.394117659550    -2.208900370498     0.280921586232
    H            1.394237171874    -1.371613758134     1.460444015266
    H           -0.348086018061    -1.357519318690     1.623835290898

  Mulliken Charges: (a.u.)
   Center  Symbol    Alpha    Beta     Spin     Total
       1     H     0.46692  0.46692  0.00000  0.06615
       2     C     3.04402  3.04402  0.00000 -0.08804
       3     O     4.19259  4.19259  0.00000 -0.38519
       4     H     0.44185  0.44185  0.00000  0.11631
       5     H     0.47026  0.47026  0.00000  0.05948
       6     C     2.87457  2.87457  0.00000  0.25086
       7     C     3.14125  3.14125  0.00000 -0.28251
       8     C     3.17215  3.17215  0.00000 -0.34430
       9     C     3.15295  3.15295  0.00000 -0.30590
      10     H     0.45065  0.45065  0.00000  0.09871
      11     H     0.44768  0.44768  0.00000  0.10464
      12     H     0.45933  0.45933  0.00000  0.08134
      13     H     0.44496  0.44496  0.00000  0.11007
      14     H     0.44506  0.44506  0.00000  0.10988
      15     H     0.44624  0.44624  0.00000  0.10753
      16     H     0.44756  0.44756  0.00000  0.10488
      17     H     0.45210  0.45210  0.00000  0.09580
      18     H     0.44986  0.44986  0.00000  0.10028

   Total alpha = 25.00000, Total beta = 25.00000, Total charge = -0.00000

*** Psi4 exiting successfully. Buy a developer a beer!
