  ==> Input File <==

--------------------------------------------------------------------------
set {
	reference rhf
	basis 6-31G*
}

set_num_threads( 1 )
memory 2 gb

molecule MOL {
0 1

H	 2.591676	 2.013956	 0.335017
O	 3.341076	 1.666752	 -0.126416
C	 3.569581	 0.339145	 0.272707
C	 2.539767	 -0.640285	 -0.279495
H	 4.553106	 0.084646	 -0.100901
H	 3.608576	 0.269204	 1.359154
C	 1.910177	 -0.200634	 -1.603576
H	 3.017740	 -1.608190	 -0.406257
H	 1.758325	 -0.767767	 0.467809
C	 0.842278	 -1.177494	 -2.103729
H	 2.689714	 -0.100049	 -2.353623
H	 1.462789	 0.785957	 -1.481827
C	 0.119154	 -0.741252	 -3.383231
H	 1.296396	 -2.153980	 -2.262155
H	 0.101377	 -1.312090	 -1.318457
C	 0.997935	 -0.694890	 -4.636257
H	 -0.703862	 -1.430003	 -3.562347
H	 -0.334423	 0.235919	 -3.224352
C	 0.210728	 -0.357522	 -5.904296
H	 1.489884	 -1.657895	 -4.765563
H	 1.791217	 0.037984	 -4.510152
C	 1.086653	 -0.304291	 -7.155530
H	 -0.576258	 -1.095078	 -6.046258
H	 -0.289404	 0.599862	 -5.773264
H	 1.575731	 -1.258062	 -7.332586
H	 0.499870	 -0.065125	 -8.037074
H	 1.862067	 0.450670	 -7.059975

	symmetry c1
}
set optking {
	frozen_dihedral = ("
		14 10 7 4,
		14 10 13 16,
		10 7 4 8,
		10 13 16 20,
		20 16 19 22,
		4 3 2 1
	")
}

ee = energy('scf')
oeprop('DIPOLE', 'QUADRUPOLE', 'MULLIKEN_CHARGES')
f=open( 'psi4out.xyz', 'w' )
f.write( "27  " )
f.write( str(ee) + "\n" )
f.write( MOL.save_string_xyz() )
f.close()
--------------------------------------------------------------------------

    Molecular point group: c1

    Geometry (in Angstrom), charge = 0, multiplicity = 1:

       Center              X                  Y                   Z               Mass
    ------------   -----------------  -----------------  -----------------  -----------------
           H          0.936815324266     2.211378298348     3.071040253349     1.007825032070
           O          1.686215324266     1.864174298348     2.609607253349    15.994914619560
           C          1.914720324266     0.536567298348     3.008730253349    12.000000000000
           C          0.884906324266    -0.442862701652     2.456528253349    12.000000000000
           H          2.898245324266     0.282068298348     2.635122253349     1.007825032070
           H          1.953715324266     0.466626298348     4.095177253349     1.007825032070
           C          0.255316324266    -0.003211701652     1.132447253349    12.000000000000
           H          1.362879324266    -1.410767701652     2.329766253349     1.007825032070
           H          0.103464324266    -0.570344701652     3.203832253349     1.007825032070
           C         -0.812582675734    -0.980071701652     0.632294253349    12.000000000000
           H          1.034853324266     0.097373298348     0.382400253349     1.007825032070
           H         -0.192071675734     0.983379298348     1.254196253349     1.007825032070
           C         -1.535706675734    -0.543829701652    -0.647207746651    12.000000000000
           H         -0.358464675734    -1.956557701652     0.473868253349     1.007825032070
           H         -1.553483675734    -1.114667701652     1.417566253349     1.007825032070
           C         -0.656925675734    -0.497467701652    -1.900233746651    12.000000000000
           H         -2.358722675734    -1.232580701652    -0.826323746651     1.007825032070
           H         -1.989283675734     0.433341298348    -0.488328746651     1.007825032070
           C         -1.444132675734    -0.160099701652    -3.168272746651    12.000000000000
           H         -0.164976675734    -1.460472701652    -2.029539746651     1.007825032070
           H          0.136356324266     0.235406298348    -1.774128746651     1.007825032070
           C         -0.568207675734    -0.106868701652    -4.419506746651    12.000000000000
           H         -2.231118675734    -0.897655701652    -3.310234746651     1.007825032070
           H         -1.944264675734     0.797284298348    -3.037240746651     1.007825032070
           H         -0.079129675734    -1.060639701652    -4.596562746651     1.007825032070
           H         -1.154990675734     0.132297298348    -5.301050746651     1.007825032070
           H          0.207206324266     0.648092298348    -4.323951746651     1.007825032070

  Charge       = 0
  Multiplicity = 1
  Basis Set: 6-31G*
  Basis Set:

    Orbital Energies (a.u.)
    -----------------------

    Doubly Occupied:

       1A    -20.553605     2A    -11.267238     3A    -11.214365
       4A    -11.212106     5A    -11.211403     6A    -11.210829
       7A    -11.209983     8A    -11.209335     9A    -11.205869
      10A     -1.360945    11A     -1.089627    12A     -1.056894
      13A     -1.008552    14A     -0.945403    15A     -0.884167
      16A     -0.817776    17A     -0.797829    18A     -0.772378
      19A     -0.686139    20A     -0.647217    21A     -0.640658
      22A     -0.611922    23A     -0.603983    24A     -0.584423
      25A     -0.569311    26A     -0.555673    27A     -0.539429
      28A     -0.518890    29A     -0.503264    30A     -0.493200
      31A     -0.477113    32A     -0.465385    33A     -0.461185
      34A     -0.455499    35A     -0.451592    36A     -0.438075
      37A     -0.422850

  @DF-RHF Final Energy:  -388.27703904477852

   => Energetics <=

    Nuclear Repulsion Energy =            461.0576816446494490
    One-Electron Energy =               -1440.3612249881591652
    Two-Electron Energy =                 591.0265042987297193
    DFT Exchange-Correlation Energy =       0.0000000000000000
    Empirical Dispersion Energy =           0.0000000000000000
    PCM Polarization Energy =               0.0000000000000000
    EFP Energy =                            0.0000000000000000
    Total Energy =                       -388.2770390447800537

  Mulliken Charges: (a.u.)
   Center  Symbol    Alpha    Beta     Spin     Total
       1     H     0.28284  0.28284  0.00000  0.43432
       2     O     4.36750  4.36750  0.00000 -0.73499
       3     C     2.99453  2.99453  0.00000  0.01095
       4     C     3.17898  3.17898  0.00000 -0.35796
       5     H     0.41598  0.41598  0.00000  0.16803
       6     H     0.42798  0.42798  0.00000  0.14403
       7     C     3.14449  3.14449  0.00000 -0.28899
       8     H     0.41937  0.41937  0.00000  0.16126
       9     H     0.42595  0.42595  0.00000  0.14810
      10     C     3.15342  3.15342  0.00000 -0.30684
      11     H     0.41755  0.41755  0.00000  0.16490
      12     H     0.42273  0.42273  0.00000  0.15455
      13     C     3.15249  3.15249  0.00000 -0.30498
      14     H     0.42525  0.42525  0.00000  0.14950
      15     H     0.42447  0.42447  0.00000  0.15106
      16     C     3.15313  3.15313  0.00000 -0.30625
      17     H     0.42274  0.42274  0.00000  0.15451
      18     H     0.42444  0.42444  0.00000  0.15112
      19     C     3.15103  3.15103  0.00000 -0.30207
      20     H     0.42524  0.42524  0.00000  0.14952
      21     H     0.42009  0.42009  0.00000  0.15982
      22     C     3.23916  3.23916  0.00000 -0.47833
      23     H     0.42385  0.42385  0.00000  0.15230
      24     H     0.42321  0.42321  0.00000  0.15358
      25     H     0.42223  0.42223  0.00000  0.15555
      26     H     0.41994  0.41994  0.00000  0.16012
      27     H     0.42141  0.42141  0.00000  0.15718

   Total alpha = 37.00000, Total beta = 37.00000, Total charge =  0.00000
