  ==> Input File <==

--------------------------------------------------------------------------
set {
	reference rhf
	basis 6-31G*
}

set_num_threads( 4 )
memory 2 gb

molecule MOL {
0 1

H	 -2.788440	 1.677263	 1.668116
C	 -2.561336	 0.672695	 1.368235
C	 -1.491076	 0.431329	 0.646926
H	 -3.224471	 -0.115734	 1.670795
O	 -1.180634	 -0.819263	 0.215062
H	 -0.810518	 1.205708	 0.339724
C	 0.051604	 -1.018856	 -0.387932
C	 1.043764	 0.054862	 -0.001873
H	 -0.017620	 -1.041351	 -1.469781
H	 0.437898	 -1.966374	 -0.042284
F	 2.212596	 -0.199467	 -0.571921
F	 0.652529	 1.252447	 -0.405055
F	 1.230877	 0.110694	 1.300533

	symmetry c1
}
set optking {
	frozen_dihedral = ("
		3 5 7 9
	")
}

ee = optimize('scf')
oeprop('DIPOLE', 'QUADRUPOLE', 'MULLIKEN_CHARGES')
f=open( 'psi4out.xyz', 'w' )
f.write( "13  " )
f.write( str(ee) + "\n" )
f.write( MOL.save_string_xyz() )
f.close()
--------------------------------------------------------------------------

    Molecular point group: c1
  Charge       = 0
  Multiplicity = 1
  Basis Set: 6-31G*
  Basis Set:
  @DF-RHF Final Energy:  -527.50775216119905
    Total Energy =                       -527.5077521611984821
    Molecular point group: c1
  Basis Set: 6-31G*
  Basis Set:
  Basis Set: 6-31G*
  Basis Set:
  @DF-RHF Final Energy:  -527.52155286060679
    Total Energy =                       -527.5215528606065618
  Basis Set: 6-31G*
  Basis Set:
  Basis Set: 6-31G*
  Basis Set:
  @DF-RHF Final Energy:  -527.52605912146100
    Total Energy =                       -527.5260591214610031
  Basis Set: 6-31G*
  Basis Set:
  Basis Set: 6-31G*
  Basis Set:
  @DF-RHF Final Energy:  -527.52695518351129
    Total Energy =                       -527.5269551835115180
  Basis Set: 6-31G*
  Basis Set:
  @DF-RHF Final Energy:  -527.52724860108810
    Total Energy =                       -527.5272486010879902
  Basis Set: 6-31G*
  Basis Set:
  @DF-RHF Final Energy:  -527.52731398526271
    Total Energy =                       -527.5273139852622535
  Basis Set: 6-31G*
  Basis Set:
  Basis Set: 6-31G*
  Basis Set:
  @DF-RHF Final Energy:  -527.52733690945729
    Total Energy =                       -527.5273369094574036
  Basis Set: 6-31G*
  Basis Set:
  Basis Set: 6-31G*
  Basis Set:
  @DF-RHF Final Energy:  -527.52733970774966
    Total Energy =                       -527.5273397077496611
  Basis Set: 6-31G*
  Basis Set:
  Charge       = 0
  Multiplicity = 1
  Basis Set: 6-31G*
  Basis Set:

    Orbital Energies (a.u.)
    -----------------------

    Doubly Occupied:

       1A    -26.351091     2A    -26.350449     3A    -26.349186
       4A    -20.601980     5A    -11.512644     6A    -11.318968
       7A    -11.295205     8A    -11.213629     9A     -1.749452
      10A     -1.646638    11A     -1.646041    12A     -1.428706
      13A     -1.083990    14A     -1.019123    15A     -0.930645
      16A     -0.843184    17A     -0.838546    18A     -0.834250
      19A     -0.767136    20A     -0.723452    21A     -0.719689
      22A     -0.699256    23A     -0.680987    24A     -0.663495
      25A     -0.658030    26A     -0.650677    27A     -0.640904
      28A     -0.590062    29A     -0.558568    30A     -0.525910
      31A     -0.492960    32A     -0.349536

  @DF-RHF Final Energy:  -527.52734039978941

   => Energetics <=

    Nuclear Repulsion Energy =            416.2326247187681929
    One-Electron Energy =               -1556.0511561844625703
    Two-Electron Energy =                 612.2911910659054229
    DFT Exchange-Correlation Energy =       0.0000000000000000
    Empirical Dispersion Energy =           0.0000000000000000
    PCM Polarization Energy =               0.0000000000000000
    EFP Energy =                            0.0000000000000000
    Total Energy =                       -527.5273403997889545
    Molecular point group: c1
  Basis Set: 6-31G*
  Basis Set:

  -Total Gradient:
     Atom            X                  Y                   Z
    ------   -----------------  -----------------  -----------------
       1        0.000002592924     0.000001656418     0.000002768999
       2        0.000072440367    -0.000041296510    -0.000065552087
       3        0.001030386567    -0.000647105160     0.003052556583
       4        0.000006479428     0.000009707146    -0.000000454286
       5       -0.001939702347     0.000138203287    -0.004595680118
       6        0.000001126811    -0.000063740370     0.000016032903
       7        0.001458325578     0.004275070493     0.001475250504
       8       -0.000089459199     0.000087490540    -0.000016974702
       9       -0.000590451311    -0.003662797757     0.000110860768
      10       -0.000027854424    -0.000005696834     0.000007070719
      11        0.000007825849    -0.000023101879     0.000019046107
      12       -0.000007475568    -0.000029793105    -0.000003483337
      13        0.000075765323    -0.000038596273    -0.000001442053

  **** Optimization is complete! (in 9 steps) ****
    Final optimized geometry and variables:
    Molecular point group: c1

    Geometry (in Angstrom), charge = 0, multiplicity = 1:

    H           -3.146270465329     1.524899902817     1.514812623518
    C           -2.799426994917     0.554428610721     1.216541494092
    C           -1.827494574613     0.448174865297     0.339688798040
    H           -3.268904297924    -0.311993931088     1.643339573475
    O           -1.411599872511    -0.768946778240    -0.102791876721
    H           -1.351625151323     1.303123165059    -0.099417516550
    C           -0.149716962004    -0.991694510208    -0.647279729850
    C            0.966315828203    -0.051004047767    -0.243293430915
    H           -0.197223847650    -1.013824546133    -1.729804239973
    H            0.156493175188    -1.973674850049    -0.315178057601
    F            2.112358649911    -0.560287691726    -0.664977116700
    F            0.853555281079     1.153118407859    -0.785574880991
    F            1.043418629434     0.104887845864     1.062865557646

  Mulliken Charges: (a.u.)
   Center  Symbol    Alpha    Beta     Spin     Total
       1     H     0.40768  0.40768  0.00000  0.18464
       2     C     3.23153  3.23153  0.00000 -0.46305
       3     C     2.90941  2.90941  0.00000  0.18118
       4     H     0.40349  0.40349  0.00000  0.19302
       5     O     4.31356  4.31356  0.00000 -0.62712
       6     H     0.39526  0.39526  0.00000  0.20949
       7     C     3.03063  3.03063  0.00000 -0.06127
       8     C     2.47578  2.47578  0.00000  1.04843
       9     H     0.40320  0.40320  0.00000  0.19360
      10     H     0.39475  0.39475  0.00000  0.21051
      11     F     4.68064  4.68064  0.00000 -0.36129
      12     F     4.67978  4.67978  0.00000 -0.35956
      13     F     4.67429  4.67429  0.00000 -0.34858

   Total alpha = 32.00000, Total beta = 32.00000, Total charge =  0.00000
