                              Psi4 1.0.54 Driver

  ==> Input File <==

--------------------------------------------------------------------------
set {
	reference rhf
	basis cc-pvtz
}

set_num_threads( 4 )
memory 2 gb

molecule MOL {
0 1

O	 -2.240394	 1.572829	 -0.303758
C	 -2.057618	 0.402203	 -0.216239
C	 -0.834872	 -0.246597	 -0.834300
C	 -3.017554	 -0.495712	 0.527427
C	 0.376695	 -0.140025	 0.100361
H	 -0.624075	 0.269281	 -1.762494
H	 -1.035574	 -1.288387	 -1.060704
C	 1.630207	 -0.772146	 -0.501001
H	 0.546736	 0.906882	 0.317846
H	 0.152516	 -0.624374	 1.047699
C	 2.907848	 -0.545876	 0.309149
H	 1.772784	 -0.391628	 -1.509394
H	 1.468529	 -1.842059	 -0.599744
C	 3.373802	 0.906639	 0.372125
H	 3.699140	 -1.146831	 -0.127906
H	 2.764321	 -0.923458	 1.318191
H	 3.519798	 1.311927	 -0.623875
H	 4.316899	 0.983758	 0.900700
H	 2.661122	 1.540651	 0.885346
H	 -3.510899	 -1.154377	 -0.180223
H	 -3.757020	 0.096808	 1.043839
H	 -2.485590	 -1.124365	 1.232692

	symmetry c1
}
set optking {
	frozen_dihedral = ("
		3 5 8 12
	")
}

ee,wfn = optimize('scf', return_wfn=True)
oeprop( wfn, 'DIPOLE', 'QUADRUPOLE', 'MULLIKEN_CHARGES')
f=open( 'psi4out.xyz', 'w' )
f.write( "22  " )
f.write( str(ee) + "\n" )
f.write( MOL.save_string_xyz() )
f.close()
--------------------------------------------------------------------------

    Molecular point group: c1
  Charge       = 0
  Multiplicity = 1
  Basis Set: CC-PVTZ
  Basis Set:
  @DF-RHF Final Energy:  -348.22315898349484
    Total Energy =                       -348.2231589834946703
    Molecular point group: c1
  Basis Set: CC-PVTZ
  Basis Set:
  Basis Set: CC-PVTZ
  Basis Set:
  @DF-RHF Final Energy:  -348.22272188363081
    Total Energy =                       -348.2227218836313796
  Basis Set: CC-PVTZ
  Basis Set:
  Basis Set: CC-PVTZ
  Basis Set:
  @DF-RHF Final Energy:  -348.22316677834971
    Total Energy =                       -348.2231667783497642
  Basis Set: CC-PVTZ
  Basis Set:
  Basis Set: CC-PVTZ
  Basis Set:
  @DF-RHF Final Energy:  -348.22313866069476
    Total Energy =                       -348.2231386606943033
  Basis Set: CC-PVTZ
  Basis Set:
  @DF-RHF Final Energy:  -348.22298867311667
    Total Energy =                       -348.2229886731170154
  Basis Set: CC-PVTZ
  Basis Set:
  @DF-RHF Final Energy:  -348.22321315431742
    Total Energy =                       -348.2232131543173637
  Basis Set: CC-PVTZ
  Basis Set:
  Basis Set: CC-PVTZ
  Basis Set:
  @DF-RHF Final Energy:  -348.22318490889893
    Total Energy =                       -348.2231849088988156
  Basis Set: CC-PVTZ
  Basis Set:
  Basis Set: CC-PVTZ
  Basis Set:
  @DF-RHF Final Energy:  -348.22322852557352
    Total Energy =                       -348.2232285255730631
  Basis Set: CC-PVTZ
  Basis Set:
  Charge       = 0
  Multiplicity = 1
  Basis Set: CC-PVTZ
  Basis Set:

    Orbital Energies (a.u.)
    -----------------------

    Doubly Occupied:

       1A    -20.536774     2A    -11.319256     3A    -11.227996
       4A    -11.227401     5A    -11.226865     6A    -11.220675
       7A    -11.219070     8A    -11.209242     9A     -1.396845
      10A     -1.097237    11A     -1.045712    12A     -1.000263
      13A     -0.939105    14A     -0.858108    15A     -0.788004
      16A     -0.734200    17A     -0.663515    18A     -0.647272
      19A     -0.627644    20A     -0.622901    21A     -0.599001
      22A     -0.581882    23A     -0.565587    24A     -0.542556
      25A     -0.535485    26A     -0.518257    27A     -0.501094
      28A     -0.490371    29A     -0.471792    30A     -0.464121
      31A     -0.462624    32A     -0.398505

  @DF-RHF Final Energy:  -348.22322946929927

   => Energetics <=

    Nuclear Repulsion Energy =            373.5995440282474078
    One-Electron Energy =               -1212.1668236533748768
    Two-Electron Energy =                 490.3440501558279720
    DFT Exchange-Correlation Energy =       0.0000000000000000
    Empirical Dispersion Energy =           0.0000000000000000
    PCM Polarization Energy =               0.0000000000000000
    EFP Energy =                            0.0000000000000000
    Total Energy =                       -348.2232294692994401
    Molecular point group: c1
  Basis Set: CC-PVTZ
  Basis Set:

  -Total Gradient:
     Atom            X                  Y                   Z
    ------   -----------------  -----------------  -----------------
       1        0.000007005815     0.000025694222    -0.000003961931
       2       -0.000018605632    -0.000020602033     0.000029884582
       3        0.000287896889     0.001053928861    -0.000494493825
       4       -0.000032091740    -0.000010341865    -0.000047298265
       5       -0.000634032166    -0.001750198449     0.000520206864
       6        0.000011224187    -0.000003939741     0.000000607113
       7        0.000003821765     0.000002399354     0.000002306785
       8        0.001282282428     0.001964926464     0.000557567419
       9       -0.000007483840     0.000003825579     0.000012421091
      10       -0.000005884078    -0.000006406895    -0.000000505814
      11        0.000021577150     0.000009915699     0.000039423011
      12       -0.000934331704    -0.001263516043    -0.000623811155
      13       -0.000003738721    -0.000007304996    -0.000003540181
      14       -0.000015558954    -0.000016235181    -0.000016710199
      15       -0.000036017706     0.000051273773     0.000025222881
      16        0.000018563575     0.000006652584    -0.000031815919
      17       -0.000011343021    -0.000007755877     0.000028215642
      18       -0.000007123837     0.000000421914     0.000000041372
      19        0.000033668659    -0.000043964758    -0.000024808916
      20        0.000021556821     0.000020679978     0.000034890348
      21        0.000009241743    -0.000001769315    -0.000010697824
      22        0.000009372372    -0.000007683280     0.000006856923

  **** Optimization is complete! (in 9 steps) ****
    Final optimized geometry and variables:
    Molecular point group: c1

    Geometry (in Angstrom), charge = 0, multiplicity = 1:

    O           -2.289639031806     1.467077773213    -0.226566251278
    C           -2.087235527504     0.298775882512    -0.152211885921
    C           -0.855559156194    -0.322718469529    -0.779908774017
    C           -3.031233009116    -0.623026002486     0.582449841730
    C            0.353363062442    -0.216717220106     0.158270735807
    H           -0.648914772608     0.212808167979    -1.697468777477
    H           -1.043501393224    -1.362708185389    -1.026088340148
    C            1.609606349954    -0.848506533784    -0.438964179175
    H            0.519630705997     0.831873336390     0.371081699998
    H            0.130778705628    -0.695922857623     1.108135381857
    C            2.881994993690    -0.640786526178     0.383788485444
    H            1.758749287441    -0.469730209778    -1.447012275730
    H            1.438069955132    -1.916254157126    -0.547705439765
    C            3.396073886816     0.796484957610     0.410673512702
    H            3.659426423818    -1.279573539143    -0.023048405536
    H            2.711524413448    -0.983827254373     1.400921261830
    H            3.583083746595     1.160756683873    -0.594138767247
    H            4.326759329494     0.859846346473     0.962573153519
    H            2.693211281919     1.472718555807     0.881384409613
    H           -3.518842376163    -1.277208398043    -0.133178027750
    H           -3.776412953606    -0.048207988929     1.110468490708
    H           -2.488236208358    -1.255253036199     1.275962822276

  Mulliken Charges: (a.u.)
   Center  Symbol    Alpha    Beta     Spin     Total
       1     O     4.17776  4.17776  0.00000 -0.35551
       2     C     2.85838  2.85838  0.00000  0.28325
       3     C     3.09794  3.09794  0.00000 -0.19587
       4     C     3.15499  3.15499  0.00000 -0.30999
       5     C     3.10351  3.10351  0.00000 -0.20702
       6     H     0.43876  0.43876  0.00000  0.12249
       7     H     0.44877  0.44877  0.00000  0.10246
       8     C     3.09729  3.09729  0.00000 -0.19459
       9     H     0.43933  0.43933  0.00000  0.12134
      10     H     0.45131  0.45131  0.00000  0.09737
      11     C     3.09065  3.09065  0.00000 -0.18129
      12     H     0.45176  0.45176  0.00000  0.09648
      13     H     0.44861  0.44861  0.00000  0.10277
      14     C     3.15065  3.15065  0.00000 -0.30130
      15     H     0.44746  0.44746  0.00000  0.10508
      16     H     0.45472  0.45472  0.00000  0.09055
      17     H     0.45401  0.45401  0.00000  0.09197
      18     H     0.44650  0.44650  0.00000  0.10699
      19     H     0.45244  0.45244  0.00000  0.09512
      20     H     0.44831  0.44831  0.00000  0.10337
      21     H     0.43607  0.43607  0.00000  0.12785
      22     H     0.45076  0.45076  0.00000  0.09847

   Total alpha = 32.00000, Total beta = 32.00000, Total charge =  0.00000

*** Psi4 exiting successfully. Buy a developer a beer!
