  ==> Input File <==

--------------------------------------------------------------------------
set {
	reference rhf
	basis cc-pvtz
}

set_num_threads( 4 )
memory 2 gb

molecule MOL {
0 1

H	 -3.963845	 1.127031	 -0.562008
O	 -3.253755	 0.557397	 -0.793274
C	 -2.302264	 0.528872	 0.237390
C	 -1.175688	 -0.398187	 -0.171891
H	 -1.911711	 1.527326	 0.422679
H	 -2.753774	 0.177012	 1.162681
C	 0.196029	 0.106276	 0.266738
H	 -1.201873	 -0.515469	 -1.250677
H	 -1.365975	 -1.378728	 0.252664
C	 1.330220	 -0.826136	 -0.155230
H	 0.359542	 1.097229	 -0.145561
H	 0.212134	 0.218135	 1.348778
C	 2.719700	 -0.407669	 0.328325
H	 1.339388	 -0.911200	 -1.239363
H	 1.119001	 -1.821953	 0.224128
C	 3.241564	 0.893452	 -0.276737
H	 3.418299	 -1.204729	 0.093035
H	 2.711776	 -0.323368	 1.411960
H	 3.254204	 0.841071	 -1.360784
H	 2.634460	 1.745075	 0.005842
H	 4.254264	 1.092401	 0.054971

	symmetry c1
}
set optking {
	frozen_dihedral = ("
		2 3 4 8
	")
}

ee = optimize('scf')
oeprop('DIPOLE', 'QUADRUPOLE', 'MULLIKEN_CHARGES')
f=open( 'psi4out.xyz', 'w' )
f.write( "21  " )
f.write( str(ee) + "\n" )
f.write( MOL.save_string_xyz() )
f.close()
--------------------------------------------------------------------------

    Molecular point group: c1
  Charge       = 0
  Multiplicity = 1
  Basis Set: CC-PVTZ
  Basis Set:
  @DF-RHF Final Energy:  -310.32874594342240
    Total Energy =                       -310.3287459434222910
    Molecular point group: c1
  Basis Set: CC-PVTZ
  Basis Set:
  Basis Set: CC-PVTZ
  Basis Set:
  @DF-RHF Final Energy:  -310.32907738380112
    Total Energy =                       -310.3290773838012342
  Basis Set: CC-PVTZ
  Basis Set:
  Basis Set: CC-PVTZ
  Basis Set:
  @DF-RHF Final Energy:  -310.32915226631877
    Total Energy =                       -310.3291522663183741
  Basis Set: CC-PVTZ
  Basis Set:
  Basis Set: CC-PVTZ
  Basis Set:
  @DF-RHF Final Energy:  -310.32915437014162
    Total Energy =                       -310.3291543701415662
  Basis Set: CC-PVTZ
  Basis Set:
  Charge       = 0
  Multiplicity = 1
  Basis Set: CC-PVTZ
  Basis Set:

    Orbital Energies (a.u.)
    -----------------------

    Doubly Occupied:

       1A    -20.545295     2A    -11.265186     3A    -11.212772
       4A    -11.212612     5A    -11.210677     6A    -11.208725
       7A    -11.205402     8A     -1.362590     9A     -1.086452
      10A     -1.032770    11A     -0.954527    12A     -0.876681
      13A     -0.808172    14A     -0.778929    15A     -0.701226
      16A     -0.652762    17A     -0.622025    18A     -0.608809
      19A     -0.590557    20A     -0.566343    21A     -0.541149
      22A     -0.520776    23A     -0.508674    24A     -0.492639
      25A     -0.478016    26A     -0.459596    27A     -0.456201
      28A     -0.444615    29A     -0.432491

  @DF-RHF Final Energy:  -310.32915405540729

   => Energetics <=

    Nuclear Repulsion Energy =            313.0460499773041079
    One-Electron Energy =               -1041.0770677634814092
    Two-Electron Energy =                 417.7018637307697304
    DFT Exchange-Correlation Energy =       0.0000000000000000
    Empirical Dispersion Energy =           0.0000000000000000
    PCM Polarization Energy =               0.0000000000000000
    EFP Energy =                            0.0000000000000000
    Total Energy =                       -310.3291540554075141
    Molecular point group: c1
  Basis Set: CC-PVTZ
  Basis Set:

  -Total Gradient:
     Atom            X                  Y                   Z
    ------   -----------------  -----------------  -----------------
       1       -0.000120899619     0.000014528990    -0.000045103351
       2        0.001532709847     0.002626298352    -0.001156999149
       3       -0.002288053634    -0.004223090525     0.001796290612
       4        0.003649530525     0.005022277714    -0.000785002126
       5       -0.000016981624     0.000028453999    -0.000025146532
       6       -0.000101097423     0.000014596233    -0.000099075589
       7       -0.000108448814    -0.000038144520    -0.000115176254
       8       -0.002504426047    -0.003406595622     0.000343020737
       9       -0.000074870894    -0.000038557631     0.000052109093
      10       -0.000018196582     0.000005750193     0.000071753118
      11        0.000045943479     0.000062514640     0.000023651054
      12       -0.000037655758    -0.000043402279    -0.000046714955
      13        0.000082225628    -0.000068573661    -0.000074364667
      14        0.000009185311    -0.000010842751     0.000028792055
      15       -0.000031885725     0.000022009208     0.000009378337
      16       -0.000025048457     0.000006547083     0.000019970616
      17        0.000042326865     0.000018786870    -0.000006190429
      18        0.000009192147    -0.000020420183    -0.000007780776
      19        0.000009870359    -0.000013239605     0.000016872667
      20       -0.000044892885     0.000025412636    -0.000013391035
      21       -0.000008526713     0.000015690859     0.000013106574

  **** Optimization is complete! (in 5 steps) ****
    Final optimized geometry and variables:
    Molecular point group: c1

    Geometry (in Angstrom), charge = 0, multiplicity = 1:

    H           -4.074623245193     0.958701893466    -0.396731678141
    O           -3.325768442869     0.468380317424    -0.682050463851
    C           -2.355495199852     0.435856467043     0.333174935604
    C           -1.206000847163    -0.465333445323    -0.109904729928
    H           -1.984651721098     1.442157106050     0.514837558744
    H           -2.786071940318     0.076343777997     1.263637897514
    C            0.164650780281     0.025277101505     0.343038716638
    H           -1.253781339439    -0.554637990950    -1.189054066605
    H           -1.373696167438    -1.469320394254     0.269447100719
    C            1.294697209011    -0.922229072764    -0.053334673910
    H            0.340038271235     1.011153810796    -0.075176780287
    H            0.165997722218     0.147091008093     1.424734006396
    C            2.683515100706    -0.506391249154     0.434851572250
    H            1.311624592695    -1.024547507523    -1.135905887070
    H            1.073046327728    -1.910407014158     0.339971508458
    C            3.217809529279     0.783505194378    -0.183096988221
    H            3.379050596256    -1.310530887295     0.215079170005
    H            2.668226137100    -0.407943906259     1.517245462761
    H            3.240811507579     0.715623152934    -1.266029990711
    H            2.612095151597     1.641907022376     0.081154095100
    H            4.228148161058     0.982156914110     0.155932219000

  Mulliken Charges: (a.u.)
   Center  Symbol    Alpha    Beta     Spin     Total
       1     H     0.39587  0.39587  0.00000  0.20826
       2     O     4.19640  4.19640  0.00000 -0.39281
       3     C     2.96362  2.96362  0.00000  0.07276
       4     C     3.08859  3.08859  0.00000 -0.17719
       5     H     0.47708  0.47708  0.00000  0.04584
       6     H     0.47220  0.47220  0.00000  0.05560
       7     C     3.10100  3.10100  0.00000 -0.20199
       8     H     0.44484  0.44484  0.00000  0.11032
       9     H     0.45522  0.45522  0.00000  0.08956
      10     C     3.09560  3.09560  0.00000 -0.19121
      11     H     0.45075  0.45075  0.00000  0.09849
      12     H     0.45564  0.45564  0.00000  0.08871
      13     C     3.08990  3.08990  0.00000 -0.17980
      14     H     0.45257  0.45257  0.00000  0.09486
      15     H     0.44936  0.44936  0.00000  0.10129
      16     C     3.15214  3.15214  0.00000 -0.30428
      17     H     0.44855  0.44855  0.00000  0.10290
      18     H     0.45537  0.45537  0.00000  0.08927
      19     H     0.45439  0.45439  0.00000  0.09123
      20     H     0.45416  0.45416  0.00000  0.09169
      21     H     0.44675  0.44675  0.00000  0.10651

   Total alpha = 29.00000, Total beta = 29.00000, Total charge =  0.00000
