  ==> Input File <==

--------------------------------------------------------------------------
set {
	reference rhf
	basis cc-pvtz
}

set_num_threads( 4 )
memory 2 gb

molecule MOL {
0 1

O	 0.395927	 1.296676	 -0.000076
C	 0.503051	 0.114301	 -0.000074
C	 -0.701422	 -0.805636	 -0.000109
C	 1.858118	 -0.556123	 0.000212
C	 -1.143684	 -1.247989	 1.385823
H	 -1.506598	 -0.291255	 -0.518316
H	 -0.458583	 -1.663467	 -0.621876
H	 -1.408710	 -0.396756	 1.998515
H	 -2.005465	 -1.900819	 1.315095
H	 -0.351416	 -1.781139	 1.894049
H	 1.961106	 -1.191101	 -0.872843
H	 2.636688	 0.191085	 -0.000109
H	 1.961070	 -1.190284	 0.873873

	symmetry c1
}
set optking {
	frozen_dihedral = ("
		6 3 2 1
	")
}

ee = optimize('scf')
oeprop('DIPOLE', 'QUADRUPOLE', 'MULLIKEN_CHARGES')
f=open( 'psi4out.xyz', 'w' )
f.write( "13  " )
f.write( str(ee) + "\n" )
f.write( MOL.save_string_xyz() )
f.close()
--------------------------------------------------------------------------

    Molecular point group: c1
  Charge       = 0
  Multiplicity = 1
  Basis Set: CC-PVTZ
  Basis Set:
  @DF-RHF Final Energy:  -231.08051077361645
    Total Energy =                       -231.0805107736164246
    Molecular point group: c1
  Basis Set: CC-PVTZ
  Basis Set:
  Basis Set: CC-PVTZ
  Basis Set:
  @DF-RHF Final Energy:  -231.08096494698501
    Total Energy =                       -231.0809649469850910
  Basis Set: CC-PVTZ
  Basis Set:
  Basis Set: CC-PVTZ
  Basis Set:
  @DF-RHF Final Energy:  -231.08003869469817
    Total Energy =                       -231.0800386946983735
  Basis Set: CC-PVTZ
  Basis Set:
  Basis Set: CC-PVTZ
  Basis Set:
  @DF-RHF Final Energy:  -231.08138275386784
    Total Energy =                       -231.0813827538677856
  Basis Set: CC-PVTZ
  Basis Set:
  Basis Set: CC-PVTZ
  Basis Set:
  @DF-RHF Final Energy:  -231.08141134546906
    Total Energy =                       -231.0814113454691210
  Basis Set: CC-PVTZ
  Basis Set:
  Basis Set: CC-PVTZ
  Basis Set:
  @DF-RHF Final Energy:  -231.08142399347335
    Total Energy =                       -231.0814239934732086
  Basis Set: CC-PVTZ
  Basis Set:
  Basis Set: CC-PVTZ
  Basis Set:
  @DF-RHF Final Energy:  -231.08142611680074
    Total Energy =                       -231.0814261168005714
  Basis Set: CC-PVTZ
  Basis Set:
  Charge       = 0
  Multiplicity = 1
  Basis Set: CC-PVTZ
  Basis Set:

    Orbital Energies (a.u.)
    -----------------------

    Doubly Occupied:

       1A    -20.538206     2A    -11.320472     3A    -11.231814
       4A    -11.227871     5A    -11.227080     6A     -1.398295
       7A     -1.067256     8A     -0.998280     9A     -0.884653
      10A     -0.735182    11A     -0.656898    12A     -0.649780
      13A     -0.610534    14A     -0.595091    15A     -0.565734
      16A     -0.541225    17A     -0.529709    18A     -0.503913
      19A     -0.485083    20A     -0.402097

  @DF-RHF Final Energy:  -231.08142620267080

   => Energetics <=

    Nuclear Repulsion Energy =            177.3518352105400595
    One-Electron Energy =                -664.5281774139423305
    Two-Electron Energy =                 256.0949160007313594
    DFT Exchange-Correlation Energy =       0.0000000000000000
    Empirical Dispersion Energy =           0.0000000000000000
    PCM Polarization Energy =               0.0000000000000000
    EFP Energy =                            0.0000000000000000
    Total Energy =                       -231.0814262026709116
    Molecular point group: c1
  Basis Set: CC-PVTZ
  Basis Set:

  -Total Gradient:
     Atom            X                  Y                   Z
    ------   -----------------  -----------------  -----------------
       1        0.000006218373    -0.000001122762    -0.000192175264
       2       -0.000017070884     0.000019951145     0.000311501427
       3        0.000084632858    -0.000090766999    -0.000297319810
       4       -0.000011932334     0.000005905048     0.000001777836
       5       -0.000005521284    -0.000004981443     0.000021186407
       6       -0.000061160953     0.000072869600     0.000167443195
       7       -0.000000385802    -0.000001500424    -0.000002471231
       8        0.000001451569     0.000001989172    -0.000004981928
       9        0.000003422903     0.000002572857    -0.000002457334
      10        0.000000202669     0.000000405826    -0.000000920676
      11       -0.000000097778    -0.000002001005    -0.000002678708
      12       -0.000000473500    -0.000001989290    -0.000000009860
      13        0.000000714161    -0.000001331725     0.000001105947

  **** Optimization is complete! (in 8 steps) ****
    Final optimized geometry and variables:
    Molecular point group: c1

    Geometry (in Angstrom), charge = 0, multiplicity = 1:

    O            0.181839071466     1.517156536059    -0.271618863005
    C            0.317816799458     0.337438990769    -0.293605813111
    C           -0.881585685960    -0.589598505941    -0.312075591350
    C            1.686604335036    -0.301508305394    -0.293769957179
    C           -1.317191541297    -0.955295099795     1.110727219009
    H           -1.685711673269    -0.073572456293    -0.818674801812
    H           -0.646547780772    -1.490761982872    -0.867789827880
    H           -1.579313676681    -0.065358014256     1.668401242342
    H           -2.182585810975    -1.605110235733     1.083407113440
    H           -0.532450082271    -1.473538605747     1.649958809372
    H            1.864434359430    -0.756039425653    -1.263239869413
    H            2.443442841769     0.443779437086    -0.103422977303
    H            1.746978501398    -1.090810934370     0.446523337400

  Mulliken Charges: (a.u.)
   Center  Symbol    Alpha    Beta     Spin     Total
       1     O     4.17577  4.17577  0.00000 -0.35153
       2     C     2.85312  2.85312  0.00000  0.29376
       3     C     3.09766  3.09766  0.00000 -0.19532
       4     C     3.15445  3.15445  0.00000 -0.30891
       5     C     3.14993  3.14993  0.00000 -0.29985
       6     H     0.43891  0.43891  0.00000  0.12217
       7     H     0.45082  0.45082  0.00000  0.09835
       8     H     0.44358  0.44358  0.00000  0.11284
       9     H     0.44567  0.44567  0.00000  0.10866
      10     H     0.45445  0.45445  0.00000  0.09109
      11     H     0.44846  0.44846  0.00000  0.10308
      12     H     0.43606  0.43606  0.00000  0.12789
      13     H     0.45111  0.45111  0.00000  0.09777

   Total alpha = 20.00000, Total beta = 20.00000, Total charge = -0.00000
