  ==> Input File <==

--------------------------------------------------------------------------
set {
	reference rhf
	basis 6-31G*
}

set_num_threads( 4 )
memory 2 gb

molecule MOL {
0 1

O	 2.561745	 1.830248	 -1.318305
C	 2.380715	 0.892753	 -2.033210
C	 1.089090	 0.095163	 -2.010990
C	 3.437904	 0.434986	 -3.017057
C	 0.063329	 0.600886	 -1.000894
H	 0.674478	 0.104349	 -3.018165
H	 1.343317	 -0.945385	 -1.813428
C	 -1.223305	 -0.226331	 -1.007669
H	 -0.164745	 1.640150	 -1.215468
H	 0.504703	 0.589041	 -0.009332
C	 -2.259874	 0.272531	 0.000494
H	 -1.658773	 -0.213019	 -2.005785
H	 -0.987143	 -1.267672	 -0.793416
C	 -3.549786	 -0.549746	 -0.000374
H	 -2.497236	 1.313217	 -0.213168
H	 -1.825939	 0.258836	 0.998747
C	 -4.809590	 0.315458	 -0.000369
H	 -3.560515	 -1.202009	 -0.871156
H	 -3.561123	 -1.202955	 0.869711
H	 -4.844746	 0.956611	 -0.876632
H	 -5.706986	 -0.295590	 -0.001609
H	 -4.845960	 0.954827	 0.877144
H	 3.050033	 0.464350	 -4.031114
H	 4.305973	 1.075256	 -2.943942
H	 3.726591	 -0.591814	 -2.812176

	symmetry c1
}
set optking {
	frozen_dihedral = ("
		15 11 14 18
	")
}

ee = optimize('scf')
oeprop('DIPOLE', 'QUADRUPOLE', 'MULLIKEN_CHARGES')
f=open( 'psi4out.xyz', 'w' )
f.write( "25  " )
f.write( str(ee) + "\n" )
f.write( MOL.save_string_xyz() )
f.close()
--------------------------------------------------------------------------

    Molecular point group: c1
  Charge       = 0
  Multiplicity = 1
  Basis Set: 6-31G*
  Basis Set:
  @DF-RHF Final Energy:  -387.13146984600507
    Total Energy =                       -387.1314698460050749
    Molecular point group: c1
  Basis Set: 6-31G*
  Basis Set:
  Basis Set: 6-31G*
  Basis Set:
  @DF-RHF Final Energy:  -387.13172886332546
    Total Energy =                       -387.1317288633249518
  Basis Set: 6-31G*
  Basis Set:
  Basis Set: 6-31G*
  Basis Set:
  @DF-RHF Final Energy:  -387.13179947773313
    Total Energy =                       -387.1317994777332387
  Basis Set: 6-31G*
  Basis Set:
  Basis Set: 6-31G*
  Basis Set:
  @DF-RHF Final Energy:  -387.13169366985136
    Total Energy =                       -387.1316936698509608
  Basis Set: 6-31G*
  Basis Set:
  Basis Set: 6-31G*
  Basis Set:
  @DF-RHF Final Energy:  -387.13180408160673
    Total Energy =                       -387.1318040816067878
  Basis Set: 6-31G*
  Basis Set:
  Charge       = 0
  Multiplicity = 1
  Basis Set: 6-31G*
  Basis Set:

    Orbital Energies (a.u.)
    -----------------------

    Doubly Occupied:

       1A    -20.550499     2A    -11.326344     3A    -11.231967
       4A    -11.228377     5A    -11.217455     6A    -11.216552
       7A    -11.214999     8A    -11.213163     9A    -11.208872
      10A     -1.395805    11A     -1.092701    12A     -1.054852
      13A     -1.014363    14A     -0.969367    15A     -0.890615
      16A     -0.815803    17A     -0.790827    18A     -0.729923
      19A     -0.658821    20A     -0.652463    21A     -0.626890
      22A     -0.623369    23A     -0.599158    24A     -0.586395
      25A     -0.568890    26A     -0.558728    27A     -0.535310
      28A     -0.528722    29A     -0.514572    30A     -0.490467
      31A     -0.485979    32A     -0.476266    33A     -0.464714
      34A     -0.454951    35A     -0.449693    36A     -0.399438

  @DF-RHF Final Energy:  -387.13180489485256

   => Energetics <=

    Nuclear Repulsion Energy =            438.5753360192895229
    One-Electron Energy =               -1393.7396652308825651
    Two-Electron Energy =                 568.0325243167405915
    DFT Exchange-Correlation Energy =       0.0000000000000000
    Empirical Dispersion Energy =           0.0000000000000000
    PCM Polarization Energy =               0.0000000000000000
    EFP Energy =                            0.0000000000000000
    Total Energy =                       -387.1318048948523938
    Molecular point group: c1
  Basis Set: 6-31G*
  Basis Set:

  -Total Gradient:
     Atom            X                  Y                   Z
    ------   -----------------  -----------------  -----------------
       1        0.000033563734    -0.000055348838     0.000061770658
       2       -0.000093809851     0.000156581390    -0.000203026358
       3        0.000045484943    -0.000032433405     0.000054069405
       4        0.000039603844    -0.000045454479     0.000058457568
       5        0.000014275470    -0.000003906442     0.000010983303
       6        0.000014294876     0.000008039994    -0.000000615192
       7       -0.000012814785    -0.000004990688     0.000001425798
       8       -0.000036974475     0.000013594632     0.000027701054
       9        0.000002302177    -0.000006619807     0.000006427333
      10       -0.000000096353    -0.000002506477    -0.000007089507
      11        0.000704852375    -0.001301936118    -0.003527154050
      12       -0.000012006759    -0.000001601147     0.000022389695
      13       -0.000014222578     0.000011838573     0.000020214163
      14       -0.001927210166     0.003053736931    -0.001400362053
      15       -0.000312787459     0.000586067558     0.003153320927
      16        0.000030504937    -0.000032447999     0.000001533274
      17        0.000013764867    -0.000034943956     0.000003589750
      18        0.001508407910    -0.002279949742     0.001678146066
      19       -0.000027713196     0.000013760401     0.000032445739
      20        0.000015496614    -0.000036381305     0.000004271008
      21       -0.000013470815    -0.000002930635     0.000012311174
      22        0.000023665673     0.000000807607    -0.000013091130
      23       -0.000009668121     0.000004775085     0.000011259667
      24        0.000004833442    -0.000002528351    -0.000000414099
      25        0.000009723698    -0.000005222782    -0.000008564192

  **** Optimization is complete! (in 6 steps) ****
    Final optimized geometry and variables:
    Molecular point group: c1

    Geometry (in Angstrom), charge = 0, multiplicity = 1:

    O            2.839688023950     1.404777588924    -0.148517327597
    C            2.656738342296     0.472846070885    -0.870156954812
    C            1.359084665813    -0.315213614789    -0.861623259004
    C            3.718286880726     0.011480510930    -1.847616550443
    C            0.329140558811     0.193683025260     0.142693505227
    H            0.952583275584    -0.298524373510    -1.871994393748
    H            1.604075821803    -1.358457920941    -0.666637282898
    C           -0.962929560720    -0.623932413824     0.122908604982
    H            0.109829523727     1.235420914212    -0.069377695339
    H            0.762855953095     0.174957289386     1.137510615486
    C           -2.007392989922    -0.117909296133     1.118364974896
    H           -1.389547139473    -0.609244549690    -0.879037970026
    H           -0.737919343147    -1.667096327162     0.341251138874
    C           -3.301654959808    -0.957686128567     1.143264593357
    H           -2.245859528737     0.921786052470     0.904185483619
    H           -1.567804336476    -0.105528272190     2.113265031560
    C           -4.576616900956    -0.117991585018     1.195827502364
    H           -3.329720266086    -1.617524311521     0.279212269266
    H           -3.281298858028    -1.622270459395     2.003433017332
    H           -4.664205759803     0.514437006729     0.316876604918
    H           -5.461354987075    -0.745541839313     1.243792340841
    H           -4.581795501747     0.529093112629     2.068500398122
    H            3.339134539361     0.049470074946    -2.864677619355
    H            4.590990529319     0.644096296316    -1.763903710308
    H            3.996739828426    -1.018769773041    -1.645884245360

  Mulliken Charges: (a.u.)
   Center  Symbol    Alpha    Beta     Spin     Total
       1     O     4.26113  4.26113  0.00000 -0.52226
       2     C     2.73570  2.73570  0.00000  0.52861
       3     C     3.21082  3.21082  0.00000 -0.42164
       4     C     3.28664  3.28664  0.00000 -0.57328
       5     C     3.14877  3.14877  0.00000 -0.29755
       6     H     0.41000  0.41000  0.00000  0.17999
       7     H     0.40997  0.40997  0.00000  0.18006
       8     C     3.15541  3.15541  0.00000 -0.31082
       9     H     0.41204  0.41204  0.00000  0.17592
      10     H     0.41207  0.41207  0.00000  0.17587
      11     C     3.15460  3.15460  0.00000 -0.30919
      12     H     0.42453  0.42453  0.00000  0.15095
      13     H     0.42434  0.42434  0.00000  0.15132
      14     C     3.15456  3.15456  0.00000 -0.30912
      15     H     0.42009  0.42009  0.00000  0.15982
      16     H     0.42026  0.42026  0.00000  0.15949
      17     C     3.23967  3.23967  0.00000 -0.47934
      18     H     0.42158  0.42158  0.00000  0.15684
      19     H     0.42088  0.42088  0.00000  0.15824
      20     H     0.42179  0.42179  0.00000  0.15641
      21     H     0.42047  0.42047  0.00000  0.15907
      22     H     0.42080  0.42080  0.00000  0.15839
      23     H     0.40874  0.40874  0.00000  0.18251
      24     H     0.39645  0.39645  0.00000  0.20710
      25     H     0.40868  0.40868  0.00000  0.18263

   Total alpha = 36.00000, Total beta = 36.00000, Total charge =  0.00000
