  ==> Input File <==

--------------------------------------------------------------------------
set {
	reference rhf
	basis 6-31G*
}

set_num_threads( 1 )
memory 2 gb

molecule MOL {
0 1

O	 -2.042549	 -1.228399	 -0.269030
C	 -1.653912	 -0.146171	 0.050137
C	 -0.332303	 0.024011	 0.778412
C	 -2.438579	 1.106236	 -0.272369
C	 0.845713	 -0.001731	 -0.208243
H	 -0.323783	 0.953829	 1.340327
H	 -0.235459	 -0.796807	 1.480410
C	 1.519257	 -1.372641	 -0.285531
H	 1.583884	 0.744491	 0.080442
H	 0.481159	 0.284861	 -1.190132
C	 2.685419	 -1.403532	 -1.272606
H	 1.873738	 -1.657619	 0.702678
H	 0.781519	 -2.117913	 -0.573421
H	 3.456535	 -0.691725	 -0.991957
H	 2.355191	 -1.154237	 -2.276720
H	 3.141502	 -2.387761	 -1.308782
H	 -3.277823	 0.863061	 -0.908988
H	 -1.806773	 1.843019	 -0.759671
H	 -2.802853	 1.554979	 0.648059

	symmetry c1
}
set optking {
	frozen_dihedral = ("
		11 8 5 9,
		5 3 2 4
	")
}

ee = energy('scf')
oeprop('DIPOLE', 'QUADRUPOLE', 'MULLIKEN_CHARGES')
f=open( 'psi4out.xyz', 'w' )
f.write( "19  " )
f.write( str(ee) + "\n" )
f.write( MOL.save_string_xyz() )
f.close()
--------------------------------------------------------------------------

    Molecular point group: c1

    Geometry (in Angstrom), charge = 0, multiplicity = 1:

       Center              X                  Y                   Z               Mass
    ------------   -----------------  -----------------  -----------------  -----------------
           O         -1.843770348327    -0.791227858938    -0.043103941904    15.994914619560
           C         -1.455133348327     0.291000141062     0.276063058096    12.000000000000
           C         -0.133524348327     0.461182141062     1.004338058096    12.000000000000
           C         -2.239800348327     1.543407141062    -0.046442941904    12.000000000000
           C          1.044491651673     0.435440141062     0.017683058096    12.000000000000
           H         -0.125004348327     1.391000141062     1.566253058096     1.007825032070
           H         -0.036680348327    -0.359635858938     1.706336058096     1.007825032070
           C          1.718035651673    -0.935469858938    -0.059604941904    12.000000000000
           H          1.782662651673     1.181662141062     0.306368058096     1.007825032070
           H          0.679937651673     0.722032141062    -0.964205941904     1.007825032070
           C          2.884197651673    -0.966360858938    -1.046679941904    12.000000000000
           H          2.072516651673    -1.220447858938     0.928604058096     1.007825032070
           H          0.980297651673    -1.680741858938    -0.347494941904     1.007825032070
           H          3.655313651673    -0.254553858938    -0.766030941904     1.007825032070
           H          2.553969651673    -0.717065858938    -2.050793941904     1.007825032070
           H          3.340280651673    -1.950589858938    -1.082855941904     1.007825032070
           H         -3.079044348327     1.300232141062    -0.683061941904     1.007825032070
           H         -1.607994348327     2.280190141062    -0.533744941904     1.007825032070
           H         -2.604074348327     1.992150141062     0.873985058096     1.007825032070

  Charge       = 0
  Multiplicity = 1
  Basis Set: 6-31G*
  Basis Set:

    Orbital Energies (a.u.)
    -----------------------

    Doubly Occupied:

       1A    -20.548021     2A    -11.325188     3A    -11.230039
       4A    -11.229015     5A    -11.228137     6A    -11.218171
       7A    -11.210394     8A     -1.394015     9A     -1.089590
      10A     -1.027619    11A     -0.982487    12A     -0.887325
      13A     -0.805283    14A     -0.735212    15A     -0.662270
      16A     -0.639881    17A     -0.621388    18A     -0.608620
      19A     -0.582944    20A     -0.574811    21A     -0.552405
      22A     -0.532593    23A     -0.522768    24A     -0.494553
      25A     -0.476303    26A     -0.472532    27A     -0.461534
      28A     -0.396993

  @DF-RHF Final Energy:  -309.06117309265539

   => Energetics <=

    Nuclear Repulsion Energy =            305.4838454782292274
    One-Electron Energy =               -1024.0698582642660313
    Two-Electron Energy =                 409.5248396933810113
    DFT Exchange-Correlation Energy =       0.0000000000000000
    Empirical Dispersion Energy =           0.0000000000000000
    PCM Polarization Energy =               0.0000000000000000
    EFP Energy =                            0.0000000000000000
    Total Energy =                       -309.0611730926557925

  Mulliken Charges: (a.u.)
   Center  Symbol    Alpha    Beta     Spin     Total
       1     O     4.26146  4.26146  0.00000 -0.52292
       2     C     2.74025  2.74025  0.00000  0.51950
       3     C     3.20368  3.20368  0.00000 -0.40735
       4     C     3.28918  3.28918  0.00000 -0.57837
       5     C     3.15878  3.15878  0.00000 -0.31757
       6     H     0.41387  0.41387  0.00000  0.17225
       7     H     0.39953  0.39953  0.00000  0.20093
       8     C     3.15552  3.15552  0.00000 -0.31104
       9     H     0.41657  0.41657  0.00000  0.16686
      10     H     0.41759  0.41759  0.00000  0.16482
      11     C     3.24108  3.24108  0.00000 -0.48217
      12     H     0.42200  0.42200  0.00000  0.15600
      13     H     0.40689  0.40689  0.00000  0.18621
      14     H     0.42293  0.42293  0.00000  0.15415
      15     H     0.42044  0.42044  0.00000  0.15913
      16     H     0.41717  0.41717  0.00000  0.16567
      17     H     0.39702  0.39702  0.00000  0.20596
      18     H     0.40964  0.40964  0.00000  0.18073
      19     H     0.40640  0.40640  0.00000  0.18720

   Total alpha = 28.00000, Total beta = 28.00000, Total charge = -0.00000
