  ==> Input File <==

--------------------------------------------------------------------------
set {
	reference rhf
	basis 6-31G*
}

set_num_threads( 4 )
memory 2 gb

molecule MOL {
0 1

H	 3.894224	 0.342957	 0.103333
N	 3.091006	 -0.254810	 0.135903
C	 1.863931	 0.528541	 0.122770
H	 3.159545	 -0.785693	 0.983426
C	 0.644089	 -0.385443	 0.074046
H	 1.880471	 1.152056	 -0.765945
H	 1.776838	 1.204031	 0.977478
C	 -0.679275	 0.379305	 0.025956
H	 0.735222	 -1.033089	 -0.793182
H	 0.652358	 -1.036763	 0.947574
C	 -1.903357	 -0.536963	 -0.023547
H	 -0.686946	 1.032639	 -0.845219
H	 -0.755635	 1.030676	 0.895284
C	 -3.225172	 0.228290	 0.028445
H	 -1.867824	 -1.134999	 -0.931459
H	 -1.860449	 -1.239604	 0.805977
H	 -3.313397	 0.915643	 -0.808262
H	 -4.073500	 -0.448134	 -0.008893
H	 -3.306061	 0.809945	 0.942516

	symmetry c1
}
set optking {
	frozen_dihedral = ("
		12 8 11 15
	")
}

ee = optimize('scf')
oeprop('DIPOLE', 'QUADRUPOLE', 'MULLIKEN_CHARGES')
f=open( 'psi4out.xyz', 'w' )
f.write( "19  " )
f.write( str(ee) + "\n" )
f.write( MOL.save_string_xyz() )
f.close()
--------------------------------------------------------------------------

    Molecular point group: c1
  Charge       = 0
  Multiplicity = 1
  Basis Set: 6-31G*
  Basis Set:
  @DF-RHF Final Energy:  -251.35167018824876
    Total Energy =                       -251.3516701882488178
    Molecular point group: c1
  Basis Set: 6-31G*
  Basis Set:
  Basis Set: 6-31G*
  Basis Set:
  @DF-RHF Final Energy:  -251.35167449693455
    Total Energy =                       -251.3516744969344927
  Basis Set: 6-31G*
  Basis Set:
  Basis Set: 6-31G*
  Basis Set:
  @DF-RHF Final Energy:  -251.35168172154138
    Total Energy =                       -251.3516817215412971
  Basis Set: 6-31G*
  Basis Set:
  Charge       = 0
  Multiplicity = 1
  Basis Set: 6-31G*
  Basis Set:

    Orbital Energies (a.u.)
    -----------------------

    Doubly Occupied:

       1A    -15.532477     2A    -11.239725     3A    -11.213972
       4A    -11.212767     5A    -11.209409     6A    -11.207457
       7A     -1.176581     8A     -1.072924     9A     -0.998334
      10A     -0.900115    11A     -0.812915    12A     -0.789174
      13A     -0.664600    14A     -0.642381    15A     -0.616788
      16A     -0.588447    17A     -0.564496    18A     -0.549069
      19A     -0.529362    20A     -0.498980    21A     -0.480538
      22A     -0.464807    23A     -0.461361    24A     -0.449611
      25A     -0.380952

  @DF-RHF Final Energy:  -251.35168209463748

   => Energetics <=

    Nuclear Repulsion Energy =            245.6478131534645684
    One-Electron Energy =                -825.4845079781625827
    Two-Electron Energy =                 328.4850127300604186
    DFT Exchange-Correlation Energy =       0.0000000000000000
    Empirical Dispersion Energy =           0.0000000000000000
    PCM Polarization Energy =               0.0000000000000000
    EFP Energy =                            0.0000000000000000
    Total Energy =                       -251.3516820946376242
    Molecular point group: c1
  Basis Set: 6-31G*
  Basis Set:

  -Total Gradient:
     Atom            X                  Y                   Z
    ------   -----------------  -----------------  -----------------
       1        0.000000897157    -0.000000481558    -0.000006262440
       2       -0.000003788091     0.000003403283    -0.000018612742
       3        0.000008518896    -0.000002170686     0.000028058617
       4       -0.000008195750     0.000004028377    -0.000001402446
       5        0.000004691020    -0.000001389887     0.000031105449
       6        0.000001736816     0.000002564302     0.000000473083
       7        0.000004016503     0.000000499722     0.000001369807
       8       -0.000656901422     0.000842578666     0.000403401541
       9       -0.000014272093    -0.000009869345     0.000011543160
      10        0.000022951286    -0.000005965453     0.000002618893
      11        0.000643510170    -0.000876956152     0.000367017692
      12        0.000421292658    -0.000552586697    -0.000431523863
      13        0.000013817332    -0.000025521545     0.000000835276
      14       -0.000003455742     0.000002195102     0.000022097291
      15       -0.000409038072     0.000589781320    -0.000411317870
      16       -0.000008788827     0.000020556711    -0.000001646757
      17        0.000002676872    -0.000006657801     0.000000258235
      18       -0.000004958665     0.000002378747     0.000001455256
      19       -0.000014710049     0.000013612893     0.000000531820

  **** Optimization is complete! (in 4 steps) ****
    Final optimized geometry and variables:
    Molecular point group: c1

    Geometry (in Angstrom), charge = 0, multiplicity = 1:

    H            3.895486129914     0.344424013126     0.016368374589
    N            3.092338900579    -0.252987939609     0.056376431475
    C            1.865389440815     0.530657347982     0.047957393403
    H            3.166112795444    -0.780593769699     0.905521212312
    C            0.644975821251    -0.383087128930     0.010724070787
    H            1.876435546886     1.150751142017    -0.843271041703
    H            1.783925888939     1.209529185500     0.900534232494
    C           -0.678781492277     0.382083017977    -0.031018606254
    H            0.730007776716    -1.033694677937    -0.854922965262
    H            0.659130457733    -1.031511335709     0.886289010806
    C           -1.901648057627    -0.535468477704    -0.089933231040
    H           -0.684405881946     1.037974598061    -0.900179871100
    H           -0.754454766411     1.027368395744     0.842685705492
    C           -3.223958287356     0.230427388896    -0.051201304021
    H           -1.859711683692    -1.129251784689    -1.000241750666
    H           -1.867501401946    -1.238621573197     0.739320321329
    H           -3.300329502380     0.922858265803    -0.884920554733
    H           -4.072120412030    -0.445225806672    -0.104500010014
    H           -3.317252297218     0.806678025106     0.865091270631

  Mulliken Charges: (a.u.)
   Center  Symbol    Alpha    Beta     Spin     Total
       1     H     0.33249  0.33249  0.00000  0.33503
       2     N     3.92190  3.92190  0.00000 -0.84379
       3     C     3.06021  3.06021  0.00000 -0.12042
       4     H     0.33537  0.33537  0.00000  0.32926
       5     C     3.15159  3.15159  0.00000 -0.30318
       6     H     0.42089  0.42089  0.00000  0.15822
       7     H     0.43479  0.43479  0.00000  0.13043
       8     C     3.15486  3.15486  0.00000 -0.30972
       9     H     0.41318  0.41318  0.00000  0.17365
      10     H     0.42772  0.42772  0.00000  0.14456
      11     C     3.15084  3.15084  0.00000 -0.30169
      12     H     0.42351  0.42351  0.00000  0.15297
      13     H     0.42478  0.42478  0.00000  0.15045
      14     C     3.23933  3.23933  0.00000 -0.47866
      15     H     0.42177  0.42177  0.00000  0.15646
      16     H     0.42318  0.42318  0.00000  0.15364
      17     H     0.42187  0.42187  0.00000  0.15627
      18     H     0.41943  0.41943  0.00000  0.16115
      19     H     0.42230  0.42230  0.00000  0.15539

   Total alpha = 25.00000, Total beta = 25.00000, Total charge = -0.00000
