                              Psi4 1.0.54 Driver

  ==> Input File <==

--------------------------------------------------------------------------
set {
	reference rhf
	basis cc-pvtz
}

set_num_threads( 4 )
memory 2 gb

molecule MOL {
0 1

O	 -0.694481	 1.313155	 -0.204815
C	 -0.862519	 0.151932	 -0.046791
C	 -2.171428	 -0.477048	 0.339095
O	 0.085519	 -0.757083	 -0.192238
H	 -2.467997	 -1.191667	 -0.417688
H	 -2.923379	 0.287970	 0.444097
H	 -2.053854	 -1.015120	 1.270901
C	 1.392036	 -0.330828	 -0.560749
C	 1.801721	 -0.883800	 -1.909925
H	 2.090952	 -0.622474	 0.207545
H	 1.330323	 0.746725	 -0.589407
H	 2.771297	 -0.485231	 -2.186541
H	 1.873813	 -1.962356	 -1.879880
H	 1.086781	 -0.600155	 -2.672814

	symmetry c1
}
set optking {
	frozen_dihedral = ("
		10 8 4 2
	")
}

ee,wfn = optimize('scf', return_wfn=True)
oeprop( wfn, 'DIPOLE', 'QUADRUPOLE', 'MULLIKEN_CHARGES')
f=open( 'psi4out.xyz', 'w' )
f.write( "14  " )
f.write( str(ee) + "\n" )
f.write( MOL.save_string_xyz() )
f.close()
--------------------------------------------------------------------------

    Molecular point group: c1
  Charge       = 0
  Multiplicity = 1
  Basis Set: CC-PVTZ
  Basis Set:
  @DF-RHF Final Energy:  -305.98841876704546
    Total Energy =                       -305.9884187670456868
    Molecular point group: c1
  Basis Set: CC-PVTZ
  Basis Set:
  Basis Set: CC-PVTZ
  Basis Set:
  @DF-RHF Final Energy:  -305.98955505047326
    Total Energy =                       -305.9895550504731432
  Basis Set: CC-PVTZ
  Basis Set:
  Basis Set: CC-PVTZ
  Basis Set:
  @DF-RHF Final Energy:  -305.99010626681581
    Total Energy =                       -305.9901062668155873
  Basis Set: CC-PVTZ
  Basis Set:
  Basis Set: CC-PVTZ
  Basis Set:
  @DF-RHF Final Energy:  -305.98972190177898
    Total Energy =                       -305.9897219017788643
  Basis Set: CC-PVTZ
  Basis Set:
  Basis Set: CC-PVTZ
  Basis Set:
  @DF-RHF Final Energy:  -305.99012724135196
    Total Energy =                       -305.9901272413520701
  Basis Set: CC-PVTZ
  Basis Set:
  Charge       = 0
  Multiplicity = 1
  Basis Set: CC-PVTZ
  Basis Set:

    Orbital Energies (a.u.)
    -----------------------

    Doubly Occupied:

       1A    -20.593775     2A    -20.532517     3A    -11.368557
       4A    -11.281800     5A    -11.231218     6A    -11.220375
       7A     -1.469019     8A     -1.366199     9A     -1.057937
      10A     -1.000216    11A     -0.878679    12A     -0.775363
      13A     -0.699785    14A     -0.685936    15A     -0.661922
      16A     -0.613488    17A     -0.583186    18A     -0.567194
      19A     -0.562823    20A     -0.532130    21A     -0.519643
      22A     -0.496877    23A     -0.451999    24A     -0.443059

  @DF-RHF Final Energy:  -305.99012891924161

   => Energetics <=

    Nuclear Repulsion Energy =            246.7624013909137943
    One-Electron Energy =                -906.3176647623967028
    Two-Electron Energy =                 353.5651344522412955
    DFT Exchange-Correlation Energy =       0.0000000000000000
    Empirical Dispersion Energy =           0.0000000000000000
    PCM Polarization Energy =               0.0000000000000000
    EFP Energy =                            0.0000000000000000
    Total Energy =                       -305.9901289192415561
    Molecular point group: c1
  Basis Set: CC-PVTZ
  Basis Set:

  -Total Gradient:
     Atom            X                  Y                   Z
    ------   -----------------  -----------------  -----------------
       1        0.000023795103     0.000073449564    -0.000006263155
       2        0.000120662405    -0.000049821714     0.000190301142
       3        0.000020572999    -0.000028496845     0.000019788222
       4       -0.000158759222     0.000060379097    -0.000257711948
       5       -0.000015634276    -0.000013103238    -0.000000675322
       6        0.000053239948     0.000004226684    -0.000014701910
       7       -0.000015497743    -0.000018032449     0.000005672421
       8        0.000004531638    -0.000265415929    -0.000071664711
       9        0.000008087530    -0.000021446100     0.000032343523
      10       -0.000060329730     0.000213290657     0.000099937453
      11        0.000001856395     0.000015459826    -0.000011167031
      12        0.000019279117     0.000008868589    -0.000000902899
      13        0.000001587351     0.000008786172    -0.000010238918
      14       -0.000003391518     0.000011855689     0.000025283133

  **** Optimization is complete! (in 6 steps) ****
    Final optimized geometry and variables:
    Molecular point group: c1

    Geometry (in Angstrom), charge = 0, multiplicity = 1:

    O           -0.697199516265     1.487676156706     0.174176660416
    C           -0.812460695700     0.324031960033     0.355830664513
    C           -2.098100944907    -0.354129042150     0.737492822612
    O            0.173308723245    -0.550925960683     0.248862975288
    H           -2.350048642544    -1.099571232944    -0.005610187350
    H           -2.884917787879     0.378630676721     0.811737659948
    H           -1.971659872830    -0.863679148286     1.683997320099
    C            1.482322095282    -0.113260394082    -0.097455904629
    C            1.916624202275    -0.781222299838    -1.383868333536
    H            2.126451025190    -0.397554741588     0.723296900678
    H            1.488920104448     0.959458115594    -0.188089453895
    H            2.935102040617    -0.494826415944    -1.620161194859
    H            1.876358055588    -1.859404513715    -1.292728569764
    H            1.279209698764    -0.481145135914    -2.206530013999

  Mulliken Charges: (a.u.)
   Center  Symbol    Alpha    Beta     Spin     Total
       1     O     4.19834  4.19834  0.00000 -0.39667
       2     C     2.79999  2.79999  0.00000  0.40003
       3     C     3.14032  3.14032  0.00000 -0.28065
       4     O     4.15795  4.15795  0.00000 -0.31590
       5     H     0.44617  0.44617  0.00000  0.10766
       6     H     0.43828  0.43828  0.00000  0.12343
       7     H     0.44584  0.44584  0.00000  0.10833
       8     C     2.98785  2.98785  0.00000  0.02430
       9     C     3.13653  3.13653  0.00000 -0.27306
      10     H     0.45134  0.45134  0.00000  0.09732
      11     H     0.44139  0.44139  0.00000  0.11722
      12     H     0.45369  0.45369  0.00000  0.09262
      13     H     0.45160  0.45160  0.00000  0.09680
      14     H     0.45072  0.45072  0.00000  0.09857

   Total alpha = 24.00000, Total beta = 24.00000, Total charge = -0.00000

*** Psi4 exiting successfully. Buy a developer a beer!
