  ==> Input File <==

--------------------------------------------------------------------------
set {
	reference rhf
	basis cc-pvtz
}

set_num_threads( 4 )
memory 2 gb

molecule MOL {
0 1

H	 0.873961	 3.061909	 2.006470
O	 1.574654	 2.666436	 1.519283
C	 1.139575	 1.625168	 0.787814
C	 2.074736	 0.948465	 0.017964
C	 -0.178894	 1.222706	 0.783227
H	 3.094659	 1.277985	 0.036128
C	 1.687380	 -0.124942	 -0.750868
H	 -0.921062	 1.726154	 1.367201
C	 -0.532034	 0.141680	 0.000000
H	 2.417017	 -0.641853	 -1.342629
C	 0.368857	 -0.548019	 -0.772006
N	 -1.937041	 -0.281114	 0.000000
H	 0.053693	 -1.379381	 -1.363808
O	 -2.159542	 -1.446261	 0.000000
O	 -2.764978	 0.565773	 0.000000

	symmetry c1
}
set optking {
	frozen_dihedral = ("
		11 9 12 14
	")
}

ee = optimize('scf')
oeprop('DIPOLE', 'QUADRUPOLE', 'MULLIKEN_CHARGES')
f=open( 'psi4out.xyz', 'w' )
f.write( "15  " )
f.write( str(ee) + "\n" )
f.write( MOL.save_string_xyz() )
f.close()
--------------------------------------------------------------------------

    Molecular point group: c1
  Charge       = 0
  Multiplicity = 1
  Basis Set: CC-PVTZ
  Basis Set:
  @DF-RHF Final Energy:  -509.21594969853800
    Total Energy =                       -509.2159496985382248
    Molecular point group: c1
  Basis Set: CC-PVTZ
  Basis Set:
  Basis Set: CC-PVTZ
  Basis Set:
  @DF-RHF Final Energy:  -509.20921313225904
    Total Energy =                       -509.2092131322594923
  Basis Set: CC-PVTZ
  Basis Set:
  Basis Set: CC-PVTZ
  Basis Set:
  @DF-RHF Final Energy:  -509.21607137921734
    Total Energy =                       -509.2160713792170554
  Basis Set: CC-PVTZ
  Basis Set:
  Basis Set: CC-PVTZ
  Basis Set:
  @DF-RHF Final Energy:  -509.21630103097448
    Total Energy =                       -509.2163010309743640
  Basis Set: CC-PVTZ
  Basis Set:
  Charge       = 0
  Multiplicity = 1
  Basis Set: CC-PVTZ
  Basis Set:

    Orbital Energies (a.u.)
    -----------------------

    Doubly Occupied:

       1A    -20.609407     2A    -20.597159     3A    -20.596588
       4A    -15.850241     5A    -11.329086     6A    -11.310830
       7A    -11.264172     8A    -11.263652     9A    -11.258867
      10A    -11.254512    11A     -1.645156    12A     -1.442153
      13A     -1.428122    14A     -1.203776    15A     -1.096450
      16A     -1.049143    17A     -0.967017    18A     -0.884000
      19A     -0.832589    20A     -0.794344    21A     -0.762624
      22A     -0.740994    23A     -0.725745    24A     -0.711824
      25A     -0.675466    26A     -0.636325    27A     -0.622631
      28A     -0.597811    29A     -0.563277    30A     -0.548486
      31A     -0.528258    32A     -0.494894    33A     -0.491867
      34A     -0.459369    35A     -0.378573    36A     -0.346528

  @DF-RHF Final Energy:  -509.21630144215555

   => Energetics <=

    Nuclear Repulsion Energy =            504.5971314535900092
    One-Electron Energy =               -1695.7029885109382121
    Two-Electron Energy =                 681.8895556151929895
    DFT Exchange-Correlation Energy =       0.0000000000000000
    Empirical Dispersion Energy =           0.0000000000000000
    PCM Polarization Energy =               0.0000000000000000
    EFP Energy =                            0.0000000000000000
    Total Energy =                       -509.2163014421552134
    Molecular point group: c1
  Basis Set: CC-PVTZ
  Basis Set:

  -Total Gradient:
     Atom            X                  Y                   Z
    ------   -----------------  -----------------  -----------------
       1        0.000001606136    -0.000006144463     0.000014033896
       2       -0.000006786322     0.000025983455    -0.000004153220
       3       -0.000009755693    -0.000021679622    -0.000033856871
       4        0.000006362947    -0.000015952012     0.000043226187
       5       -0.000011391710    -0.000024919313    -0.000005089585
       6       -0.000002879337     0.000002338213    -0.000009277275
       7       -0.000011281711    -0.000004733585    -0.000012133563
       8       -0.000005149090     0.000007354189     0.000004456120
       9        0.000867229920    -0.003547852608     0.005780582505
      10       -0.000001553912    -0.000004414454     0.000000932316
      11       -0.000635618587     0.002443759116    -0.002905545321
      12       -0.000362630668     0.001465239190    -0.007207256503
      13        0.000009190319     0.000001761681     0.000008630407
      14       -0.000004299892    -0.000298327347     0.004347123619
      15        0.000166957604    -0.000022412439    -0.000021672713

  **** Optimization is complete! (in 5 steps) ****
    Final optimized geometry and variables:
    Molecular point group: c1

    Geometry (in Angstrom), charge = 0, multiplicity = 1:

    H            1.015138282603     2.574430694879     1.818016742007
    O            1.716893869088     2.173399376671     1.337007746394
    C            1.282584103671     1.133379109214     0.604791384012
    C            2.217160025654     0.460436857638    -0.169566424542
    C           -0.037595291816     0.733236712067     0.595539304313
    H            3.235367644586     0.795033839028    -0.156295082703
    C            1.830629847952    -0.611519344823    -0.940751235602
    H           -0.786701254960     1.252287060923     1.158829327721
    C           -0.379812579909    -0.362675271010    -0.167870691803
    H            2.558277824760    -1.117837496337    -1.544108963726
    C            0.515472415598    -1.046771802489    -0.948205899793
    N           -1.786231793243    -0.766580628824    -0.194792280688
    H            0.201140879942    -1.886934013845    -1.530428794327
    O           -2.017199527336    -1.928190364074    -0.227228375727
    O           -2.600644279054     0.094387494944    -0.153448682288

  Mulliken Charges: (a.u.)
   Center  Symbol    Alpha    Beta     Spin     Total
       1     H     0.38437  0.38437  0.00000  0.23125
       2     O     4.16777  4.16777  0.00000 -0.33554
       3     C     2.84424  2.84424  0.00000  0.31151
       4     C     3.10031  3.10031  0.00000 -0.20062
       5     C     3.13940  3.13940  0.00000 -0.27880
       6     H     0.41354  0.41354  0.00000  0.17292
       7     C     3.05469  3.05469  0.00000 -0.10938
       8     H     0.41439  0.41439  0.00000  0.17121
       9     C     2.94448  2.94448  0.00000  0.11103
      10     H     0.41615  0.41615  0.00000  0.16771
      11     C     3.10454  3.10454  0.00000 -0.20909
      12     N     3.26926  3.26926  0.00000  0.46148
      13     H     0.40593  0.40593  0.00000  0.18813
      14     O     4.16882  4.16882  0.00000 -0.33764
      15     O     4.17209  4.17209  0.00000 -0.34418

   Total alpha = 36.00000, Total beta = 36.00000, Total charge = -0.00000
