                              Psi4 1.0.54 Driver

  ==> Input File <==

--------------------------------------------------------------------------
set {
	reference rhf
	basis cc-pvtz
}

set_num_threads( 4 )
memory 2 gb

molecule MOL {
0 1

H	 2.088042	 -0.012084	 -1.041915
O	 2.063695	 -0.083403	 -0.105237
C	 0.742924	 0.005675	 0.350750
H	 0.731380	 0.039219	 1.440080
C	 -0.064076	 -1.193495	 -0.124425
C	 -0.047832	 1.190568	 -0.194462
H	 0.194729	 -1.376165	 -1.161308
H	 0.163013	 -2.094508	 0.429933
C	 -1.533112	 -0.752002	 0.006102
H	 0.148003	 1.266545	 -1.259275
H	 0.226235	 2.136493	 0.259722
C	 -1.506634	 0.799189	 0.067162
H	 -2.124360	 -1.110499	 -0.826089
H	 -1.983103	 -1.158030	 0.903403
H	 -2.183808	 1.252169	 -0.644677
H	 -1.813926	 1.138698	 1.049457

	symmetry c1
}
set optking {
	frozen_dihedral = ("
		1 2 3 6
	")
}

ee,wfn = optimize('scf', return_wfn=True)
oeprop( wfn, 'DIPOLE', 'QUADRUPOLE', 'MULLIKEN_CHARGES')
f=open( 'psi4out.xyz', 'w' )
f.write( "16  " )
f.write( str(ee) + "\n" )
f.write( MOL.save_string_xyz() )
f.close()
--------------------------------------------------------------------------

    Molecular point group: c1
  Charge       = 0
  Multiplicity = 1
  Basis Set: CC-PVTZ
  Basis Set:
  @DF-RHF Final Energy:  -270.11457697194817
    Total Energy =                       -270.1145769719484520
    Molecular point group: c1
  Basis Set: CC-PVTZ
  Basis Set:
  Basis Set: CC-PVTZ
  Basis Set:
  @DF-RHF Final Energy:  -270.11618748228858
    Total Energy =                       -270.1161874822884670
  Basis Set: CC-PVTZ
  Basis Set:
  Basis Set: CC-PVTZ
  Basis Set:
  @DF-RHF Final Energy:  -270.11642900276121
    Total Energy =                       -270.1164290027611514
  Basis Set: CC-PVTZ
  Basis Set:
  Basis Set: CC-PVTZ
  Basis Set:
  @DF-RHF Final Energy:  -270.11643436476101
    Total Energy =                       -270.1164343647611759
  Basis Set: CC-PVTZ
  Basis Set:
  @DF-RHF Final Energy:  -270.11643605436882
    Total Energy =                       -270.1164360543685916
  @DF-RHF Final Energy:  -270.11643975218436
    Total Energy =                       -270.1164397521841920
  @DF-RHF Final Energy:  -270.11644518202309
    Total Energy =                       -270.1164451820231420
  Basis Set: CC-PVTZ
  Basis Set:
  @DF-RHF Final Energy:  -270.11645010259599
    Total Energy =                       -270.1164501025959908
  Basis Set: CC-PVTZ
  Basis Set:
  Basis Set: CC-PVTZ
  Basis Set:
  @DF-RHF Final Energy:  -270.11645402949364
    Total Energy =                       -270.1164540294937524
  Basis Set: CC-PVTZ
  Basis Set:
  Basis Set: CC-PVTZ
  Basis Set:
  @DF-RHF Final Energy:  -270.11645513140888
    Total Energy =                       -270.1164551314089408
  Basis Set: CC-PVTZ
  Basis Set:
  Charge       = 0
  Multiplicity = 1
  Basis Set: CC-PVTZ
  Basis Set:

    Orbital Energies (a.u.)
    -----------------------

    Doubly Occupied:

       1A    -20.545396     2A    -11.267693     3A    -11.217264
       4A    -11.216222     5A    -11.213942     6A    -11.210821
       7A     -1.366156     8A     -1.116562     9A     -0.969567
      10A     -0.949757    11A     -0.805638    12A     -0.783512
      13A     -0.683763    14A     -0.663504    15A     -0.610118
      16A     -0.586973    17A     -0.579424    18A     -0.550071
      19A     -0.506749    20A     -0.484538    21A     -0.473655
      22A     -0.459146    23A     -0.456192    24A     -0.414761

  @DF-RHF Final Energy:  -270.11645566089783

   => Energetics <=

    Nuclear Repulsion Energy =            255.4824624384843617
    One-Electron Energy =                -872.9349887409027815
    Two-Electron Energy =                 347.3360706415205073
    DFT Exchange-Correlation Energy =       0.0000000000000000
    Empirical Dispersion Energy =           0.0000000000000000
    PCM Polarization Energy =               0.0000000000000000
    EFP Energy =                            0.0000000000000000
    Total Energy =                       -270.1164556608978842
    Molecular point group: c1
  Basis Set: CC-PVTZ
  Basis Set:

  -Total Gradient:
     Atom            X                  Y                   Z
    ------   -----------------  -----------------  -----------------
       1        0.000064144133     0.000765846991     0.000125740394
       2       -0.000111646947    -0.001049716031    -0.000357297558
       3        0.000160866463     0.000542427906     0.000661599664
       4        0.000000381739    -0.000005396336     0.000009845759
       5       -0.000006521359     0.000025096872     0.000013467492
       6       -0.000107898092    -0.000276589605    -0.000424032012
       7       -0.000002041833     0.000001827518    -0.000011434571
       8        0.000003276314    -0.000008549636    -0.000002109120
       9        0.000031296653    -0.000015061987    -0.000026529657
      10        0.000000529714     0.000005657173    -0.000017178575
      11       -0.000006244336     0.000002170495    -0.000003917371
      12        0.000022104380     0.000009410649     0.000006095049
      13       -0.000023084626    -0.000020405321    -0.000009680527
      14       -0.000005218015    -0.000002485767     0.000020087587
      15       -0.000009332931     0.000016315434    -0.000009096985
      16       -0.000010611253     0.000009451644     0.000024440431

  **** Optimization is complete! (in 11 steps) ****
    Final optimized geometry and variables:
    Molecular point group: c1

    Geometry (in Angstrom), charge = 0, multiplicity = 1:

    H            2.160752661424     0.092160108484    -0.994964531783
    O            2.093690600454    -0.064152319240    -0.069857630127
    C            0.752540169928    -0.026740177231     0.323196652725
    H            0.772143601161    -0.042440769860     1.407368488447
    C           -0.098435390047    -1.189125426402    -0.179957366779
    C           -0.027280645864     1.196030508643    -0.152040281900
    H            0.071437754087    -1.306256886030    -1.247711776379
    H            0.153593447780    -2.129692420328     0.292161890832
    C           -1.539079660805    -0.735921085076     0.089476565922
    H            0.170427628099     1.341737755336    -1.211970615849
    H            0.264384607148     2.105308045412     0.357154131445
    C           -1.500302222414     0.817694132651     0.068579283672
    H           -2.232860620401    -1.137412809077    -0.637149192703
    H           -1.867441999203    -1.087354744802     1.060139116228
    H           -2.136835494302     1.229096485591    -0.703547798912
    H           -1.858078959580     1.215514505349     1.010059600725

  Mulliken Charges: (a.u.)
   Center  Symbol    Alpha    Beta     Spin     Total
       1     H     0.39482  0.39482  0.00000  0.21035
       2     O     4.20695  4.20695  0.00000 -0.41389
       3     C     2.93387  2.93387  0.00000  0.13227
       4     H     0.44401  0.44401  0.00000  0.11199
       5     C     3.09953  3.09953  0.00000 -0.19907
       6     C     3.10627  3.10627  0.00000 -0.21253
       7     H     0.46073  0.46073  0.00000  0.07855
       8     H     0.44324  0.44324  0.00000  0.11352
       9     C     3.11303  3.11303  0.00000 -0.22607
      10     H     0.46073  0.46073  0.00000  0.07854
      11     H     0.44195  0.44195  0.00000  0.11609
      12     C     3.11110  3.11110  0.00000 -0.22219
      13     H     0.44398  0.44398  0.00000  0.11205
      14     H     0.44810  0.44810  0.00000  0.10380
      15     H     0.44463  0.44463  0.00000  0.11074
      16     H     0.44708  0.44708  0.00000  0.10585

   Total alpha = 24.00000, Total beta = 24.00000, Total charge = -0.00000

*** Psi4 exiting successfully. Buy a developer a beer!
