  ==> Input File <==

--------------------------------------------------------------------------
set {
	reference rhf
	basis 6-31G*
}

set_num_threads( 4 )
memory 2 gb

molecule MOL {
0 1

H	 -3.135461	 -1.215070	 0.001379
O	 -2.310168	 -0.871793	 -0.309793
C	 -2.026376	 0.340750	 0.341611
C	 -0.673256	 0.843270	 -0.132153
H	 -2.792215	 1.080697	 0.115987
H	 -2.013526	 0.200402	 1.421792
C	 0.486613	 -0.083066	 0.235839
H	 -0.715586	 0.970948	 -1.210718
H	 -0.508072	 1.829858	 0.297090
C	 0.952695	 -0.948811	 -0.935941
H	 0.185557	 -0.718896	 1.062034
H	 1.323376	 0.515391	 0.594332
C	 2.115632	 -1.870319	 -0.569782
H	 0.118106	 -1.547678	 -1.294462
H	 1.247360	 -0.309158	 -1.765675
H	 1.840377	 -2.546490	 0.234530
H	 2.423259	 -2.473401	 -1.418665
H	 2.979121	 -1.299613	 -0.239339

	symmetry c1
}
set optking {
	frozen_dihedral = ("
		10 7 4 8
	")
}

ee = optimize('scf')
oeprop('DIPOLE', 'QUADRUPOLE', 'MULLIKEN_CHARGES')
f=open( 'psi4out.xyz', 'w' )
f.write( "18  " )
f.write( str(ee) + "\n" )
f.write( MOL.save_string_xyz() )
f.close()
--------------------------------------------------------------------------

    Molecular point group: c1
  Charge       = 0
  Multiplicity = 1
  Basis Set: 6-31G*
  Basis Set:
  @DF-RHF Final Energy:  -271.17577079730262
    Total Energy =                       -271.1757707973027891
    Molecular point group: c1
  Basis Set: 6-31G*
  Basis Set:
  Basis Set: 6-31G*
  Basis Set:
  @DF-RHF Final Energy:  -271.17601563061999
    Total Energy =                       -271.1760156306199860
  Basis Set: 6-31G*
  Basis Set:
  Basis Set: 6-31G*
  Basis Set:
  @DF-RHF Final Energy:  -271.17610775618164
    Total Energy =                       -271.1761077561817501
  Basis Set: 6-31G*
  Basis Set:
  Basis Set: 6-31G*
  Basis Set:
  @DF-RHF Final Energy:  -271.17610509134829
    Total Energy =                       -271.1761050913483473
  Basis Set: 6-31G*
  Basis Set:
  Basis Set: 6-31G*
  Basis Set:
  @DF-RHF Final Energy:  -271.17611036407317
    Total Energy =                       -271.1761103640731108
  Basis Set: 6-31G*
  Basis Set:
  Charge       = 0
  Multiplicity = 1
  Basis Set: 6-31G*
  Basis Set:

    Orbital Energies (a.u.)
    -----------------------

    Doubly Occupied:

       1A    -20.554533     2A    -11.268454     3A    -11.212273
       4A    -11.207411     5A    -11.202730     6A    -11.200197
       7A     -1.361003     8A     -1.070465     9A     -1.005781
      10A     -0.911168    11A     -0.818800    12A     -0.779340
      13A     -0.705017    14A     -0.644781    15A     -0.616329
      16A     -0.577263    17A     -0.569076    18A     -0.556343
      19A     -0.522337    20A     -0.503662    21A     -0.484948
      22A     -0.463046    23A     -0.448471    24A     -0.447466
      25A     -0.429344

  @DF-RHF Final Energy:  -271.17611045595476

   => Energetics <=

    Nuclear Repulsion Energy =            253.5904074118187168
    One-Electron Energy =                -870.4125601657532343
    Two-Electron Energy =                 345.6460422979798750
    DFT Exchange-Correlation Energy =       0.0000000000000000
    Empirical Dispersion Energy =           0.0000000000000000
    PCM Polarization Energy =               0.0000000000000000
    EFP Energy =                            0.0000000000000000
    Total Energy =                       -271.1761104559545856
    Molecular point group: c1
  Basis Set: 6-31G*
  Basis Set:

  -Total Gradient:
     Atom            X                  Y                   Z
    ------   -----------------  -----------------  -----------------
       1       -0.000001280377    -0.000000902315    -0.000000658659
       2       -0.000005673453     0.000004280160    -0.000007808240
       3        0.000010121917    -0.000008192643     0.000013114967
       4        0.001793357719     0.002247871752     0.000014520867
       5       -0.000001092087    -0.000005990869    -0.000004011513
       6       -0.000000226776     0.000005795068     0.000001760252
       7       -0.001539948139    -0.001736108613     0.000484028069
       8       -0.001155634084    -0.001502234873    -0.000131761154
       9        0.000007810044     0.000000290732     0.000001710322
      10        0.000891334964     0.000994566442    -0.000358381754
      11        0.000000750617     0.000003245501    -0.000007829608
      12        0.000001373745     0.000008333220     0.000000358160
      13        0.000005705556     0.000000095954    -0.000001202657
      14       -0.000007802260     0.000001063733    -0.000005863049
      15        0.000001395582    -0.000007477300     0.000002378961
      16       -0.000000488360    -0.000002557079    -0.000003480895
      17        0.000003743849    -0.000000419993    -0.000000571080
      18       -0.000003448457    -0.000001658877     0.000003697010

  **** Optimization is complete! (in 6 steps) ****
    Final optimized geometry and variables:
    Molecular point group: c1

    Geometry (in Angstrom), charge = 0, multiplicity = 1:

    H           -2.821761744530    -0.783788742651     0.261201422961
    O           -2.003921130232    -0.430497896471    -0.058559486824
    C           -1.743732575548     0.802326138631     0.564031243947
    C           -0.391326179855     1.312877252872     0.094566143329
    H           -2.517702469948     1.525685194945     0.312906138050
    H           -1.739718451236     0.687808348975     1.647174866679
    C            0.781744943664     0.376601345283     0.446361164776
    H           -0.446892420662     1.451573749855    -0.981533185532
    H           -0.239977814062     2.294788524176     0.535027624032
    C            1.253465872457    -0.489468425332    -0.724177910816
    H            0.499737393594    -0.265323959589     1.277359830064
    H            1.623617956074     0.970288686457     0.795862914444
    C            2.399029696490    -1.426014255350    -0.342915529015
    H            0.415718162576    -1.067426973837    -1.099897907433
    H            1.574441233247     0.158921033074    -1.537190683825
    H            2.097628449637    -2.113805776468     0.442373949620
    H            2.722490360605    -2.018543803922    -1.193441521651
    H            3.260138595463    -0.870030248047     0.018684699760

  Mulliken Charges: (a.u.)
   Center  Symbol    Alpha    Beta     Spin     Total
       1     H     0.28042  0.28042  0.00000  0.43917
       2     O     4.36928  4.36928  0.00000 -0.73856
       3     C     2.99826  2.99826  0.00000  0.00347
       4     C     3.16387  3.16387  0.00000 -0.32775
       5     H     0.42989  0.42989  0.00000  0.14022
       6     H     0.43242  0.43242  0.00000  0.13515
       7     C     3.15114  3.15114  0.00000 -0.30229
       8     H     0.41345  0.41345  0.00000  0.17310
       9     H     0.42095  0.42095  0.00000  0.15809
      10     C     3.15432  3.15432  0.00000 -0.30864
      11     H     0.42020  0.42020  0.00000  0.15959
      12     H     0.42446  0.42446  0.00000  0.15109
      13     C     3.24044  3.24044  0.00000 -0.48087
      14     H     0.40667  0.40667  0.00000  0.18666
      15     H     0.42671  0.42671  0.00000  0.14659
      16     H     0.42235  0.42235  0.00000  0.15530
      17     H     0.42062  0.42062  0.00000  0.15876
      18     H     0.42455  0.42455  0.00000  0.15090

   Total alpha = 25.00000, Total beta = 25.00000, Total charge = -0.00000
