  ==> Input File <==

--------------------------------------------------------------------------
set {
	reference rhf
	basis cc-pvtz
}

set_num_threads( 4 )
memory 2 gb

molecule MOL {
0 1

H	 -2.816458	 -0.841657	 -0.064679
N	 -1.878861	 -0.711874	 0.250184
C	 -1.341419	 0.551458	 -0.220231
H	 -1.333674	 -1.468530	 -0.105118
C	 -1.646644	 1.656814	 0.764490
H	 -0.265464	 0.528826	 -0.388611
H	 -1.813218	 0.799273	 -1.164712
O	 -0.972936	 1.394851	 1.958307
H	 -1.325962	 2.614298	 0.356371
H	 -2.718859	 1.703331	 0.940897
C	 -1.226332	 2.306748	 2.974897
H	 -0.653707	 2.007005	 3.840714
H	 -0.927297	 3.313262	 2.689935
H	 -2.280701	 2.323582	 3.240574

	symmetry c1
}
set optking {
	frozen_dihedral = ("
		6 3 2 4
	")
}

ee = optimize('scf')
oeprop('DIPOLE', 'QUADRUPOLE', 'MULLIKEN_CHARGES')
f=open( 'psi4out.xyz', 'w' )
f.write( "14  " )
f.write( str(ee) + "\n" )
f.write( MOL.save_string_xyz() )
f.close()
--------------------------------------------------------------------------

    Molecular point group: c1
  Charge       = 0
  Multiplicity = 1
  Basis Set: CC-PVTZ
  Basis Set:
  @DF-RHF Final Energy:  -248.21890622389046
    Total Energy =                       -248.2189062238902579
    Molecular point group: c1
  Basis Set: CC-PVTZ
  Basis Set:
  Basis Set: CC-PVTZ
  Basis Set:
  @DF-RHF Final Energy:  -248.22077762957989
    Total Energy =                       -248.2207776295797430
  Basis Set: CC-PVTZ
  Basis Set:
  Basis Set: CC-PVTZ
  Basis Set:
  @DF-RHF Final Energy:  -248.22106061661816
    Total Energy =                       -248.2210606166183311
  Basis Set: CC-PVTZ
  Basis Set:
  Basis Set: CC-PVTZ
  Basis Set:
  @DF-RHF Final Energy:  -248.22107863226591
    Total Energy =                       -248.2210786322659715
  Basis Set: CC-PVTZ
  Basis Set:
  Charge       = 0
  Multiplicity = 1
  Basis Set: CC-PVTZ
  Basis Set:

    Orbital Energies (a.u.)
    -----------------------

    Doubly Occupied:

       1A    -20.542194     2A    -15.525354     3A    -11.260956
       4A    -11.257751     5A    -11.241547     6A     -1.378246
       7A     -1.176260     8A     -0.998845     9A     -0.902356
      10A     -0.816741    11A     -0.682787    12A     -0.669443
      13A     -0.643532    14A     -0.624697    15A     -0.599295
      16A     -0.539605    17A     -0.520852    18A     -0.504899
      19A     -0.466042    20A     -0.412972    21A     -0.382490

  @DF-RHF Final Energy:  -248.22107994486541

   => Energetics <=

    Nuclear Repulsion Energy =            193.3213318548228870
    One-Electron Energy =                -720.7910980227343316
    Two-Electron Energy =                 279.2486862230463203
    DFT Exchange-Correlation Energy =       0.0000000000000000
    Empirical Dispersion Energy =           0.0000000000000000
    PCM Polarization Energy =               0.0000000000000000
    EFP Energy =                            0.0000000000000000
    Total Energy =                       -248.2210799448650960
    Molecular point group: c1
  Basis Set: CC-PVTZ
  Basis Set:

  -Total Gradient:
     Atom            X                  Y                   Z
    ------   -----------------  -----------------  -----------------
       1        0.000011382655     0.000009155936    -0.000000697663
       2       -0.000722984619    -0.000075853802    -0.001264704821
       3        0.000226530636     0.000366788421     0.001308223818
       4        0.000549022156     0.000013375355     0.000842590973
       5       -0.000033914828    -0.000094565115     0.000076847838
       6       -0.000038944147    -0.000255329741    -0.000871396818
       7       -0.000003983002    -0.000025068172     0.000022439677
       8        0.000005980389     0.000026252354    -0.000114710776
       9        0.000038944122     0.000011302984     0.000046282093
      10       -0.000038777182     0.000008013602    -0.000034717226
      11        0.000022545260     0.000039738794    -0.000009550883
      12       -0.000006432748    -0.000010807543    -0.000009306340
      13       -0.000004375644    -0.000000503898     0.000013178049
      14       -0.000004993049    -0.000012499173    -0.000004477915

  **** Optimization is complete! (in 5 steps) ****
    Final optimized geometry and variables:
    Molecular point group: c1

    Geometry (in Angstrom), charge = 0, multiplicity = 1:

    H           -1.436239879516    -1.880848680797    -1.306028246919
    N           -0.508774126531    -1.771106034888    -0.958092737999
    C            0.072103162665    -0.499074532914    -1.351896906391
    H            0.035194439050    -2.541553293688    -1.276836126487
    C           -0.233859234273     0.601767222038    -0.357024712603
    H            1.147318902032    -0.609519397487    -1.414542553748
    H           -0.268070968062    -0.169966639707    -2.333124609408
    O            0.498071635496     0.402493543669     0.807209215842
    H            0.019753438779     1.567327967946    -0.796303454241
    H           -1.301749013164     0.611734704868    -0.138471824917
    C            0.208344942023     1.295317432871     1.828626817397
    H            0.840000590796     1.051980535129     2.670731051404
    H            0.404982095181     2.323918115808     1.530775432480
    H           -0.831587679214     1.221562657967     2.139571100512

  Mulliken Charges: (a.u.)
   Center  Symbol    Alpha    Beta     Spin     Total
       1     H     0.43057  0.43057  0.00000  0.13886
       2     N     3.69013  3.69013  0.00000 -0.38025
       3     C     3.03447  3.03447  0.00000 -0.06893
       4     H     0.42542  0.42542  0.00000  0.14916
       5     C     2.95017  2.95017  0.00000  0.09965
       6     H     0.45344  0.45344  0.00000  0.09312
       7     H     0.46503  0.46503  0.00000  0.06994
       8     O     4.16936  4.16936  0.00000 -0.33872
       9     H     0.47530  0.47530  0.00000  0.04939
      10     H     0.48078  0.48078  0.00000  0.03844
      11     C     3.03186  3.03186  0.00000 -0.06372
      12     H     0.44748  0.44748  0.00000  0.10504
      13     H     0.47438  0.47438  0.00000  0.05124
      14     H     0.47161  0.47161  0.00000  0.05677

   Total alpha = 21.00000, Total beta = 21.00000, Total charge =  0.00000
