  ==> Input File <==

--------------------------------------------------------------------------
set {
	reference rhf
	basis 6-31G*
}

set_num_threads( 1 )
memory 2 gb

molecule MOL {
0 1

H	 -2.055422	 -0.357084	 1.002811
O	 -2.035884	 -0.060112	 0.102722
C	 -0.955155	 0.788182	 -0.092531
C	 0.353668	 0.040312	 -0.004810
H	 -0.985057	 1.290372	 -1.054184
H	 -0.974469	 1.533190	 0.688632
F	 0.394464	 -0.937475	 -0.903053
F	 1.368604	 0.853376	 -0.249821
F	 0.546173	 -0.502608	 1.179981

	symmetry c1
}
set optking {
	frozen_dihedral = ("
		7 4 3 5
	")
}

ee = energy('scf')
oeprop('DIPOLE', 'QUADRUPOLE', 'MULLIKEN_CHARGES')
f=open( 'psi4out.xyz', 'w' )
f.write( "9  " )
f.write( str(ee) + "\n" )
f.write( MOL.save_string_xyz() )
f.close()
--------------------------------------------------------------------------

    Molecular point group: c1

    Geometry (in Angstrom), charge = 0, multiplicity = 1:

       Center              X                  Y                   Z               Mass
    ------------   -----------------  -----------------  -----------------  -----------------
           H         -2.055860858390    -0.360280803269     0.986491490275     1.007825032070
           O         -2.036322858390    -0.063308803269     0.086402490275    15.994914619560
           C         -0.955593858390     0.784985196731    -0.108850509725    12.000000000000
           C          0.353229141610     0.037115196731    -0.021129509725    12.000000000000
           H         -0.985495858390     1.287175196731    -1.070503509725     1.007825032070
           H         -0.974907858390     1.529993196731     0.672312490275     1.007825032070
           F          0.394025141610    -0.940671803269    -0.919372509725    18.998403224000
           F          1.368165141610     0.850179196731    -0.266140509725    18.998403224000
           F          0.545734141610    -0.505804803269     1.163661490275    18.998403224000

  Charge       = 0
  Multiplicity = 1
  Basis Set: 6-31G*
  Basis Set:

    Orbital Energies (a.u.)
    -----------------------

    Doubly Occupied:

       1A    -26.347788     2A    -26.342959     3A    -26.333307
       4A    -20.589326     5A    -11.499531     6A    -11.310405
       7A     -1.739995     8A     -1.642177     9A     -1.631541
      10A     -1.402524    11A     -1.047892    12A     -0.923347
      13A     -0.830189    14A     -0.827611    15A     -0.803720
      16A     -0.727657    17A     -0.712047    18A     -0.696330
      19A     -0.666934    20A     -0.656414    21A     -0.641179
      22A     -0.633515    23A     -0.612974    24A     -0.528231
      25A     -0.478957

  @DF-RHF Final Energy:  -450.66049373917065

   => Energetics <=

    Nuclear Repulsion Energy =            277.0471510249356015
    One-Electron Energy =               -1176.1621996709591258
    Two-Electron Energy =                 448.4545549068525929
    DFT Exchange-Correlation Energy =       0.0000000000000000
    Empirical Dispersion Energy =           0.0000000000000000
    PCM Polarization Energy =               0.0000000000000000
    EFP Energy =                            0.0000000000000000
    Total Energy =                       -450.6604937391709313

  Mulliken Charges: (a.u.)
   Center  Symbol    Alpha    Beta     Spin     Total
       1     H     0.27211  0.27211  0.00000  0.45577
       2     O     4.36162  4.36162  0.00000 -0.72324
       3     C     3.05355  3.05355  0.00000 -0.10710
       4     C     2.46499  2.46499  0.00000  1.07003
       5     H     0.39429  0.39429  0.00000  0.21141
       6     H     0.41099  0.41099  0.00000  0.17803
       7     F     4.68033  4.68033  0.00000 -0.36067
       8     F     4.68179  4.68179  0.00000 -0.36357
       9     F     4.68033  4.68033  0.00000 -0.36065

   Total alpha = 25.00000, Total beta = 25.00000, Total charge =  0.00000
