                              Psi4 1.0.54 Driver

  ==> Input File <==

--------------------------------------------------------------------------
set {
	reference rhf
	basis cc-pvtz
}

set_num_threads( 4 )
memory 2 gb

molecule MOL {
0 1

H	 2.513203	 -1.119262	 1.106955
N	 1.535166	 -0.929427	 1.124707
C	 0.806789	 -1.923006	 0.361746
C	 1.265175	 0.411898	 0.647429
H	 1.015816	 -2.905020	 0.768326
H	 1.092907	 -1.927992	 -0.691691
C	 -0.681559	 -1.641071	 0.458742
H	 1.806360	 1.121810	 1.261022
H	 1.580254	 0.554432	 -0.387959
C	 -0.223774	 0.690774	 0.744050
H	 -1.004668	 -1.788843	 1.493321
H	 -1.224240	 -2.347149	 -0.158566
N	 -0.976577	 -0.298712	 -0.000000
H	 -0.435447	 1.670765	 0.333038
H	 -0.515344	 0.703646	 1.798285
C	 -2.391156	 -0.021003	 -0.000000
H	 -2.853954	 -0.458728	 -0.875714
H	 -2.853954	 -0.458728	 0.875714
H	 -2.614037	 1.049773	 -0.000000

	symmetry c1
}
set optking {
	frozen_dihedral = ("
		7 13 16 19
	")
}

ee,wfn = optimize('scf', return_wfn=True)
oeprop( wfn, 'DIPOLE', 'QUADRUPOLE', 'MULLIKEN_CHARGES')
f=open( 'psi4out.xyz', 'w' )
f.write( "19  " )
f.write( str(ee) + "\n" )
f.write( MOL.save_string_xyz() )
f.close()
--------------------------------------------------------------------------

    Molecular point group: c1
  Charge       = 0
  Multiplicity = 1
  Basis Set: CC-PVTZ
  Basis Set:
  @DF-RHF Final Energy:  -305.30632415507284
    Total Energy =                       -305.3063241550727298
    Molecular point group: c1
  Basis Set: CC-PVTZ
  Basis Set:
  Basis Set: CC-PVTZ
  Basis Set:
  @DF-RHF Final Energy:  -305.30702046062692
    Total Energy =                       -305.3070204606269158
  Basis Set: CC-PVTZ
  Basis Set:
  Basis Set: CC-PVTZ
  Basis Set:
  @DF-RHF Final Energy:  -305.30711585704063
    Total Energy =                       -305.3071158570409125
  Basis Set: CC-PVTZ
  Basis Set:
  Charge       = 0
  Multiplicity = 1
  Basis Set: CC-PVTZ
  Basis Set:

    Orbital Energies (a.u.)
    -----------------------

    Doubly Occupied:

       1A    -15.536699     2A    -15.531050     3A    -11.237126
       4A    -11.237063     5A    -11.235955     6A    -11.235717
       7A    -11.233175     8A     -1.248806     9A     -1.187363
      10A     -1.023619    11A     -0.965448    12A     -0.861336
      13A     -0.858608    14A     -0.758256    15A     -0.692686
      16A     -0.633805    17A     -0.626690    18A     -0.609149
      19A     -0.605514    20A     -0.581183    21A     -0.543809
      22A     -0.530985    23A     -0.512385    24A     -0.489872
      25A     -0.466814    26A     -0.457848    27A     -0.365814
      28A     -0.348721

  @DF-RHF Final Energy:  -305.30711792071259

   => Energetics <=

    Nuclear Repulsion Energy =            340.2598403989139797
    One-Electron Energy =               -1087.9029190176961492
    Two-Electron Energy =                 442.3359606980697549
    DFT Exchange-Correlation Energy =       0.0000000000000000
    Empirical Dispersion Energy =           0.0000000000000000
    PCM Polarization Energy =               0.0000000000000000
    EFP Energy =                            0.0000000000000000
    Total Energy =                       -305.3071179207124146
    Molecular point group: c1
  Basis Set: CC-PVTZ
  Basis Set:

  -Total Gradient:
     Atom            X                  Y                   Z
    ------   -----------------  -----------------  -----------------
       1       -0.000004016377     0.000027732491     0.000008273298
       2        0.000001117897    -0.000004705496     0.000003405032
       3        0.000009668911     0.000103375748    -0.000086001248
       4        0.000055485279     0.000054098059     0.000102532954
       5       -0.000048768863     0.000031008912    -0.000004453309
       6        0.000035546858    -0.000021644990    -0.000033399903
       7        0.000105002454     0.001184515592     0.003218761005
       8        0.000061771763    -0.000008224755     0.000010452755
       9       -0.000036321041    -0.000013553886     0.000021567983
      10       -0.000001707540    -0.000082490496    -0.000133589695
      11       -0.000028850807     0.000000971787     0.000023413808
      12       -0.000017873363     0.000003705822    -0.000003378255
      13       -0.000337589751    -0.001589588190    -0.003127674188
      14        0.000016971323    -0.000003080008     0.000016797031
      15        0.000041385965     0.000004476189    -0.000003490872
      16        0.000161701633     0.000398071036    -0.004513604809
      17       -0.000005228529    -0.000013645506    -0.000013535105
      18        0.000005165366    -0.000015966604     0.000031403676
      19       -0.000013461175    -0.000055055703     0.004482519841

  **** Optimization is complete! (in 4 steps) ****
    Final optimized geometry and variables:
    Molecular point group: c1

    Geometry (in Angstrom), charge = 0, multiplicity = 1:

    H            2.605639082551    -0.631244427020     0.647250050892
    N            1.629648588540    -0.430443326191     0.660170961267
    C            0.894670320056    -1.403892237007    -0.121699857927
    C            1.378482828188     0.920560848975     0.201088336173
    H            1.082177893630    -2.393500112946     0.277149675855
    H            1.192280385384    -1.403485685608    -1.172009331161
    C           -0.589243342170    -1.097290289273    -0.036447795234
    H            1.920264973856     1.615539654882     0.831309383436
    H            1.706236768583     1.075746374629    -0.828605819020
    C           -0.108529427555     1.216223182433     0.283147405895
    H           -0.923936066661    -1.238067980770     0.994927222796
    H           -1.139454006710    -1.795462356745    -0.657323083135
    N           -0.862612993145     0.250624055172    -0.494461123243
    H           -0.298077168305     2.206745853719    -0.111909249079
    H           -0.413141657984     1.212956734106     1.333784591014
    C           -2.280964395733     0.532901947307    -0.504024263853
    H           -2.752966687108     0.101610765613    -1.378392942668
    H           -2.786674070080     0.139501988625     0.381398686656
    H           -2.448542662945     1.601789387295    -0.501354166285

  Mulliken Charges: (a.u.)
   Center  Symbol    Alpha    Beta     Spin     Total
       1     H     0.43999  0.43999  0.00000  0.12002
       2     N     3.64289  3.64289  0.00000 -0.28578
       3     C     3.04081  3.04081  0.00000 -0.08161
       4     C     3.04176  3.04176  0.00000 -0.08351
       5     H     0.45251  0.45251  0.00000  0.09499
       6     H     0.46528  0.46528  0.00000  0.06943
       7     C     3.03577  3.03577  0.00000 -0.07155
       8     H     0.45252  0.45252  0.00000  0.09496
       9     H     0.46546  0.46546  0.00000  0.06907
      10     C     3.03317  3.03317  0.00000 -0.06633
      11     H     0.46731  0.46731  0.00000  0.06537
      12     H     0.45411  0.45411  0.00000  0.09179
      13     N     3.61565  3.61565  0.00000 -0.23131
      14     H     0.45399  0.45399  0.00000  0.09203
      15     H     0.46930  0.46930  0.00000  0.06140
      16     C     3.09601  3.09601  0.00000 -0.19202
      17     H     0.44975  0.44975  0.00000  0.10050
      18     H     0.46925  0.46925  0.00000  0.06150
      19     H     0.45447  0.45447  0.00000  0.09105

   Total alpha = 28.00000, Total beta = 28.00000, Total charge =  0.00000

*** Psi4 exiting successfully. Buy a developer a beer!
