  ==> Input File <==

--------------------------------------------------------------------------
set {
	reference rhf
	basis cc-pvtz
}

set_num_threads( 4 )
memory 2 gb

molecule MOL {
0 1

H	 -2.498963	 -0.741158	 -0.729149
O	 -2.346257	 -0.289210	 0.080372
C	 -1.183935	 0.486039	 -0.009831
C	 0.062853	 -0.375310	 0.027457
H	 -1.178881	 1.094526	 -0.908634
H	 -1.184406	 1.155156	 0.838676
O	 1.172093	 0.457955	 -0.054438
H	 0.052476	 -1.081302	 -0.804627
H	 0.076323	 -0.955658	 0.947560
C	 2.302513	 -0.016252	 0.600161
H	 2.630449	 -0.968044	 0.188064
H	 3.090837	 0.710211	 0.467937
H	 2.120086	 -0.146475	 1.664249

	symmetry c1
}
set optking {
	frozen_dihedral = ("
		10 7 4 8
	")
}

ee = optimize('scf')
oeprop('DIPOLE', 'QUADRUPOLE', 'MULLIKEN_CHARGES')
f=open( 'psi4out.xyz', 'w' )
f.write( "13  " )
f.write( str(ee) + "\n" )
f.write( MOL.save_string_xyz() )
f.close()
--------------------------------------------------------------------------

    Molecular point group: c1
  Charge       = 0
  Multiplicity = 1
  Basis Set: CC-PVTZ
  Basis Set:
  @DF-RHF Final Energy:  -268.06066556224982
    Total Energy =                       -268.0606655622497101
    Molecular point group: c1
  Basis Set: CC-PVTZ
  Basis Set:
  Basis Set: CC-PVTZ
  Basis Set:
  @DF-RHF Final Energy:  -268.06076260362244
    Total Energy =                       -268.0607626036226634
  Basis Set: CC-PVTZ
  Basis Set:
  Basis Set: CC-PVTZ
  Basis Set:
  @DF-RHF Final Energy:  -268.06078799612715
    Total Energy =                       -268.0607879961271465
  Basis Set: CC-PVTZ
  Basis Set:
  Charge       = 0
  Multiplicity = 1
  Basis Set: CC-PVTZ
  Basis Set:

    Orbital Energies (a.u.)
    -----------------------

    Doubly Occupied:

       1A    -20.554670     2A    -20.552601     3A    -11.269103
       4A    -11.267851     5A    -11.266988     6A     -1.389856
       7A     -1.368744     8A     -1.019229     9A     -0.915048
      10A     -0.841725    11A     -0.710943    12A     -0.677501
      13A     -0.660994    14A     -0.635730    15A     -0.602003
      16A     -0.574681    17A     -0.538990    18A     -0.491979
      19A     -0.485858    20A     -0.446884    21A     -0.417497

  @DF-RHF Final Energy:  -268.06078843604405

   => Energetics <=

    Nuclear Repulsion Energy =            190.4935581725131613
    One-Electron Energy =                -743.7309407563218429
    Two-Electron Energy =                 285.1765941477647175
    DFT Exchange-Correlation Energy =       0.0000000000000000
    Empirical Dispersion Energy =           0.0000000000000000
    PCM Polarization Energy =               0.0000000000000000
    EFP Energy =                            0.0000000000000000
    Total Energy =                       -268.0607884360439357
    Molecular point group: c1
  Basis Set: CC-PVTZ
  Basis Set:

  -Total Gradient:
     Atom            X                  Y                   Z
    ------   -----------------  -----------------  -----------------
       1       -0.000016546932    -0.000006981488     0.000001314337
       2       -0.000036399965    -0.000038145354    -0.000014002759
       3        0.000000073476     0.000002408405    -0.000013539757
       4        0.001467820638    -0.001611310593     0.002460852705
       5        0.000002080247     0.000011665821     0.000006934094
       6        0.000027849162     0.000009682442     0.000000214951
       7        0.000435442539    -0.000984270580    -0.002782012966
       8       -0.001319587770     0.001640207978    -0.001343665464
       9       -0.000004560008    -0.000001553205     0.000003971564
      10       -0.000519451113     0.000965162023     0.001698080346
      11       -0.000019172421     0.000010432774    -0.000001994954
      12        0.000006820754     0.000002638221    -0.000002998250
      13       -0.000024368609     0.000000063554    -0.000013153848

  **** Optimization is complete! (in 4 steps) ****
    Final optimized geometry and variables:
    Molecular point group: c1

    Geometry (in Angstrom), charge = 0, multiplicity = 1:

    H           -2.467136201044    -0.761751040951    -0.899022189086
    O           -2.335391433797    -0.322985097857    -0.078581626618
    C           -1.168383169054     0.449383924607    -0.124665869043
    C            0.076181684360    -0.416865478076    -0.069091068939
    H           -1.136094601196     1.071650546006    -1.013474962465
    H           -1.190794307330     1.106199859523     0.733405795504
    O            1.191962441059     0.410411511220    -0.170461323184
    H            0.056030088863    -1.125361045011    -0.897275131130
    H            0.082222783044    -0.982268187690     0.858040119774
    C            2.338445039515    -0.049881628377     0.467720273644
    H            2.671182356844    -1.001534582705     0.059278309412
    H            3.116997472868     0.683069915185     0.313972839041
    H            2.175831783261    -0.170785656563     1.535533054972

  Mulliken Charges: (a.u.)
   Center  Symbol    Alpha    Beta     Spin     Total
       1     H     0.39330  0.39330  0.00000  0.21340
       2     O     4.20289  4.20289  0.00000 -0.40578
       3     C     2.97305  2.97305  0.00000  0.05390
       4     C     2.96752  2.96752  0.00000  0.06495
       5     H     0.46672  0.46672  0.00000  0.06656
       6     H     0.45489  0.45489  0.00000  0.09021
       7     O     4.17857  4.17857  0.00000 -0.35713
       8     H     0.47471  0.47471  0.00000  0.05058
       9     H     0.47026  0.47026  0.00000  0.05948
      10     C     3.03020  3.03020  0.00000 -0.06040
      11     H     0.47044  0.47044  0.00000  0.05912
      12     H     0.44783  0.44783  0.00000  0.10435
      13     H     0.46962  0.46962  0.00000  0.06077

   Total alpha = 21.00000, Total beta = 21.00000, Total charge = -0.00000
