  ==> Input File <==

--------------------------------------------------------------------------
set {
	reference rhf
	basis cc-pvtz
}

set_num_threads( 4 )
memory 2 gb

molecule MOL {
0 1

H	 -3.268214	 -0.875720	 0.463107
C	 -2.806015	 0.000007	 0.024886
N	 -1.391133	 0.000016	 0.301321
H	 -3.029448	 0.000055	 -1.045738
H	 -3.268126	 0.875758	 0.463150
C	 -1.047501	 0.860107	 1.412958
C	 -0.602249	 0.328063	 -0.866403
H	 -1.303773	 1.903016	 1.204355
H	 -1.614687	 0.551813	 2.283211
C	 0.434706	 0.768533	 1.723908
H	 -0.844375	 -0.368640	 -1.660172
H	 -0.828165	 1.334704	 -1.230386
C	 0.879958	 0.236489	 -0.555453
H	 0.676832	 1.465236	 2.517677
H	 0.660622	 -0.238108	 2.087891
N	 1.223590	 1.096580	 0.556184
H	 1.447143	 0.544783	 -1.425706
H	 1.136230	 -0.806420	 -0.346850
C	 2.638472	 1.096589	 0.832619
H	 2.859735	 1.797754	 1.627587
H	 3.187004	 1.406686	 -0.048014
H	 3.012033	 0.114115	 1.134869

	symmetry c1
}
set optking {
	frozen_dihedral = ("
		6 3 2 4
	")
}

ee = optimize('scf')
oeprop('DIPOLE', 'QUADRUPOLE', 'MULLIKEN_CHARGES')
f=open( 'psi4out.xyz', 'w' )
f.write( "22  " )
f.write( str(ee) + "\n" )
f.write( MOL.save_string_xyz() )
f.close()
--------------------------------------------------------------------------

    Molecular point group: c1
  Charge       = 0
  Multiplicity = 1
  Basis Set: CC-PVTZ
  Basis Set:
  @DF-RHF Final Energy:  -344.34491674820663
    Total Energy =                       -344.3449167482062876
    Molecular point group: c1
  Basis Set: CC-PVTZ
  Basis Set:
  Basis Set: CC-PVTZ
  Basis Set:
  @DF-RHF Final Energy:  -344.34556710665589
    Total Energy =                       -344.3455671066562900
  Basis Set: CC-PVTZ
  Basis Set:
  Basis Set: CC-PVTZ
  Basis Set:
  @DF-RHF Final Energy:  -344.34566470925910
    Total Energy =                       -344.3456647092591538
  Basis Set: CC-PVTZ
  Basis Set:
  Charge       = 0
  Multiplicity = 1
  Basis Set: CC-PVTZ
  Basis Set:

    Orbital Energies (a.u.)
    -----------------------

    Doubly Occupied:

       1A    -15.537132     2A    -15.535888     3A    -11.237370
       4A    -11.237235     5A    -11.236457     6A    -11.236421
       7A    -11.234011     8A    -11.233967     9A     -1.255691
      10A     -1.204133    11A     -1.025284    12A     -0.992036
      13A     -0.912499    14A     -0.867325    15A     -0.836731
      16A     -0.755568    17A     -0.666198    18A     -0.636151
      19A     -0.631330    20A     -0.625257    21A     -0.621536
      22A     -0.581362    23A     -0.552141    24A     -0.548520
      25A     -0.541888    26A     -0.519999    27A     -0.497935
      28A     -0.487626    29A     -0.465013    30A     -0.456402
      31A     -0.351385    32A     -0.345766

  @DF-RHF Final Energy:  -344.34566674272247

   => Energetics <=

    Nuclear Repulsion Energy =            421.5896031380009958
    One-Electron Energy =               -1302.1380268219866139
    Two-Electron Energy =                 536.2027569412633738
    DFT Exchange-Correlation Energy =       0.0000000000000000
    Empirical Dispersion Energy =           0.0000000000000000
    PCM Polarization Energy =               0.0000000000000000
    EFP Energy =                            0.0000000000000000
    Total Energy =                       -344.3456667427223010
    Molecular point group: c1
  Basis Set: CC-PVTZ
  Basis Set:

  -Total Gradient:
     Atom            X                  Y                   Z
    ------   -----------------  -----------------  -----------------
       1       -0.000024931226    -0.000029864738     0.000001871343
       2        0.000204072739    -0.004016038299    -0.000719848963
       3       -0.000526574380    -0.002000382528     0.002581143494
       4       -0.000087573603     0.003864830014     0.000056428935
       5        0.000005492653    -0.000005317168     0.000008089064
       6        0.000275176386     0.002261857808    -0.001932322507
       7        0.000055031141    -0.000076380517     0.000106673184
       8       -0.000023339344     0.000004515271    -0.000007038094
       9       -0.000003383940    -0.000011470552    -0.000024628693
      10        0.000031455253    -0.000075418106    -0.000010731030
      11        0.000005672194     0.000010658102     0.000021846344
      12        0.000026360433    -0.000018026912     0.000004288385
      13        0.000040369669     0.000050298647    -0.000094617132
      14        0.000000474449     0.000003707003    -0.000008793412
      15        0.000018208403    -0.000008962657     0.000014146500
      16       -0.000011531956     0.000021340273    -0.000003422202
      17        0.000076254032     0.000009038716    -0.000002349055
      18       -0.000031151578     0.000032094726     0.000005339491
      19       -0.000005735834    -0.000018600185     0.000001775891
      20       -0.000009725689     0.000002151517     0.000002150969
      21       -0.000013835476    -0.000001057946    -0.000000714976
      22       -0.000000784329     0.000001027529     0.000000712463

  **** Optimization is complete! (in 4 steps) ****
    Final optimized geometry and variables:
    Molecular point group: c1

    Geometry (in Angstrom), charge = 0, multiplicity = 1:

    H           -3.202529603735    -1.441408831629     0.050734219357
    C           -2.736716314675    -0.568105416744    -0.390833150985
    N           -1.308106253569    -0.544200903449    -0.131309346276
    H           -2.933898196260    -0.567585009308    -1.455174679648
    H           -3.235159960436     0.314104455357     0.008160040585
    C           -0.960197043746     0.317080073979     0.978501702089
    C           -0.517521679073    -0.209108916076    -1.298076672199
    H           -1.213312814223     1.359563581397     0.765858116543
    H           -1.528787559861     0.014746012508     1.850494946566
    C            0.520575272909     0.221113330455     1.293730501855
    H           -0.754841990113    -0.903342285246    -2.094746870087
    H           -0.738229946003     0.799343786435    -1.660156004992
    C            0.964371817348    -0.306017567200    -0.985946501623
    H            0.762162304466     0.916949422248     2.088688390022
    H            0.742995826898    -0.786335652737     1.657875301305
    N            1.312427873007     0.548486747759     0.128240650840
    H            1.533327829169     0.002161600060    -1.855377116943
    H            1.215313070145    -1.350950731171    -0.780487674723
    C            2.726854065646     0.540079195200     0.405398498100
    H            2.951303982538     1.237187887576     1.203146750979
    H            3.277643424342     0.850486653485    -0.473802288762
    H            3.095328715753    -0.445420370918     0.704390364605

  Mulliken Charges: (a.u.)
   Center  Symbol    Alpha    Beta     Spin     Total
       1     H     0.44918  0.44918  0.00000  0.10163
       2     C     3.09372  3.09372  0.00000 -0.18744
       3     N     3.61601  3.61601  0.00000 -0.23202
       4     H     0.45762  0.45762  0.00000  0.08476
       5     H     0.46505  0.46505  0.00000  0.06989
       6     C     3.03612  3.03612  0.00000 -0.07224
       7     C     3.03502  3.03502  0.00000 -0.07004
       8     H     0.46768  0.46768  0.00000  0.06464
       9     H     0.45326  0.45326  0.00000  0.09348
      10     C     3.03716  3.03716  0.00000 -0.07433
      11     H     0.45355  0.45355  0.00000  0.09289
      12     H     0.46845  0.46845  0.00000  0.06310
      13     C     3.03691  3.03691  0.00000 -0.07382
      14     H     0.45403  0.45403  0.00000  0.09194
      15     H     0.46836  0.46836  0.00000  0.06328
      16     N     3.61284  3.61284  0.00000 -0.22568
      17     H     0.45402  0.45402  0.00000  0.09196
      18     H     0.46852  0.46852  0.00000  0.06296
      19     C     3.09843  3.09843  0.00000 -0.19685
      20     H     0.45199  0.45199  0.00000  0.09601
      21     H     0.45201  0.45201  0.00000  0.09598
      22     H     0.47006  0.47006  0.00000  0.05988

   Total alpha = 32.00000, Total beta = 32.00000, Total charge = -0.00000
