  ==> Input File <==

--------------------------------------------------------------------------
set {
	reference rhf
	basis 6-31G*
}

set_num_threads( 1 )
memory 2 gb

molecule MOL {
0 1

H	 1.615969	 -1.714168	 0.157505
O	 2.016064	 -0.864478	 0.000222
C	 1.050492	 0.053836	 0.000068
C	 -0.318135	 -0.576402	 0.000164
O	 1.285279	 1.218255	 -0.000078
C	 -1.454360	 0.441875	 -0.000474
H	 -0.374042	 -1.230163	 -0.866135
H	 -0.374274	 -1.229227	 0.867154
C	 -2.826123	 -0.230780	 0.000056
H	 -1.357605	 1.085198	 -0.868380
H	 -1.357504	 1.086451	 0.866496
H	 -2.959731	 -0.858053	 -0.876869
H	 -3.619374	 0.509403	 -0.000080
H	 -2.959371	 -0.857318	 0.877556

	symmetry c1
}
set optking {
	frozen_dihedral = ("
		7 4 6 10,
		2 3 4 7
	")
}

ee = energy('scf')
oeprop('DIPOLE', 'QUADRUPOLE', 'MULLIKEN_CHARGES')
f=open( 'psi4out.xyz', 'w' )
f.write( "14  " )
f.write( str(ee) + "\n" )
f.write( MOL.save_string_xyz() )
f.close()
--------------------------------------------------------------------------

    Molecular point group: c1

    Geometry (in Angstrom), charge = 0, multiplicity = 1:

       Center              X                  Y                   Z               Mass
    ------------   -----------------  -----------------  -----------------  -----------------
           H          1.630140555235    -1.699267811118     0.155704382670     1.007825032070
           O          2.030235555235    -0.849577811118    -0.001578617330    15.994914619560
           C          1.064663555235     0.068736188882    -0.001732617330    12.000000000000
           C         -0.303963444765    -0.561501811118    -0.001636617330    12.000000000000
           O          1.299450555235     1.233155188882    -0.001878617330    15.994914619560
           C         -1.440188444765     0.456775188882    -0.002274617330    12.000000000000
           H         -0.359870444765    -1.215262811118    -0.867935617330     1.007825032070
           H         -0.360102444765    -1.214326811118     0.865353382670     1.007825032070
           C         -2.811951444765    -0.215879811118    -0.001744617330    12.000000000000
           H         -1.343433444765     1.100098188882    -0.870180617330     1.007825032070
           H         -1.343332444765     1.101351188882     0.864695382670     1.007825032070
           H         -2.945559444765    -0.843152811118    -0.878669617330     1.007825032070
           H         -3.605202444765     0.524303188882    -0.001880617330     1.007825032070
           H         -2.945199444765    -0.842417811118     0.875755382670     1.007825032070

  Charge       = 0
  Multiplicity = 1
  Basis Set: 6-31G*
  Basis Set:

    Orbital Energies (a.u.)
    -----------------------

    Doubly Occupied:

       1A    -20.615797     2A    -20.549720     3A    -11.381688
       4A    -11.253753     5A    -11.232927     6A    -11.223218
       7A     -1.471582     8A     -1.371165     9A     -1.090752
      10A     -0.981948    11A     -0.851743    12A     -0.820206
      13A     -0.721752    14A     -0.675880    15A     -0.661227
      16A     -0.619875    17A     -0.596225    18A     -0.584872
      19A     -0.554375    20A     -0.510014    21A     -0.498137
      22A     -0.490594    23A     -0.475938    24A     -0.440926

  @DF-RHF Final Energy:  -305.86789944384009

   => Energetics <=

    Nuclear Repulsion Energy =            240.4256356044939196
    One-Electron Energy =                -893.2384536669623003
    Two-Electron Energy =                 346.9449186186283214
    DFT Exchange-Correlation Energy =       0.0000000000000000
    Empirical Dispersion Energy =           0.0000000000000000
    PCM Polarization Energy =               0.0000000000000000
    EFP Energy =                            0.0000000000000000
    Total Energy =                       -305.8678994438400878

  Mulliken Charges: (a.u.)
   Center  Symbol    Alpha    Beta     Spin     Total
       1     H     0.26728  0.26728  0.00000  0.46544
       2     O     4.34890  4.34890  0.00000 -0.69780
       3     C     2.60174  2.60174  0.00000  0.79652
       4     C     3.24296  3.24296  0.00000 -0.48591
       5     O     4.26871  4.26871  0.00000 -0.53742
       6     C     3.15097  3.15097  0.00000 -0.30193
       7     H     0.40101  0.40101  0.00000  0.19798
       8     H     0.40647  0.40647  0.00000  0.18705
       9     C     3.24375  3.24375  0.00000 -0.48750
      10     H     0.40635  0.40635  0.00000  0.18730
      11     H     0.40693  0.40693  0.00000  0.18613
      12     H     0.42101  0.42101  0.00000  0.15798
      13     H     0.41251  0.41251  0.00000  0.17498
      14     H     0.42141  0.42141  0.00000  0.15719

   Total alpha = 24.00000, Total beta = 24.00000, Total charge = -0.00000
