                              Psi4 1.0.54 Driver

  ==> Input File <==

--------------------------------------------------------------------------
set {
	reference rhf
	basis cc-pvtz
}

set_num_threads( 4 )
memory 2 gb

molecule MOL {
0 1

O	 -2.071633	 -1.227563	 -0.223463
C	 -1.652164	 -0.152425	 0.058082
C	 -0.327811	 0.006324	 0.778296
C	 -2.402515	 1.108629	 -0.298924
C	 -0.464784	 0.941739	 1.985632
H	 0.041714	 -0.960856	 1.102550
H	 0.380387	 0.423168	 0.073644
C	 0.853106	 1.142158	 2.728078
H	 -1.206621	 0.546488	 2.674942
H	 -0.840050	 1.899533	 1.641871
C	 0.724418	 2.081707	 3.922167
H	 1.227253	 0.179216	 3.064650
H	 1.594636	 1.534183	 2.038158
H	 0.014554	 1.698642	 4.647692
H	 0.382140	 3.063078	 3.612126
H	 1.676044	 2.206767	 4.425327
H	 -3.240910	 0.874416	 -0.936711
H	 -1.747554	 1.818823	 -0.790984
H	 -2.760419	 1.579708	 0.610998

	symmetry c1
}
set optking {
	frozen_dihedral = ("
		5 3 2 4
	")
}

ee,wfn = optimize('scf', return_wfn=True)
oeprop( wfn, 'DIPOLE', 'QUADRUPOLE', 'MULLIKEN_CHARGES')
f=open( 'psi4out.xyz', 'w' )
f.write( "19  " )
f.write( str(ee) + "\n" )
f.write( MOL.save_string_xyz() )
f.close()
--------------------------------------------------------------------------

    Molecular point group: c1
  Charge       = 0
  Multiplicity = 1
  Basis Set: CC-PVTZ
  Basis Set:
  @DF-RHF Final Energy:  -309.17512246168593
    Total Energy =                       -309.1751224616859304
    Molecular point group: c1
  Basis Set: CC-PVTZ
  Basis Set:
  Basis Set: CC-PVTZ
  Basis Set:
  @DF-RHF Final Energy:  -309.17127592612184
    Total Energy =                       -309.1712759261217798
  Basis Set: CC-PVTZ
  Basis Set:
  Basis Set: CC-PVTZ
  Basis Set:
  @DF-RHF Final Energy:  -309.17651442639857
    Total Energy =                       -309.1765144263983984
  Basis Set: CC-PVTZ
  Basis Set:
  Basis Set: CC-PVTZ
  Basis Set:
  @DF-RHF Final Energy:  -309.17651496677610
    Total Energy =                       -309.1765149667759829
  Basis Set: CC-PVTZ
  Basis Set:
  @DF-RHF Final Energy:  -309.17662388389982
    Total Energy =                       -309.1766238838999925
  Basis Set: CC-PVTZ
  Basis Set:
  @DF-RHF Final Energy:  -309.17668624911812
    Total Energy =                       -309.1766862491180063
  Basis Set: CC-PVTZ
  Basis Set:
  Basis Set: CC-PVTZ
  Basis Set:
  @DF-RHF Final Energy:  -309.17667537541081
    Total Energy =                       -309.1766753754109232
  Basis Set: CC-PVTZ
  Basis Set:
  Basis Set: CC-PVTZ
  Basis Set:
  @DF-RHF Final Energy:  -309.17668961038299
    Total Energy =                       -309.1766896103831641
  Basis Set: CC-PVTZ
  Basis Set:
  Charge       = 0
  Multiplicity = 1
  Basis Set: CC-PVTZ
  Basis Set:

    Orbital Energies (a.u.)
    -----------------------

    Doubly Occupied:

       1A    -20.537010     2A    -11.319620     3A    -11.230714
       4A    -11.228737     5A    -11.226327     6A    -11.224921
       7A    -11.215257     8A     -1.396907     9A     -1.095747
      10A     -1.030260    11A     -0.983174    12A     -0.895466
      13A     -0.810423    14A     -0.733828    15A     -0.665133
      16A     -0.648909    17A     -0.629176    18A     -0.614816
      19A     -0.584436    20A     -0.575433    21A     -0.555675
      22A     -0.533647    23A     -0.514210    24A     -0.501445
      25A     -0.486518    26A     -0.479108    27A     -0.474291
      28A     -0.399593

  @DF-RHF Final Energy:  -309.17668974617357

   => Energetics <=

    Nuclear Repulsion Energy =            301.7079640773660003
    One-Electron Energy =               -1016.5877447073735311
    Two-Electron Energy =                 405.7030908838338519
    DFT Exchange-Correlation Energy =       0.0000000000000000
    Empirical Dispersion Energy =           0.0000000000000000
    PCM Polarization Energy =               0.0000000000000000
    EFP Energy =                            0.0000000000000000
    Total Energy =                       -309.1766897461736789
    Molecular point group: c1
  Basis Set: CC-PVTZ
  Basis Set:

  -Total Gradient:
     Atom            X                  Y                   Z
    ------   -----------------  -----------------  -----------------
       1       -0.000003122271     0.000014851821     0.000000143840
       2        0.000399390073     0.000409023591    -0.000902059425
       3       -0.000189436628    -0.000797563576     0.000639928000
       4       -0.000267569100    -0.000163771629     0.000542948682
       5        0.000053672480     0.000528735189    -0.000257233544
       6       -0.000013529303     0.000003248331    -0.000014419447
       7        0.000004926257    -0.000002752794     0.000007606415
       8       -0.000009946014     0.000012079318    -0.000007172544
       9        0.000013917720     0.000004555446    -0.000002408599
      10        0.000006825726    -0.000009133707     0.000004609266
      11        0.000003531965    -0.000009406218     0.000009637777
      12       -0.000000557834     0.000007215489    -0.000004436334
      13       -0.000005127070    -0.000000711387     0.000000183191
      14        0.000000447390     0.000006934035    -0.000000902481
      15        0.000005177270    -0.000008116610    -0.000001499704
      16       -0.000011265961    -0.000003915949    -0.000002131940
      17        0.000001328912     0.000001422531    -0.000000417078
      18        0.000008601688    -0.000003066209    -0.000004695498
      19        0.000002734698     0.000010372324    -0.000007680577

  **** Optimization is complete! (in 9 steps) ****
    Final optimized geometry and variables:
    Molecular point group: c1

    Geometry (in Angstrom), charge = 0, multiplicity = 1:

    O           -1.190504269834    -1.670579512331    -1.726414963709
    C           -0.909797908555    -0.599272190310    -1.296143560640
    C            0.414001638720    -0.360896170447    -0.596909656987
    C           -1.859707963439     0.568826787978    -1.439148522113
    C            0.315389317659     0.346388554531     0.756459817780
    H            0.893971700011    -1.324312744162    -0.491995431923
    H            1.027349960072     0.236473949552    -1.268707321499
    C            1.673063206315     0.482886753720     1.440378693374
    H           -0.356959209570    -0.208415306240     1.405731479953
    H           -0.119183677213     1.332961189313     0.632097002998
    C            1.590767111794     1.182625483661     2.792565104833
    H            2.109159622161    -0.503097046808     1.569620663263
    H            2.347835304192     1.032046622019     0.789506006158
    H            0.947805670523     0.638631854832     3.476217518427
    H            1.191006304620     2.186102244581     2.691322876641
    H            2.569099806677     1.261738685252     3.251670853393
    H           -2.634208379279     0.316207985771    -2.146824985084
    H           -1.337347704821     1.462140130677    -1.761610874800
    H           -2.314932362536     0.787110611589    -0.479588319765

  Mulliken Charges: (a.u.)
   Center  Symbol    Alpha    Beta     Spin     Total
       1     O     4.17227  4.17227  0.00000 -0.34453
       2     C     2.85807  2.85807  0.00000  0.28387
       3     C     3.09731  3.09731  0.00000 -0.19463
       4     C     3.16526  3.16526  0.00000 -0.33051
       5     C     3.10226  3.10226  0.00000 -0.20451
       6     H     0.43804  0.43804  0.00000  0.12391
       7     H     0.44785  0.44785  0.00000  0.10430
       8     C     3.08611  3.08611  0.00000 -0.17221
       9     H     0.44677  0.44677  0.00000  0.10646
      10     H     0.45080  0.45080  0.00000  0.09840
      11     C     3.14914  3.14914  0.00000 -0.29829
      12     H     0.44973  0.44973  0.00000  0.10054
      13     H     0.45338  0.45338  0.00000  0.09324
      14     H     0.45366  0.45366  0.00000  0.09267
      15     H     0.45513  0.45513  0.00000  0.08975
      16     H     0.44657  0.44657  0.00000  0.10687
      17     H     0.43200  0.43200  0.00000  0.13599
      18     H     0.44871  0.44871  0.00000  0.10258
      19     H     0.44695  0.44695  0.00000  0.10611

   Total alpha = 28.00000, Total beta = 28.00000, Total charge =  0.00000

*** Psi4 exiting successfully. Buy a developer a beer!
