  ==> Input File <==

--------------------------------------------------------------------------
set {
	reference rhf
	basis 6-31G*
}

set_num_threads( 1 )
memory 2 gb

molecule MOL {
0 1

H	 -3.489639	 -0.094624	 2.426277
C	 -2.534335	 -0.010222	 1.939394
C	 -2.152239	 1.195686	 1.371118
C	 -1.689311	 -1.107303	 1.882122
H	 -2.808538	 2.045746	 1.416238
C	 -0.923756	 1.303437	 0.745256
H	 -1.987208	 -2.041282	 2.323197
C	 -0.459115	 -1.001771	 1.256141
H	 -0.611556	 2.228654	 0.300087
C	 -0.073237	 0.205447	 0.685627
H	 0.197963	 -1.848170	 1.209478
C	 1.239129	 0.373821	 0.000060
O	 1.970282	 -0.730723	 0.000018
O	 1.603172	 1.391947	 -0.499692
C	 3.377318	 -0.566646	 -0.000065
H	 3.695437	 -0.028981	 -0.881264
H	 3.789299	 -1.563704	 0.000236
H	 3.695516	 -0.028316	 0.880770

	symmetry c1
}
set optking {
	frozen_dihedral = ("
		12 13 15 16,
		13 12 10 6
	")
}

ee = energy('scf')
oeprop('DIPOLE', 'QUADRUPOLE', 'MULLIKEN_CHARGES')
f=open( 'psi4out.xyz', 'w' )
f.write( "18  " )
f.write( str(ee) + "\n" )
f.write( MOL.save_string_xyz() )
f.close()
--------------------------------------------------------------------------

    Molecular point group: c1

    Geometry (in Angstrom), charge = 0, multiplicity = 1:

       Center              X                  Y                   Z               Mass
    ------------   -----------------  -----------------  -----------------  -----------------
           H         -3.644514805994    -0.197117721618     1.733171631344     1.007825032070
           C         -2.689210805994    -0.112715721618     1.246288631344    12.000000000000
           C         -2.307114805994     1.093192278382     0.678012631344    12.000000000000
           C         -1.844186805994    -1.209796721618     1.189016631344    12.000000000000
           H         -2.963413805994     1.943252278382     0.723132631344     1.007825032070
           C         -1.078631805994     1.200943278382     0.052150631344    12.000000000000
           H         -2.142083805994    -2.143775721618     1.630091631344     1.007825032070
           C         -0.613990805994    -1.104264721618     0.563035631344    12.000000000000
           H         -0.766431805994     2.126160278382    -0.393018368656     1.007825032070
           C         -0.228112805994     0.102953278382    -0.007478368656    12.000000000000
           H          0.043087194006    -1.950663721618     0.516372631344     1.007825032070
           C          1.084253194006     0.271327278382    -0.693045368656    12.000000000000
           O          1.815406194006    -0.833216721618    -0.693087368656    15.994914619560
           O          1.448296194006     1.289453278382    -1.192797368656    15.994914619560
           C          3.222442194006    -0.669139721618    -0.693170368656    12.000000000000
           H          3.540561194006    -0.131474721618    -1.574369368656     1.007825032070
           H          3.634423194006    -1.666197721618    -0.692869368656     1.007825032070
           H          3.540640194006    -0.130809721618     0.187664631344     1.007825032070

  Charge       = 0
  Multiplicity = 1
  Basis Set: 6-31G*
  Basis Set:

    Orbital Energies (a.u.)
    -----------------------

    Doubly Occupied:

       1A    -20.602646     2A    -20.545808     3A    -11.377965
       4A    -11.284747     5A    -11.245936     6A    -11.245593
       7A    -11.244416     8A    -11.242088     9A    -11.237857
      10A    -11.237099    11A     -1.470971    12A     -1.364048
      13A     -1.165608    14A     -1.047556    15A     -1.025216
      16A     -0.978341    17A     -0.861812    18A     -0.834802
      19A     -0.777994    20A     -0.739650    21A     -0.683082
      22A     -0.676029    23A     -0.670946    24A     -0.632053
      25A     -0.624313    26A     -0.598675    27A     -0.589530
      28A     -0.560790    29A     -0.528100    30A     -0.517109
      31A     -0.502664    32A     -0.498997    33A     -0.458211
      34A     -0.442995    35A     -0.345401    36A     -0.341380

  @DF-RHF Final Energy:  -457.34567289491133

   => Energetics <=

    Nuclear Repulsion Energy =            493.3952188876285163
    One-Electron Energy =               -1601.0807799463959782
    Two-Electron Energy =                 650.3398881638551075
    DFT Exchange-Correlation Energy =       0.0000000000000000
    Empirical Dispersion Energy =           0.0000000000000000
    PCM Polarization Energy =               0.0000000000000000
    EFP Energy =                            0.0000000000000000
    Total Energy =                       -457.3456728949123544

  Mulliken Charges: (a.u.)
   Center  Symbol    Alpha    Beta     Spin     Total
       1     H     0.39523  0.39523  0.00000  0.20954
       2     C     3.08978  3.08978  0.00000 -0.17957
       3     C     3.10709  3.10709  0.00000 -0.21418
       4     C     3.10709  3.10709  0.00000 -0.21417
       5     H     0.39530  0.39530  0.00000  0.20941
       6     C     3.08634  3.08634  0.00000 -0.17267
       7     H     0.39622  0.39622  0.00000  0.20755
       8     C     3.08720  3.08720  0.00000 -0.17440
       9     H     0.37593  0.37593  0.00000  0.24814
      10     C     3.07880  3.07880  0.00000 -0.15759
      11     H     0.38097  0.38097  0.00000  0.23805
      12     C     2.58024  2.58024  0.00000  0.83952
      13     O     4.31574  4.31574  0.00000 -0.63149
      14     O     4.28686  4.28686  0.00000 -0.57372
      15     C     3.09505  3.09505  0.00000 -0.19010
      16     H     0.40195  0.40195  0.00000  0.19610
      17     H     0.40721  0.40721  0.00000  0.18557
      18     H     0.41300  0.41300  0.00000  0.17400

   Total alpha = 36.00000, Total beta = 36.00000, Total charge =  0.00000
