  ==> Input File <==

--------------------------------------------------------------------------
set {
	reference rhf
	basis 6-31G*
}

set_num_threads( 1 )
memory 2 gb

molecule MOL {
0 1

O	 2.056993	 -0.088461	 -0.703559
C	 1.122059	 0.121804	 -0.000188
C	 -0.170150	 -0.657997	 -0.000612
O	 1.094898	 1.096484	 0.899943
C	 -1.412532	 0.227344	 -0.000452
H	 -0.153702	 -1.313099	 -0.867402
H	 -0.153924	 -1.313811	 0.865644
C	 -2.706999	 -0.587347	 -0.000541
H	 -1.388000	 0.879466	 -0.868000
H	 -1.387972	 0.879138	 0.867341
C	 -3.956778	 0.291888	 0.000910
H	 -2.726114	 -1.239230	 -0.871609
H	 -2.725217	 -1.240844	 0.869333
H	 -3.985213	 0.933254	 -0.875158
H	 -4.860123	 -0.309979	 0.000519
H	 -3.984618	 0.931166	 0.878514
C	 2.250832	 1.907765	 1.003767
H	 3.110097	 1.311911	 1.275995
H	 2.036355	 2.629569	 1.776391
H	 2.448572	 2.409157	 0.067278

	symmetry c1
}
set optking {
	frozen_dihedral = ("
		9 5 8 12,
		9 5 3 6,
		1 2 4 17
	")
}

ee = energy('scf')
oeprop('DIPOLE', 'QUADRUPOLE', 'MULLIKEN_CHARGES')
f=open( 'psi4out.xyz', 'w' )
f.write( "20  " )
f.write( str(ee) + "\n" )
f.write( MOL.save_string_xyz() )
f.close()
--------------------------------------------------------------------------

    Molecular point group: c1

    Geometry (in Angstrom), charge = 0, multiplicity = 1:

       Center              X                  Y                   Z               Mass
    ------------   -----------------  -----------------  -----------------  -----------------
           O          2.246047893603    -0.401658036702    -0.861367544246    15.994914619560
           C          1.311113893603    -0.191393036702    -0.157996544246    12.000000000000
           C          0.018904893603    -0.971194036702    -0.158420544246    12.000000000000
           O          1.283952893603     0.783286963298     0.742134455754    15.994914619560
           C         -1.223477106397    -0.085853036702    -0.158260544246    12.000000000000
           H          0.035352893603    -1.626296036702    -1.025210544246     1.007825032070
           H          0.035130893603    -1.627008036702     0.707835455754     1.007825032070
           C         -2.517944106397    -0.900544036702    -0.158349544246    12.000000000000
           H         -1.198945106397     0.566268963298    -1.025808544246     1.007825032070
           H         -1.198917106397     0.565940963298     0.709532455754     1.007825032070
           C         -3.767723106397    -0.021309036702    -0.156898544246    12.000000000000
           H         -2.537059106397    -1.552427036702    -1.029417544246     1.007825032070
           H         -2.536162106397    -1.554041036702     0.711524455754     1.007825032070
           H         -3.796158106397     0.620056963298    -1.032966544246     1.007825032070
           H         -4.671068106397    -0.623176036702    -0.157289544246     1.007825032070
           H         -3.795563106397     0.617968963298     0.720705455754     1.007825032070
           C          2.439886893603     1.594567963298     0.845958455754    12.000000000000
           H          3.299151893603     0.998713963298     1.118186455754     1.007825032070
           H          2.225409893603     2.316371963298     1.618582455754     1.007825032070
           H          2.637626893603     2.095959963298    -0.090530544246     1.007825032070

  Charge       = 0
  Multiplicity = 1
  Basis Set: 6-31G*
  Basis Set:

    Orbital Energies (a.u.)
    -----------------------

    Doubly Occupied:

       1A    -20.604673     2A    -20.544196     3A    -11.371796
       4A    -11.281265     5A    -11.234656     6A    -11.225511
       7A    -11.223173     8A    -11.213686     9A     -1.469616
      10A     -1.362074    11A     -1.093093    12A     -1.025249
      13A     -0.966156    14A     -0.891270    15A     -0.807121
      16A     -0.774606    17A     -0.694056    18A     -0.681629
      19A     -0.673029    20A     -0.646586    21A     -0.596370
      22A     -0.591395    23A     -0.577407    24A     -0.548372
      25A     -0.532390    26A     -0.523843    27A     -0.505317
      28A     -0.488942    29A     -0.481984    30A     -0.471972
      31A     -0.455235    32A     -0.428563

  @DF-RHF Final Energy:  -383.93961627138043

   => Energetics <=

    Nuclear Repulsion Energy =            384.5358045797477757
    One-Electron Energy =               -1284.9805212649180248
    Two-Electron Energy =                 516.5051004137901600
    DFT Exchange-Correlation Energy =       0.0000000000000000
    Empirical Dispersion Energy =           0.0000000000000000
    PCM Polarization Energy =               0.0000000000000000
    EFP Energy =                            0.0000000000000000
    Total Energy =                       -383.9396162713801459

  Mulliken Charges: (a.u.)
   Center  Symbol    Alpha    Beta     Spin     Total
       1     O     4.28660  4.28660  0.00000 -0.57321
       2     C     2.61050  2.61050  0.00000  0.77899
       3     C     3.20294  3.20294  0.00000 -0.40589
       4     O     4.30224  4.30224  0.00000 -0.60447
       5     C     3.15983  3.15983  0.00000 -0.31965
       6     H     0.39897  0.39897  0.00000  0.20206
       7     H     0.40270  0.40270  0.00000  0.19460
       8     C     3.15379  3.15379  0.00000 -0.30758
       9     H     0.41688  0.41688  0.00000  0.16624
      10     H     0.40639  0.40639  0.00000  0.18721
      11     C     3.23984  3.23984  0.00000 -0.47968
      12     H     0.42078  0.42078  0.00000  0.15845
      13     H     0.42134  0.42134  0.00000  0.15731
      14     H     0.42036  0.42036  0.00000  0.15928
      15     H     0.41772  0.41772  0.00000  0.16457
      16     H     0.42039  0.42039  0.00000  0.15921
      17     C     3.09237  3.09237  0.00000 -0.18473
      18     H     0.40879  0.40879  0.00000  0.18242
      19     H     0.40886  0.40886  0.00000  0.18229
      20     H     0.40871  0.40871  0.00000  0.18257

   Total alpha = 32.00000, Total beta = 32.00000, Total charge =  0.00000
