                              Psi4 1.0.54 Driver

  ==> Input File <==

--------------------------------------------------------------------------
set {
	reference rhf
	basis cc-pvtz
}

set_num_threads( 4 )
memory 2 gb

molecule MOL {
0 1

H	 -2.656159	 1.080741	 2.386500
O	 -1.861809	 0.568962	 2.414925
C	 -1.177105	 0.791827	 1.296690
C	 0.106697	 0.007757	 1.263280
O	 -1.568892	 1.523372	 0.454481
C	 0.926581	 0.227233	 0.000178
H	 -0.154789	 -1.038159	 1.387425
H	 0.669121	 0.278488	 2.151031
C	 2.220156	 -0.582071	 -0.000088
H	 0.328234	 -0.035590	 -0.864888
H	 1.153163	 1.282683	 -0.100357
C	 3.466689	 0.296012	 -0.000457
H	 2.239073	 -1.234095	 -0.869382
H	 2.239505	 -1.233985	 0.869270
H	 3.493549	 0.935857	 -0.875887
H	 4.368821	 -0.304526	 -0.001199
H	 3.494559	 0.935166	 0.875458

	symmetry c1
}
set optking {
	frozen_dihedral = ("
		10 6 9 13
	")
}

ee,wfn = optimize('scf', return_wfn=True)
oeprop( wfn, 'DIPOLE', 'QUADRUPOLE', 'MULLIKEN_CHARGES')
f=open( 'psi4out.xyz', 'w' )
f.write( "17  " )
f.write( str(ee) + "\n" )
f.write( MOL.save_string_xyz() )
f.close()
--------------------------------------------------------------------------

    Molecular point group: c1
  Charge       = 0
  Multiplicity = 1
  Basis Set: CC-PVTZ
  Basis Set:
  @DF-RHF Final Energy:  -345.04283140935991
    Total Energy =                       -345.0428314093599056
    Molecular point group: c1
  Basis Set: CC-PVTZ
  Basis Set:
  Basis Set: CC-PVTZ
  Basis Set:
  @DF-RHF Final Energy:  -345.04306861118340
    Total Energy =                       -345.0430686111834575
  Basis Set: CC-PVTZ
  Basis Set:
  Basis Set: CC-PVTZ
  Basis Set:
  @DF-RHF Final Energy:  -345.04253630940042
    Total Energy =                       -345.0425363094002478
  Basis Set: CC-PVTZ
  Basis Set:
  Basis Set: CC-PVTZ
  Basis Set:
  @DF-RHF Final Energy:  -345.04315168561794
    Total Energy =                       -345.0431516856179996
  Basis Set: CC-PVTZ
  Basis Set:
  Basis Set: CC-PVTZ
  Basis Set:
  @DF-RHF Final Energy:  -345.04316879539761
    Total Energy =                       -345.0431687953977757
  Basis Set: CC-PVTZ
  Basis Set:
  Charge       = 0
  Multiplicity = 1
  Basis Set: CC-PVTZ
  Basis Set:

    Orbital Energies (a.u.)
    -----------------------

    Doubly Occupied:

       1A    -20.604119     2A    -20.540831     3A    -11.373544
       4A    -11.239977     5A    -11.221004     6A    -11.220403
       7A    -11.211933     8A     -1.477682     9A     -1.369244
      10A     -1.090653    11A     -1.018812    12A     -0.915263
      13A     -0.827450    14A     -0.789657    15A     -0.703907
      16A     -0.691365    17A     -0.667426    18A     -0.622651
      19A     -0.604758    20A     -0.589636    21A     -0.567418
      22A     -0.530100    23A     -0.525337    24A     -0.484614
      25A     -0.478547    26A     -0.478417    27A     -0.466869
      28A     -0.445576

  @DF-RHF Final Energy:  -345.04316940847701

   => Energetics <=

    Nuclear Repulsion Energy =            305.5876970456935737
    One-Electron Energy =               -1075.7473457559021881
    Two-Electron Energy =                 425.1164793017316015
    DFT Exchange-Correlation Energy =       0.0000000000000000
    Empirical Dispersion Energy =           0.0000000000000000
    PCM Polarization Energy =               0.0000000000000000
    EFP Energy =                            0.0000000000000000
    Total Energy =                       -345.0431694084769561
    Molecular point group: c1
  Basis Set: CC-PVTZ
  Basis Set:

  -Total Gradient:
     Atom            X                  Y                   Z
    ------   -----------------  -----------------  -----------------
       1       -0.000005053386    -0.000003519539     0.000007998568
       2       -0.000059536040     0.000018953363     0.000038864779
       3        0.000081708543    -0.000008774087    -0.000057433920
       4       -0.000017767523     0.000018990559     0.000005915575
       5       -0.000012171890    -0.000019000964     0.000031335309
       6       -0.000503676906    -0.000954130249     0.000678131095
       7       -0.000002660932     0.000002520015    -0.000003401215
       8       -0.000008988965    -0.000006394610    -0.000007538957
       9        0.000523209413     0.000934131698    -0.000696278510
      10        0.000385136422     0.000615884530    -0.000450909625
      11        0.000011146252    -0.000002865505     0.000004282693
      12        0.000006685025     0.000017839821     0.000001367032
      13       -0.000374738365    -0.000613419847     0.000444921935
      14       -0.000011399749     0.000011379439     0.000002504194
      15        0.000000114886    -0.000007524046    -0.000001773609
      16       -0.000007273202    -0.000006286526     0.000008408466
      17       -0.000004733585     0.000002215949    -0.000006393811

  **** Optimization is complete! (in 6 steps) ****
    Final optimized geometry and variables:
    Molecular point group: c1

    Geometry (in Angstrom), charge = 0, multiplicity = 1:

    H           -2.918685443295     0.665582959572     1.595637367169
    O           -2.128163109615     0.147653693989     1.619645000344
    C           -1.445408856092     0.369982629736     0.499917983796
    C           -0.166305842965    -0.421628956479     0.460052874445
    O           -1.833980697612     1.109003278352    -0.337279717392
    C            0.651120337185    -0.205353476024    -0.806455602880
    H           -0.432930951135    -1.466078252749     0.583642882025
    H            0.401870352524    -0.155216187584     1.345648885441
    C            1.972008954755    -1.002357694925    -0.808315187584
    H            0.047943627804    -0.468033093485    -1.665729203995
    H            0.857292867716     0.852788201845    -0.910511212094
    C            3.214775872605    -0.117245082425    -0.797700047269
    H            2.004523283636    -1.653141436482    -1.674688583145
    H            2.005294179194    -1.662606181195     0.053023439840
    H            3.247202045050     0.518659066436    -1.675578637147
    H            4.120721739837    -0.712331280217    -0.784174603544
    H            3.228339919058     0.527289206292     0.075330454317

  Mulliken Charges: (a.u.)
   Center  Symbol    Alpha    Beta     Spin     Total
       1     H     0.38234  0.38234  0.00000  0.23532
       2     O     4.16017  4.16017  0.00000 -0.32035
       3     C     2.80650  2.80650  0.00000  0.38700
       4     C     3.10999  3.10999  0.00000 -0.21998
       5     O     4.19093  4.19093  0.00000 -0.38185
       6     C     3.09068  3.09068  0.00000 -0.18135
       7     H     0.43691  0.43691  0.00000  0.12618
       8     H     0.43748  0.43748  0.00000  0.12504
       9     C     3.09105  3.09105  0.00000 -0.18211
      10     H     0.44111  0.44111  0.00000  0.11777
      11     H     0.44611  0.44611  0.00000  0.10779
      12     C     3.14610  3.14610  0.00000 -0.29221
      13     H     0.44729  0.44729  0.00000  0.10541
      14     H     0.45610  0.45610  0.00000  0.08780
      15     H     0.45243  0.45243  0.00000  0.09513
      16     H     0.44911  0.44911  0.00000  0.10177
      17     H     0.45568  0.45568  0.00000  0.08864

   Total alpha = 28.00000, Total beta = 28.00000, Total charge = -0.00000

*** Psi4 exiting successfully. Buy a developer a beer!
