  ==> Input File <==

--------------------------------------------------------------------------
set {
	reference rhf
	basis cc-pvtz
}

set_num_threads( 4 )
memory 2 gb

molecule MOL {
0 1

H	 0.191475	 -2.447021	 0.571808
C	 -0.660349	 -1.778644	 0.710072
N	 -0.537714	 -0.645117	 0.000000
O	 -1.572281	 -2.063950	 1.419790
C	 -1.522613	 0.412524	 0.000000
H	 0.277927	 -0.539339	 -0.550931
H	 -2.150256	 0.356137	 -0.880771
H	 -1.005621	 1.357208	 0.000000
H	 -2.150256	 0.356137	 0.880771

	symmetry c1
}
set optking {
	frozen_dihedral = ("
		6 3 5 7
	")
}

ee = optimize('scf')
oeprop('DIPOLE', 'QUADRUPOLE', 'MULLIKEN_CHARGES')
f=open( 'psi4out.xyz', 'w' )
f.write( "9  " )
f.write( str(ee) + "\n" )
f.write( MOL.save_string_xyz() )
f.close()
--------------------------------------------------------------------------

    Molecular point group: c1
  Charge       = 0
  Multiplicity = 1
  Basis Set: CC-PVTZ
  Basis Set:
  @DF-RHF Final Energy:  -208.04327879699429
    Total Energy =                       -208.0432787969943718
    Molecular point group: c1
  Basis Set: CC-PVTZ
  Basis Set:
  Basis Set: CC-PVTZ
  Basis Set:
  @DF-RHF Final Energy:  -208.04356075351393
    Total Energy =                       -208.0435607535139866
  Basis Set: CC-PVTZ
  Basis Set:
  Basis Set: CC-PVTZ
  Basis Set:
  @DF-RHF Final Energy:  -208.04356880178705
    Total Energy =                       -208.0435688017871030
  Basis Set: CC-PVTZ
  Basis Set:
  Basis Set: CC-PVTZ
  Basis Set:
  @DF-RHF Final Energy:  -208.04360673490697
    Total Energy =                       -208.0436067349068594
  Basis Set: CC-PVTZ
  Basis Set:
  Basis Set: CC-PVTZ
  Basis Set:
  @DF-RHF Final Energy:  -208.04361634253308
    Total Energy =                       -208.0436163425330562
  Basis Set: CC-PVTZ
  Basis Set:
  Basis Set: CC-PVTZ
  Basis Set:
  @DF-RHF Final Energy:  -208.04363357944464
    Total Energy =                       -208.0436335794446450
  Basis Set: CC-PVTZ
  Basis Set:
  Basis Set: CC-PVTZ
  Basis Set:
  @DF-RHF Final Energy:  -208.04363935634774
    Total Energy =                       -208.0436393563477964
  Basis Set: CC-PVTZ
  Basis Set:
  Charge       = 0
  Multiplicity = 1
  Basis Set: CC-PVTZ
  Basis Set:

    Orbital Energies (a.u.)
    -----------------------

    Doubly Occupied:

       1A    -20.516628     2A    -15.584818     3A    -11.337136
       4A    -11.259621     5A     -1.393991     6A     -1.239731
       7A     -0.970081     8A     -0.808399     9A     -0.748777
      10A     -0.646331    11A     -0.629632    12A     -0.596526
      13A     -0.556688    14A     -0.540468    15A     -0.428589
      16A     -0.396393

  @DF-RHF Final Energy:  -208.04363944746098

   => Energetics <=

    Nuclear Repulsion Energy =            122.7763743260028377
    One-Electron Energy =                -526.3324092489215218
    Two-Electron Energy =                 195.5123954754577653
    DFT Exchange-Correlation Energy =       0.0000000000000000
    Empirical Dispersion Energy =           0.0000000000000000
    PCM Polarization Energy =               0.0000000000000000
    EFP Energy =                            0.0000000000000000
    Total Energy =                       -208.0436394474609187
    Molecular point group: c1
  Basis Set: CC-PVTZ
  Basis Set:

  -Total Gradient:
     Atom            X                  Y                   Z
    ------   -----------------  -----------------  -----------------
       1       -0.000002713462    -0.000011334383     0.000007516327
       2        0.000025333859     0.000019348814    -0.000022264182
       3        0.000131585747     0.000138544527     0.000129803946
       4       -0.000019683111    -0.000021155324     0.000020708543
       5       -0.000133376163    -0.000116331679     0.000074173773
       6       -0.000079769367    -0.000085344707    -0.000121122045
       7        0.000091284868     0.000084703757    -0.000086690539
       8       -0.000008283460    -0.000010595173    -0.000005784538
       9       -0.000004378911     0.000002164169     0.000003658714

  **** Optimization is complete! (in 8 steps) ****
    Final optimized geometry and variables:
    Molecular point group: c1

    Geometry (in Angstrom), charge = 0, multiplicity = 1:

    H            1.262380081489    -1.453145698145     0.051978671110
    C            0.413429054078    -0.778148654075     0.176374413635
    N            0.579360262455     0.382328577713    -0.479834706426
    O           -0.530919264480    -1.069824967929     0.839302067317
    C           -0.429971330220     1.416387477313    -0.518992494519
    H            1.373880420487     0.466599499035    -1.064339113225
    H           -1.094982673705     1.300676486017    -1.367267749899
    H            0.047313738270     2.384858443055    -0.578820162863
    H           -1.015385930669     1.368302359993     0.384601755054

  Mulliken Charges: (a.u.)
   Center  Symbol    Alpha    Beta     Spin     Total
       1     H     0.46340  0.46340  0.00000  0.07320
       2     C     2.88082  2.88082  0.00000  0.23837
       3     N     3.60695  3.60695  0.00000 -0.21391
       4     O     4.21422  4.21422  0.00000 -0.42843
       5     C     3.07923  3.07923  0.00000 -0.15845
       6     H     0.41031  0.41031  0.00000  0.17938
       7     H     0.45543  0.45543  0.00000  0.08913
       8     H     0.45378  0.45378  0.00000  0.09243
       9     H     0.43586  0.43586  0.00000  0.12828

   Total alpha = 16.00000, Total beta = 16.00000, Total charge = -0.00000
