  ==> Input File <==

--------------------------------------------------------------------------
set {
	reference rhf
	basis 6-31G*
}

set_num_threads( 1 )
memory 2 gb

molecule MOL {
0 1

H	 -0.000158	 1.970498	 0.756846
O	 -0.000074	 1.880206	 -0.189275
C	 -0.000015	 0.544847	 -0.545111
C	 -1.278788	 -0.123820	 -0.051541
C	 1.278802	 -0.123718	 -0.051505
H	 -0.000001	 0.490777	 -1.623619
F	 -1.870375	 -0.739857	 -1.052574
F	 -1.045564	 -1.011096	 0.892232
F	 -2.124979	 0.774504	 0.426553
F	 2.323327	 0.466644	 -0.591854
F	 1.326242	 -1.401483	 -0.363667
F	 1.388946	 -0.015632	 1.262939

	symmetry c1
}
set optking {
	frozen_dihedral = ("
		6 3 2 1
	")
}

ee = energy('scf')
oeprop('DIPOLE', 'QUADRUPOLE', 'MULLIKEN_CHARGES')
f=open( 'psi4out.xyz', 'w' )
f.write( "12  " )
f.write( str(ee) + "\n" )
f.write( MOL.save_string_xyz() )
f.close()
--------------------------------------------------------------------------

    Molecular point group: c1

    Geometry (in Angstrom), charge = 0, multiplicity = 1:

       Center              X                  Y                   Z               Mass
    ------------   -----------------  -----------------  -----------------  -----------------
           H          0.000121814021     1.973393376775     0.761493841515     1.007825032070
           O          0.000205814021     1.883101376775    -0.184627158485    15.994914619560
           C          0.000264814021     0.547742376775    -0.540463158485    12.000000000000
           C         -1.278508185979    -0.120924623225    -0.046893158485    12.000000000000
           C          1.279081814021    -0.120822623225    -0.046857158485    12.000000000000
           H          0.000278814021     0.493672376775    -1.618971158485     1.007825032070
           F         -1.870095185979    -0.736961623225    -1.047926158485    18.998403224000
           F         -1.045284185979    -1.008200623225     0.896879841515    18.998403224000
           F         -2.124699185979     0.777399376775     0.431200841515    18.998403224000
           F          2.323606814021     0.469539376775    -0.587206158485    18.998403224000
           F          1.326521814021    -1.398587623225    -0.359019158485    18.998403224000
           F          1.389225814021    -0.012736623225     1.267586841515    18.998403224000

  Charge       = 0
  Multiplicity = 1
  Basis Set: 6-31G*
  Basis Set:

    Orbital Energies (a.u.)
    -----------------------

    Doubly Occupied:

       1A    -26.362658     2A    -26.362415     3A    -26.362046
       4A    -26.359036     5A    -26.358782     6A    -26.357912
       7A    -20.613659     8A    -11.525550     9A    -11.525492
      10A    -11.347183    11A     -1.764998    12A     -1.758376
      13A     -1.661103    14A     -1.659612    15A     -1.656047
      16A     -1.654859    17A     -1.433294    18A     -1.101381
      19A     -0.997234    20A     -0.936900    21A     -0.866542
      22A     -0.861467    23A     -0.850390    24A     -0.845825
      25A     -0.834740    26A     -0.811451    27A     -0.733967
      28A     -0.730660    29A     -0.728867    30A     -0.723224
      31A     -0.687931    32A     -0.684674    33A     -0.682794
      34A     -0.677265    35A     -0.668731    36A     -0.662096
      37A     -0.656746    38A     -0.649438    39A     -0.615476
      40A     -0.548911    41A     -0.505740

  @DF-RHF Final Energy:  -786.27096754909587

   => Energetics <=

    Nuclear Repulsion Energy =            670.9833592234809885
    One-Electron Energy =               -2428.8575640744011253
    Two-Electron Energy =                 971.6032373018251747
    DFT Exchange-Correlation Energy =       0.0000000000000000
    Empirical Dispersion Energy =           0.0000000000000000
    PCM Polarization Energy =               0.0000000000000000
    EFP Energy =                            0.0000000000000000
    Total Energy =                       -786.2709675490950758

  Mulliken Charges: (a.u.)
   Center  Symbol    Alpha    Beta     Spin     Total
       1     H     0.26790  0.26790  0.00000  0.46421
       2     O     4.35938  4.35938  0.00000 -0.71876
       3     C     3.07214  3.07214  0.00000 -0.14427
       4     C     2.43031  2.43031  0.00000  1.13938
       5     C     2.43667  2.43667  0.00000  1.12666
       6     H     0.37053  0.37053  0.00000  0.25893
       7     F     4.67702  4.67702  0.00000 -0.35403
       8     F     4.67490  4.67490  0.00000 -0.34980
       9     F     4.67765  4.67765  0.00000 -0.35531
      10     F     4.67495  4.67495  0.00000 -0.34989
      11     F     4.67568  4.67568  0.00000 -0.35136
      12     F     4.68287  4.68287  0.00000 -0.36575

   Total alpha = 41.00000, Total beta = 41.00000, Total charge =  0.00000
