  ==> Input File <==

--------------------------------------------------------------------------
set {
	reference rhf
	basis cc-pvtz
}

set_num_threads( 4 )
memory 2 gb

molecule MOL {
0 1

H	 -2.498963	 -0.741158	 -0.729149
O	 -2.346257	 -0.289210	 0.080372
C	 -1.183935	 0.486039	 -0.009831
C	 0.062853	 -0.375310	 0.027457
H	 -1.178881	 1.094526	 -0.908634
H	 -1.184406	 1.155156	 0.838676
O	 1.172093	 0.457955	 -0.054438
H	 0.052476	 -1.081302	 -0.804627
H	 0.076323	 -0.955658	 0.947560
C	 0.873713	 1.811354	 -0.156915
H	 0.317360	 2.162373	 0.709417
H	 1.806670	 2.352675	 -0.213928
H	 0.290006	 2.022993	 -1.049672

	symmetry c1
}
set optking {
	frozen_dihedral = ("
		10 7 4 8
	")
}

ee = optimize('scf')
oeprop('DIPOLE', 'QUADRUPOLE', 'MULLIKEN_CHARGES')
f=open( 'psi4out.xyz', 'w' )
f.write( "13  " )
f.write( str(ee) + "\n" )
f.write( MOL.save_string_xyz() )
f.close()
--------------------------------------------------------------------------

    Molecular point group: c1
  Charge       = 0
  Multiplicity = 1
  Basis Set: CC-PVTZ
  Basis Set:
  @DF-RHF Final Energy:  -268.03227721100774
    Total Energy =                       -268.0322772110079086
    Molecular point group: c1
  Basis Set: CC-PVTZ
  Basis Set:
  Basis Set: CC-PVTZ
  Basis Set:
  @DF-RHF Final Energy:  -268.03832367886923
    Total Energy =                       -268.0383236788692329
  Basis Set: CC-PVTZ
  Basis Set:
  Basis Set: CC-PVTZ
  Basis Set:
  @DF-RHF Final Energy:  -268.04567900322468
    Total Energy =                       -268.0456790032247341
  Basis Set: CC-PVTZ
  Basis Set:
  Basis Set: CC-PVTZ
  Basis Set:
  @DF-RHF Final Energy:  -268.04873336392438
    Total Energy =                       -268.0487333639244980
  Basis Set: CC-PVTZ
  Basis Set:
  @DF-RHF Final Energy:  -268.04940241788552
    Total Energy =                       -268.0494024178855739
  @DF-RHF Final Energy:  -268.05014362791906
    Total Energy =                       -268.0501436279192262
  Basis Set: CC-PVTZ
  Basis Set:
  @DF-RHF Final Energy:  -268.05028762810082
    Total Energy =                       -268.0502876281008184
  Basis Set: CC-PVTZ
  Basis Set:
  Basis Set: CC-PVTZ
  Basis Set:
  @DF-RHF Final Energy:  -268.05030287302230
    Total Energy =                       -268.0503028730221331
  Basis Set: CC-PVTZ
  Basis Set:
  Basis Set: CC-PVTZ
  Basis Set:
  @DF-RHF Final Energy:  -268.05030394749156
    Total Energy =                       -268.0503039474915568
  Basis Set: CC-PVTZ
  Basis Set:
  Charge       = 0
  Multiplicity = 1
  Basis Set: CC-PVTZ
  Basis Set:

    Orbital Energies (a.u.)
    -----------------------

    Doubly Occupied:

       1A    -20.558487     2A    -20.549440     3A    -11.276133
       4A    -11.270217     5A    -11.268185     6A     -1.383925
       7A     -1.371794     8A     -1.014209     9A     -0.940268
      10A     -0.828519    11A     -0.714443    12A     -0.677170
      13A     -0.664858    14A     -0.634743    15A     -0.599819
      16A     -0.563921    17A     -0.549852    18A     -0.517517
      19A     -0.490994    20A     -0.432314    21A     -0.411978

  @DF-RHF Final Energy:  -268.05030403807723

   => Energetics <=

    Nuclear Repulsion Energy =            192.8425624219286476
    One-Electron Energy =                -748.3481582761774007
    Two-Electron Energy =                 287.4552918161717230
    DFT Exchange-Correlation Energy =       0.0000000000000000
    Empirical Dispersion Energy =           0.0000000000000000
    PCM Polarization Energy =               0.0000000000000000
    EFP Energy =                            0.0000000000000000
    Total Energy =                       -268.0503040380770585
    Molecular point group: c1
  Basis Set: CC-PVTZ
  Basis Set:

  -Total Gradient:
     Atom            X                  Y                   Z
    ------   -----------------  -----------------  -----------------
       1       -0.000008234491    -0.000000196662     0.000000498228
       2       -0.000003455497    -0.000006006402    -0.000017231147
       3       -0.000003045958    -0.000002861078     0.000030910351
       4       -0.000457401217     0.000629115494    -0.000173059062
       5       -0.000001575679    -0.000004003541    -0.000001041465
       6        0.000001012987     0.000003728678    -0.000005546563
       7        0.000121178806    -0.000188955443    -0.000855982904
       8        0.000367753963    -0.000480433094     0.000397957366
       9        0.000001826054     0.000010283594    -0.000000179763
      10       -0.000028175832     0.000043718030     0.000627091156
      11        0.000009589374     0.000004880382    -0.000001566263
      12       -0.000000675392    -0.000016061098     0.000001594707
      13        0.000001202884     0.000006791141    -0.000003444641

  **** Optimization is complete! (in 10 steps) ****
    Final optimized geometry and variables:
    Molecular point group: c1

    Geometry (in Angstrom), charge = 0, multiplicity = 1:

    H           -2.098235788139    -1.416484222612    -0.655263882571
    O           -2.053178078315    -0.905258141988     0.132469746967
    C           -1.017869060611     0.032341263972     0.042001612938
    C            0.325954713765    -0.687242589844     0.032200663233
    H           -1.139421812101     0.655237893136    -0.838178720596
    H           -1.111475485380     0.667211844740     0.911125863352
    O            1.482594500072     0.101538198765    -0.028055978329
    H            0.343578817244    -1.368544167932    -0.815795518657
    H            0.381207610157    -1.295292540531     0.927510645032
    C            1.402067589766     1.487341709412    -0.133144248135
    H            0.877570773376     1.938825069274     0.702933690688
    H            2.417619660702     1.855419080117    -0.130857801246
    H            0.929058670533     1.807520751752    -1.056784593042

  Mulliken Charges: (a.u.)
   Center  Symbol    Alpha    Beta     Spin     Total
       1     H     0.39303  0.39303  0.00000  0.21393
       2     O     4.19901  4.19901  0.00000 -0.39802
       3     C     2.99397  2.99397  0.00000  0.01206
       4     C     2.96706  2.96706  0.00000  0.06589
       5     H     0.46612  0.46612  0.00000  0.06777
       6     H     0.44784  0.44784  0.00000  0.10432
       7     O     4.18157  4.18157  0.00000 -0.36314
       8     H     0.47427  0.47427  0.00000  0.05145
       9     H     0.45903  0.45903  0.00000  0.08193
      10     C     3.03752  3.03752  0.00000 -0.07504
      11     H     0.46946  0.46946  0.00000  0.06109
      12     H     0.44025  0.44025  0.00000  0.11951
      13     H     0.47087  0.47087  0.00000  0.05826

   Total alpha = 21.00000, Total beta = 21.00000, Total charge = -0.00000
