  ==> Input File <==

--------------------------------------------------------------------------
set {
	reference rhf
	basis cc-pvtz
}

set_num_threads( 4 )
memory 2 gb

molecule MOL {
0 1

H	 1.974850	 -3.594059	 -3.719716
C	 1.794199	 -3.230222	 -2.715178
C	 0.575541	 -2.314885	 -2.674154
H	 1.657617	 -4.093069	 -2.071845
H	 2.688809	 -2.712033	 -2.386286
C	 0.285399	 -1.779579	 -1.279797
H	 -0.300597	 -2.844192	 -3.031900
H	 0.730235	 -1.479189	 -3.352578
N	 -0.889000	 -0.934344	 -1.269871
H	 0.106203	 -2.612391	 -0.606386
H	 1.170457	 -1.260831	 -0.899460
C	 -1.215959	 -0.382435	 0.027143
H	 -0.777918	 -0.195312	 -1.932299
C	 -2.451944	 0.502410	 -0.038737
H	 -1.402473	 -1.208444	 0.706922
H	 -0.385227	 0.186858	 0.454772
C	 -3.752217	 -0.292550	 0.005776
H	 -2.407325	 1.093801	 -0.946480
H	 -2.431979	 1.206234	 0.790023
H	 -3.817783	 -0.982946	 -0.828547
H	 -4.612613	 0.364348	 -0.042306
H	 -3.830160	 -0.871666	 0.919868

	symmetry c1
}
set optking {
	frozen_dihedral = ("
		15 12 14 18
	")
}

ee = optimize('scf')
oeprop('DIPOLE', 'QUADRUPOLE', 'MULLIKEN_CHARGES')
f=open( 'psi4out.xyz', 'w' )
f.write( "22  " )
f.write( str(ee) + "\n" )
f.write( MOL.save_string_xyz() )
f.close()
--------------------------------------------------------------------------

    Molecular point group: c1
  Charge       = 0
  Multiplicity = 1
  Basis Set: CC-PVTZ
  Basis Set:
  @DF-RHF Final Energy:  -290.48814926537551
    Total Energy =                       -290.4881492653756823
    Molecular point group: c1
  Basis Set: CC-PVTZ
  Basis Set:
  Basis Set: CC-PVTZ
  Basis Set:
  @DF-RHF Final Energy:  -290.48846414003799
    Total Energy =                       -290.4884641400382748
  Basis Set: CC-PVTZ
  Basis Set:
  Basis Set: CC-PVTZ
  Basis Set:
  @DF-RHF Final Energy:  -290.48852625283763
    Total Energy =                       -290.4885262528375165
  Basis Set: CC-PVTZ
  Basis Set:
  Basis Set: CC-PVTZ
  Basis Set:
  @DF-RHF Final Energy:  -290.48852827713029
    Total Energy =                       -290.4885282771302855
  Basis Set: CC-PVTZ
  Basis Set:
  Charge       = 0
  Multiplicity = 1
  Basis Set: CC-PVTZ
  Basis Set:

    Orbital Energies (a.u.)
    -----------------------

    Doubly Occupied:

       1A    -15.528759     2A    -11.236660     3A    -11.236516
       4A    -11.212279     5A    -11.212023     6A    -11.207870
       7A    -11.200128     8A     -1.207712     9A     -1.059279
      10A     -1.023718    11A     -0.926801    12A     -0.872917
      13A     -0.809423    14A     -0.792712    15A     -0.662586
      16A     -0.635566    17A     -0.613995    18A     -0.610113
      19A     -0.571593    20A     -0.564183    21A     -0.540251
      22A     -0.524847    23A     -0.503388    24A     -0.488687
      25A     -0.479494    26A     -0.473788    27A     -0.467472
      28A     -0.451732    29A     -0.361217

  @DF-RHF Final Energy:  -290.48852856110102

   => Energetics <=

    Nuclear Repulsion Energy =            317.2709268745344389
    One-Electron Energy =               -1020.5675045533535013
    Two-Electron Energy =                 412.8080491177182694
    DFT Exchange-Correlation Energy =       0.0000000000000000
    Empirical Dispersion Energy =           0.0000000000000000
    PCM Polarization Energy =               0.0000000000000000
    EFP Energy =                            0.0000000000000000
    Total Energy =                       -290.4885285611007930
    Molecular point group: c1
  Basis Set: CC-PVTZ
  Basis Set:

  -Total Gradient:
     Atom            X                  Y                   Z
    ------   -----------------  -----------------  -----------------
       1       -0.000001432776    -0.000000202402     0.000000611404
       2       -0.000002686340     0.000001244891     0.000001316767
       3        0.000002382072     0.000001150151     0.000001264440
       4        0.000001054061    -0.000001568804     0.000000955205
       5       -0.000001288253     0.000000412915    -0.000000341179
       6       -0.000023632659     0.000021583905    -0.000005145578
       7       -0.000000206551    -0.000000157691    -0.000004314775
       8       -0.000000940652     0.000000016321    -0.000001520877
       9        0.000027684848    -0.000019621899     0.000002488636
      10        0.000002355253    -0.000001040745     0.000003306937
      11        0.000011761355    -0.000003353840     0.000001849045
      12        0.001023642223     0.001710215647     0.002721687642
      13        0.000000466664    -0.000001974955     0.000009217898
      14        0.001634189085     0.002568975075     0.001418534508
      15       -0.001113678605    -0.001828754643    -0.002524851136
      16       -0.000012516998    -0.000003593815    -0.000003573674
      17       -0.000018288798    -0.000016044822    -0.000011660991
      18       -0.001534953930    -0.002438623688    -0.001617777985
      19        0.000003998696     0.000004610616     0.000001903117
      20        0.000003953883    -0.000000923074     0.000003366002
      21       -0.000000653222     0.000002407934     0.000006331607
      22       -0.000001209355     0.000005242921    -0.000003647010

  **** Optimization is complete! (in 5 steps) ****
    Final optimized geometry and variables:
    Molecular point group: c1

    Geometry (in Angstrom), charge = 0, multiplicity = 1:

    H            2.741319108323    -2.404510728689    -2.585668463488
    C            2.563097593986    -2.045473931937    -1.578963074940
    C            1.369120410201    -1.098230677075    -1.537814268635
    H            2.398732428515    -2.910329722036    -0.944909383350
    H            3.468710224363    -1.554428743342    -1.238772807074
    C            1.082514139602    -0.569682540149    -0.140073305373
    H            0.482148012453    -1.600448979485    -1.907808439276
    H            1.551633771801    -0.260156399679    -2.206314233201
    N           -0.069912957146     0.305037123420    -0.129397115946
    H            0.878505882077    -1.404517656996     0.523607403768
    H            1.977899350184    -0.076965927721     0.250917340699
    C           -0.382228366686     0.866906927578     1.170534633666
    H            0.062375325917     1.042553030674    -0.789585421540
    C           -1.655556511523     1.708331779727     1.116263924621
    H           -0.532102252665     0.031967964462     1.847755632403
    H            0.443190716664     1.461376840761     1.567664185769
    C           -2.929390777243     0.867214532815     1.117802151389
    H           -1.640837127356     2.306465434794     0.209031816739
    H           -1.669904731063     2.397989859173     1.953509060974
    H           -2.919442220292     0.156202944571     0.301427152414
    H           -3.810211882435     1.490738313569     1.012933745234
    H           -3.026868451034     0.311734771863     2.044866601514

  Mulliken Charges: (a.u.)
   Center  Symbol    Alpha    Beta     Spin     Total
       1     H     0.44769  0.44769  0.00000  0.10463
       2     C     3.15354  3.15354  0.00000 -0.30709
       3     C     3.08098  3.08098  0.00000 -0.16196
       4     H     0.45470  0.45470  0.00000  0.09059
       5     H     0.45610  0.45610  0.00000  0.08780
       6     C     3.02169  3.02169  0.00000 -0.04338
       7     H     0.44917  0.44917  0.00000  0.10167
       8     H     0.45953  0.45953  0.00000  0.08093
       9     N     3.64131  3.64131  0.00000 -0.28261
      10     H     0.45940  0.45940  0.00000  0.08119
      11     H     0.47516  0.47516  0.00000  0.04968
      12     C     3.03477  3.03477  0.00000 -0.06954
      13     H     0.44496  0.44496  0.00000  0.11008
      14     C     3.08024  3.08024  0.00000 -0.16048
      15     H     0.45907  0.45907  0.00000  0.08186
      16     H     0.46339  0.46339  0.00000  0.07322
      17     C     3.14931  3.14931  0.00000 -0.29861
      18     H     0.46044  0.46044  0.00000  0.07911
      19     H     0.45142  0.45142  0.00000  0.09716
      20     H     0.44827  0.44827  0.00000  0.10347
      21     H     0.45136  0.45136  0.00000  0.09729
      22     H     0.45751  0.45751  0.00000  0.08499

   Total alpha = 29.00000, Total beta = 29.00000, Total charge = -0.00000
