                              Psi4 1.0.54 Driver

  ==> Input File <==

--------------------------------------------------------------------------
set {
	reference rhf
	basis cc-pvtz
}

set_num_threads( 4 )
memory 2 gb

molecule MOL {
0 1

H	 2.609795	 -2.530124	 -3.660240
C	 2.672150	 -1.470193	 -3.442237
C	 1.436170	 -0.988428	 -2.690187
H	 3.571014	 -1.304937	 -2.858328
H	 2.788654	 -0.944897	 -4.384729
C	 1.484039	 0.504993	 -2.374950
H	 1.337387	 -1.549520	 -1.768040
H	 0.549653	 -1.200937	 -3.283273
C	 0.256706	 1.017092	 -1.627759
H	 2.369233	 0.723790	 -1.790666
H	 1.573364	 1.060248	 -3.304195
C	 0.166485	 0.574257	 -0.177158
H	 0.261790	 2.104053	 -1.611823
H	 -0.657360	 0.735038	 -2.142003
C	 -1.180025	 0.697761	 0.509157
O	 1.115349	 0.165117	 0.410667
C	 -2.285431	 -0.137488	 -0.145671
H	 -1.447360	 1.745713	 0.496200
H	 -1.065514	 0.394096	 1.546399
C	 -3.646545	 0.082747	 0.508954
H	 -2.348635	 0.118247	 -1.199806
H	 -2.034895	 -1.192387	 -0.096473
C	 -4.757412	 -0.737227	 -0.138149
H	 -3.900211	 1.137405	 0.459735
H	 -3.580878	 -0.166775	 1.564416
H	 -4.867876	 -0.486707	 -1.187777
H	 -4.549650	 -1.800049	 -0.072540
H	 -5.709585	 -0.556397	 0.346597

	symmetry c1
}
set optking {
	frozen_dihedral = ("
		16 12 15 17
	")
}

ee,wfn = optimize('scf', return_wfn=True)
oeprop( wfn, 'DIPOLE', 'QUADRUPOLE', 'MULLIKEN_CHARGES')
f=open( 'psi4out.xyz', 'w' )
f.write( "28  " )
f.write( str(ee) + "\n" )
f.write( MOL.save_string_xyz() )
f.close()
--------------------------------------------------------------------------

    Molecular point group: c1
  Charge       = 0
  Multiplicity = 1
  Basis Set: CC-PVTZ
  Basis Set:
  @DF-RHF Final Energy:  -426.31818721130310
    Total Energy =                       -426.3181872113035524
    Molecular point group: c1
  Basis Set: CC-PVTZ
  Basis Set:
  Basis Set: CC-PVTZ
  Basis Set:
  @DF-RHF Final Energy:  -426.31748960034224
    Total Energy =                       -426.3174896003420145
  Basis Set: CC-PVTZ
  Basis Set:
  Basis Set: CC-PVTZ
  Basis Set:
  @DF-RHF Final Energy:  -426.31859931511474
    Total Energy =                       -426.3185993151146249
  Basis Set: CC-PVTZ
  Basis Set:
  Basis Set: CC-PVTZ
  Basis Set:
  @DF-RHF Final Energy:  -426.31927151988168
    Total Energy =                       -426.3192715198822498
  Basis Set: CC-PVTZ
  Basis Set:
  @DF-RHF Final Energy:  -426.31929078795133
    Total Energy =                       -426.3192907879512177
  @DF-RHF Final Energy:  -426.31938025965030
    Total Energy =                       -426.3193802596504156
  Basis Set: CC-PVTZ
  Basis Set:
  @DF-RHF Final Energy:  -426.31939652217500
    Total Energy =                       -426.3193965221748840
  Basis Set: CC-PVTZ
  Basis Set:
  Basis Set: CC-PVTZ
  Basis Set:
  @DF-RHF Final Energy:  -426.31941294430999
    Total Energy =                       -426.3194129443102156
  Basis Set: CC-PVTZ
  Basis Set:
  Basis Set: CC-PVTZ
  Basis Set:
  @DF-RHF Final Energy:  -426.31941531335383
    Total Energy =                       -426.3194153133538293
  Basis Set: CC-PVTZ
  Basis Set:
  Charge       = 0
  Multiplicity = 1
  Basis Set: CC-PVTZ
  Basis Set:

    Orbital Energies (a.u.)
    -----------------------

    Doubly Occupied:

       1A    -20.537005     2A    -11.316917     3A    -11.229597
       4A    -11.228396     5A    -11.227113     6A    -11.223798
       7A    -11.214280     8A    -11.214144     9A    -11.209257
      10A    -11.203045    11A     -1.396892    12A     -1.095923
      13A     -1.078277    14A     -1.023466    15A     -0.991477
      16A     -0.908623    17A     -0.873075    18A     -0.809096
      19A     -0.800210    20A     -0.724451    21A     -0.671791
      22A     -0.653560    23A     -0.629215    24A     -0.622518
      25A     -0.609894    26A     -0.589574    27A     -0.577798
      28A     -0.572879    29A     -0.547741    30A     -0.527366
      31A     -0.522039    32A     -0.508433    33A     -0.503177
      34A     -0.485259    35A     -0.477055    36A     -0.476225
      37A     -0.471568    38A     -0.465420    39A     -0.457525
      40A     -0.394586

  @DF-RHF Final Energy:  -426.31941557913626

   => Energetics <=

    Nuclear Repulsion Energy =            534.0890500672245480
    One-Electron Energy =               -1636.6796009793906705
    Two-Electron Energy =                 676.2711353330289512
    DFT Exchange-Correlation Energy =       0.0000000000000000
    Empirical Dispersion Energy =           0.0000000000000000
    PCM Polarization Energy =               0.0000000000000000
    EFP Energy =                            0.0000000000000000
    Total Energy =                       -426.3194155791372850
    Molecular point group: c1
  Basis Set: CC-PVTZ
  Basis Set:

  -Total Gradient:
     Atom            X                  Y                   Z
    ------   -----------------  -----------------  -----------------
       1       -0.000002662657     0.000018304808     0.000003490683
       2       -0.000005945131    -0.000007828080     0.000003586012
       3        0.000008379592    -0.000011365366    -0.000018494143
       4       -0.000013875651    -0.000005031923    -0.000004127389
       5       -0.000000619038     0.000000000099    -0.000000855680
       6       -0.000003932284     0.000007512800     0.000011799776
       7        0.000004986959     0.000002239467     0.000000579096
       8        0.000009382844     0.000003793405     0.000006775824
       9       -0.000000898675     0.000014517903    -0.000006985000
      10       -0.000005234375    -0.000003558777    -0.000000568742
      11       -0.000001379194    -0.000003182645     0.000007216309
      12       -0.000502652028    -0.001068347458    -0.000606235543
      13        0.000004528728    -0.000038628876    -0.000000271657
      14        0.000014182171     0.000004855892     0.000013463970
      15        0.000311616376    -0.000462791388     0.000763921944
      16        0.000315830108     0.000964847563     0.000286519701
      17       -0.000156866788     0.000600784495    -0.000444222122
      18        0.000007772850    -0.000007450244    -0.000004168526
      19       -0.000000540929    -0.000005708066    -0.000009924695
      20        0.000015978778    -0.000010005766     0.000007020074
      21       -0.000001897933     0.000002176204     0.000001779563
      22        0.000002699033     0.000000019664     0.000002971790
      23       -0.000004382676     0.000006925697    -0.000015482415
      24        0.000001743593    -0.000000910695     0.000000167736
      25        0.000004482931    -0.000003847935     0.000004513162
      26       -0.000003531244    -0.000002828280    -0.000007195547
      27        0.000000122622     0.000002802113     0.000004838332
      28        0.000002712020     0.000002705388    -0.000000112516

  **** Optimization is complete! (in 10 steps) ****
    Final optimized geometry and variables:
    Molecular point group: c1

    Geometry (in Angstrom), charge = 0, multiplicity = 1:

    H            3.566914349968    -2.195857311653    -2.783720973626
    C            3.491644810943    -1.150427552034    -2.507574495044
    C            2.158083656218    -0.854198813795    -1.830115434609
    H            4.321583938592    -0.922356224064    -1.847706082170
    H            3.614627221933    -0.560245243934    -3.410082441205
    C            2.010690261866     0.614966203659    -1.439920233797
    H            2.058483497947    -1.473703995054    -0.947144830487
    H            1.346681608455    -1.128472312096    -2.500406116739
    C            0.684394422687     0.945613611130    -0.762948348640
    H            2.824894488964     0.898853829932    -0.784232560420
    H            2.097248875337     1.226872079068    -2.333262019433
    C            0.560354298342     0.469332970321     0.673411403855
    H            0.532519710579     2.022531019254    -0.735670020682
    H           -0.146147199350     0.551273601008    -1.338597859913
    C           -0.766506149050     0.693715365108     1.376403046674
    O            1.477647185231    -0.014363514981     1.254776657426
    C           -1.956420284112    -0.040966737055     0.750846766729
    H           -0.968486915593     1.762114924876     1.381006119414
    H           -0.630792129544     0.380505273267     2.402548363631
    C           -3.228024108662     0.102942987006     1.582958410459
    H           -2.145578482482     0.333764260526    -0.249294163937
    H           -1.714513364005    -1.095397887826     0.647206016321
    C           -4.424442510498    -0.616574207522     0.969890622337
    H           -3.461658876439     1.157616344899     1.700126116507
    H           -3.047343171223    -0.282480052635     2.581842671214
    H           -4.652532882963    -0.228051916309    -0.017066222421
    H           -4.232493774590    -1.679518705869     0.869902774337
    H           -5.309015654784    -0.497016478175     1.584315402598

  Mulliken Charges: (a.u.)
   Center  Symbol    Alpha    Beta     Spin     Total
       1     H     0.44881  0.44881  0.00000  0.10238
       2     C     3.15167  3.15167  0.00000 -0.30335
       3     C     3.08424  3.08424  0.00000 -0.16848
       4     H     0.45194  0.45194  0.00000  0.09611
       5     H     0.45726  0.45726  0.00000  0.08548
       6     C     3.08638  3.08638  0.00000 -0.17276
       7     H     0.44444  0.44444  0.00000  0.11113
       8     H     0.45909  0.45909  0.00000  0.08181
       9     C     3.12858  3.12858  0.00000 -0.25715
      10     H     0.44581  0.44581  0.00000  0.10838
      11     H     0.44795  0.44795  0.00000  0.10411
      12     C     2.86874  2.86874  0.00000  0.26252
      13     H     0.43523  0.43523  0.00000  0.12954
      14     H     0.44197  0.44197  0.00000  0.11606
      15     C     3.08938  3.08938  0.00000 -0.17876
      16     O     4.17763  4.17763  0.00000 -0.35526
      17     C     3.10243  3.10243  0.00000 -0.20487
      18     H     0.44966  0.44966  0.00000  0.10068
      19     H     0.43740  0.43740  0.00000  0.12520
      20     C     3.08684  3.08684  0.00000 -0.17368
      21     H     0.45076  0.45076  0.00000  0.09848
      22     H     0.44583  0.44583  0.00000  0.10834
      23     C     3.14912  3.14912  0.00000 -0.29824
      24     H     0.45356  0.45356  0.00000  0.09287
      25     H     0.44974  0.44974  0.00000  0.10052
      26     H     0.45531  0.45531  0.00000  0.08939
      27     H     0.45349  0.45349  0.00000  0.09302
      28     H     0.44674  0.44674  0.00000  0.10651

   Total alpha = 40.00000, Total beta = 40.00000, Total charge =  0.00000

*** Psi4 exiting successfully. Buy a developer a beer!
