                              Psi4 1.0.54 Driver

  ==> Input File <==

--------------------------------------------------------------------------
set {
	reference rhf
	basis cc-pvtz
}

set_num_threads( 4 )
memory 2 gb

molecule MOL {
0 1

H	 -3.034039	 -0.667848	 0.004703
O	 -2.240597	 -1.171748	 0.000934
C	 -1.159675	 -0.364500	 0.000370
C	 -0.690240	 0.243139	 -1.146286
C	 -0.519620	 -0.159880	 1.213017
H	 -1.183695	 0.084315	 -2.087741
C	 0.427098	 1.056400	 -1.066362
H	 -0.908589	 -0.648739	 2.085173
C	 0.593033	 0.653294	 1.291316
H	 0.797091	 1.528492	 -1.956871
C	 1.067499	 1.263523	 0.134384
C	 1.275016	 0.894815	 2.614271
H	 1.934426	 1.895158	 0.178396
H	 2.352038	 0.849482	 2.510397
H	 0.975116	 0.162768	 3.351776
H	 1.024457	 1.877435	 2.999395

	symmetry c1
}
set optking {
	frozen_dihedral = ("
		5 3 2 1
	")
}

ee,wfn = optimize('scf', return_wfn=True)
oeprop( wfn, 'DIPOLE', 'QUADRUPOLE', 'MULLIKEN_CHARGES')
f=open( 'psi4out.xyz', 'w' )
f.write( "16  " )
f.write( str(ee) + "\n" )
f.write( MOL.save_string_xyz() )
f.close()
--------------------------------------------------------------------------

    Molecular point group: c1
  Charge       = 0
  Multiplicity = 1
  Basis Set: CC-PVTZ
  Basis Set:
  @DF-RHF Final Energy:  -344.71556130549362
    Total Energy =                       -344.7155613054936794
    Molecular point group: c1
  Basis Set: CC-PVTZ
  Basis Set:
  Basis Set: CC-PVTZ
  Basis Set:
  @DF-RHF Final Energy:  -344.71622658653746
    Total Energy =                       -344.7162265865376867
  Basis Set: CC-PVTZ
  Basis Set:
  Basis Set: CC-PVTZ
  Basis Set:
  @DF-RHF Final Energy:  -344.71627975527247
    Total Energy =                       -344.7162797552725806
  Basis Set: CC-PVTZ
  Basis Set:
  Basis Set: CC-PVTZ
  Basis Set:
  @DF-RHF Final Energy:  -344.71628479759693
    Total Energy =                       -344.7162847975968134
  Basis Set: CC-PVTZ
  Basis Set:
  Basis Set: CC-PVTZ
  Basis Set:
  @DF-RHF Final Energy:  -344.71628592089144
    Total Energy =                       -344.7162859208914938
  Basis Set: CC-PVTZ
  Basis Set:
  Charge       = 0
  Multiplicity = 1
  Basis Set: CC-PVTZ
  Basis Set:

    Orbital Energies (a.u.)
    -----------------------

    Doubly Occupied:

       1A    -20.569026     2A    -11.286454     3A    -11.240294
       4A    -11.231151     5A    -11.220700     6A    -11.219582
       7A    -11.219034     8A    -11.218419     9A     -1.395784
      10A     -1.155001    11A     -1.046823    12A     -1.007486
      13A     -0.939134    14A     -0.830604    15A     -0.811893
      16A     -0.720241    17A     -0.679663    18A     -0.659746
      19A     -0.622801    20A     -0.592990    21A     -0.578007
      22A     -0.570372    23A     -0.552596    24A     -0.514100
      25A     -0.506338    26A     -0.485141    27A     -0.466730
      28A     -0.333951    29A     -0.322692

  @DF-RHF Final Energy:  -344.71628633625727

   => Energetics <=

    Nuclear Repulsion Energy =            345.8150448300008861
    One-Electron Energy =               -1153.0691599629726625
    Two-Electron Energy =                 462.5378287967145070
    DFT Exchange-Correlation Energy =       0.0000000000000000
    Empirical Dispersion Energy =           0.0000000000000000
    PCM Polarization Energy =               0.0000000000000000
    EFP Energy =                            0.0000000000000000
    Total Energy =                       -344.7162863362572125
    Molecular point group: c1
  Basis Set: CC-PVTZ
  Basis Set:

  -Total Gradient:
     Atom            X                  Y                   Z
    ------   -----------------  -----------------  -----------------
       1       -0.000020219229    -0.000034364053     0.000779553748
       2       -0.000218233192     0.000219466330    -0.000898397238
       3        0.000609540069    -0.000624419329    -0.000049342568
       4       -0.000011297009     0.000019916152    -0.000008530897
       5       -0.000370974683     0.000401295280     0.000171809972
       6       -0.000005588009    -0.000005761379     0.000000806098
       7       -0.000015480334    -0.000025567602     0.000014449295
       8        0.000013674863     0.000011904621    -0.000024567185
       9       -0.000001765328     0.000030675671    -0.000003626718
      10        0.000001145700     0.000002761790     0.000000710791
      11        0.000010009159    -0.000000131404     0.000004198401
      12        0.000001673934     0.000001324124    -0.000002018851
      13       -0.000007065387     0.000003180341     0.000009545860
      14        0.000008722257    -0.000011276372     0.000001285305
      15       -0.000004055761     0.000003319739     0.000010075411
      16        0.000009912946     0.000007676087    -0.000005951423

  **** Optimization is complete! (in 6 steps) ****
    Final optimized geometry and variables:
    Molecular point group: c1

    Geometry (in Angstrom), charge = 0, multiplicity = 1:

    H           -2.841913472391    -0.961128213734    -0.438138327303
    O           -2.043313024311    -1.458763908713    -0.441734196760
    C           -0.960146662872    -0.624832787143    -0.392344928629
    C           -0.490019425121    -0.026094386268    -1.541934098259
    C           -0.319938577228    -0.422837857650     0.816361017523
    H           -0.986348661268    -0.205796947541    -2.475762227934
    C            0.628274104568     0.783941447792    -1.467155704905
    H           -0.704981299207    -0.914756454251     1.689035111684
    C            0.801422916136     0.384743234829     0.895952891189
    H            1.003942897018     1.251898267576    -2.357338053547
    C            1.269457970369     0.988790018611    -0.263045444694
    C            1.490714323606     0.621471221318     2.216458666352
    H            2.140733997675     1.615507041496    -0.223088116624
    H            2.567172304324     0.573134978531     2.107992994031
    H            1.193231766780    -0.113255490472     2.952516656702
    H            1.245299822654     1.602741898895     2.608539911927

  Mulliken Charges: (a.u.)
   Center  Symbol    Alpha    Beta     Spin     Total
       1     H     0.38872  0.38872  0.00000  0.22256
       2     O     4.19222  4.19222  0.00000 -0.38444
       3     C     2.85666  2.85666  0.00000  0.28668
       4     C     3.12691  3.12691  0.00000 -0.25382
       5     C     3.14188  3.14188  0.00000 -0.28376
       6     H     0.41842  0.41842  0.00000  0.16317
       7     C     3.06098  3.06098  0.00000 -0.12197
       8     H     0.41951  0.41951  0.00000  0.16099
       9     C     2.94594  2.94594  0.00000  0.10812
      10     H     0.42227  0.42227  0.00000  0.15547
      11     C     3.10763  3.10763  0.00000 -0.21527
      12     C     3.14627  3.14627  0.00000 -0.29254
      13     H     0.42694  0.42694  0.00000  0.14611
      14     H     0.44789  0.44789  0.00000  0.10422
      15     H     0.45034  0.45034  0.00000  0.09931
      16     H     0.44741  0.44741  0.00000  0.10517

   Total alpha = 29.00000, Total beta = 29.00000, Total charge =  0.00000

*** Psi4 exiting successfully. Buy a developer a beer!
