  ==> Input File <==

--------------------------------------------------------------------------
set {
	reference rhf
	basis 6-31G*
}

set_num_threads( 4 )
memory 2 gb

molecule MOL {
0 1

H	 1.280795	 -1.495611	 -0.454659
O	 1.654024	 -0.625927	 -0.460906
C	 1.135793	 0.118896	 0.612333
C	 0.031547	 1.023609	 0.088541
H	 1.915668	 0.729681	 1.063582
H	 0.754543	 -0.542641	 1.387006
C	 -1.134819	 0.293262	 -0.585751
H	 0.474374	 1.714721	 -0.623187
H	 -0.338529	 1.620940	 0.920081
C	 -1.917817	 -0.639439	 0.339494
H	 -0.758119	 -0.268455	 -1.433105
H	 -1.813832	 1.041889	 -0.986690
H	 -2.777680	 -1.057197	 -0.174994
H	 -1.310268	 -1.471279	 0.680599
H	 -2.283753	 -0.111424	 1.216626

	symmetry c1
}
set optking {
	frozen_dihedral = ("
		1 2 3 4
	")
}

ee = optimize('scf')
oeprop('DIPOLE', 'QUADRUPOLE', 'MULLIKEN_CHARGES')
f=open( 'psi4out.xyz', 'w' )
f.write( "15  " )
f.write( str(ee) + "\n" )
f.write( MOL.save_string_xyz() )
f.close()
--------------------------------------------------------------------------

    Molecular point group: c1
  Charge       = 0
  Multiplicity = 1
  Basis Set: 6-31G*
  Basis Set:
  @DF-RHF Final Energy:  -232.14126194395061
    Total Energy =                       -232.1412619439504397
    Molecular point group: c1
  Basis Set: 6-31G*
  Basis Set:
  Basis Set: 6-31G*
  Basis Set:
  @DF-RHF Final Energy:  -232.14213562818586
    Total Energy =                       -232.1421356281857129
  Basis Set: 6-31G*
  Basis Set:
  Basis Set: 6-31G*
  Basis Set:
  @DF-RHF Final Energy:  -232.14237619339656
    Total Energy =                       -232.1423761933966716
  Basis Set: 6-31G*
  Basis Set:
  Basis Set: 6-31G*
  Basis Set:
  @DF-RHF Final Energy:  -232.14232689431651
    Total Energy =                       -232.1423268943164544
  Basis Set: 6-31G*
  Basis Set:
  Basis Set: 6-31G*
  Basis Set:
  @DF-RHF Final Energy:  -232.14238657110243
    Total Energy =                       -232.1423865711020085
  Basis Set: 6-31G*
  Basis Set:
  Charge       = 0
  Multiplicity = 1
  Basis Set: 6-31G*
  Basis Set:

    Orbital Energies (a.u.)
    -----------------------

    Doubly Occupied:

       1A    -20.552706     2A    -11.267571     3A    -11.216942
       4A    -11.213885     5A    -11.213130     6A     -1.358743
       7A     -1.068031     8A     -0.974374     9A     -0.875796
      10A     -0.781644    11A     -0.701304    12A     -0.644422
      13A     -0.612077    14A     -0.582635    15A     -0.565666
      16A     -0.543036    17A     -0.503094    18A     -0.490156
      19A     -0.473316    20A     -0.457315    21A     -0.425485

  @DF-RHF Final Energy:  -232.14238679683731

   => Energetics <=

    Nuclear Repulsion Energy =            191.4161070786944094
    One-Electron Energy =                -694.0743332386994098
    Two-Electron Energy =                 270.5158393631676290
    DFT Exchange-Correlation Energy =       0.0000000000000000
    Empirical Dispersion Energy =           0.0000000000000000
    PCM Polarization Energy =               0.0000000000000000
    EFP Energy =                            0.0000000000000000
    Total Energy =                       -232.1423867968373997
    Molecular point group: c1
  Basis Set: 6-31G*
  Basis Set:

  -Total Gradient:
     Atom            X                  Y                   Z
    ------   -----------------  -----------------  -----------------
       1        0.000832127352    -0.000344552836     0.000719827983
       2       -0.000830302196     0.000653950800    -0.000923555346
       3       -0.000477266278    -0.000866709436     0.000280158594
       4        0.000473230578     0.000517412688    -0.000113736232
       5        0.000000089952     0.000008342911     0.000004807424
       6       -0.000010934139    -0.000000237198     0.000010870314
       7        0.000006324580     0.000012813296    -0.000002329735
       8       -0.000012324589     0.000002307918    -0.000006347009
       9       -0.000011542196     0.000001967003    -0.000000991501
      10        0.000003974099    -0.000000180383     0.000011116048
      11        0.000007304751     0.000001838788     0.000010115785
      12        0.000013644403     0.000015961281     0.000005829939
      13        0.000005510789    -0.000000466498    -0.000001382695
      14        0.000008037886    -0.000000762961     0.000002861857
      15       -0.000007874993    -0.000001685370     0.000002754573

  **** Optimization is complete! (in 6 steps) ****
    Final optimized geometry and variables:
    Molecular point group: c1

    Geometry (in Angstrom), charge = 0, multiplicity = 1:

    H            1.401560939436    -1.490498014145    -0.483097673591
    O            1.743831647989    -0.610142452996    -0.454070575367
    C            1.144475468586     0.108660131004     0.598156122600
    C            0.026166303357     1.017141669488     0.099390387322
    H            1.921729781502     0.714697515023     1.049004610243
    H            0.785043639810    -0.567893112761     1.368606307542
    C           -1.141694820252     0.292460043477    -0.577766421994
    H            0.460279714564     1.719449220697    -0.606490749726
    H           -0.342755402523     1.602501532706     0.940669280943
    C           -1.947776961538    -0.619489080538     0.349892265298
    H           -0.762885348212    -0.280858757657    -1.419001666631
    H           -1.809962999888     1.038776878334    -0.998917313069
    H           -2.794702018044    -1.051329593276    -0.174077821707
    H           -1.353264365662    -1.443418304273     0.733996602834
    H           -2.333737461649    -0.068874317509     1.203429717801

  Mulliken Charges: (a.u.)
   Center  Symbol    Alpha    Beta     Spin     Total
       1     H     0.27981  0.27981  0.00000  0.44037
       2     O     4.37125  4.37125  0.00000 -0.74250
       3     C     3.00226  3.00226  0.00000 -0.00452
       4     C     3.15813  3.15813  0.00000 -0.31626
       5     H     0.41654  0.41654  0.00000  0.16691
       6     H     0.42952  0.42952  0.00000  0.14096
       7     C     3.15988  3.15988  0.00000 -0.31976
       8     H     0.41389  0.41389  0.00000  0.17221
       9     H     0.42634  0.42634  0.00000  0.14732
      10     C     3.24189  3.24189  0.00000 -0.48377
      11     H     0.41692  0.41692  0.00000  0.16615
      12     H     0.41866  0.41866  0.00000  0.16267
      13     H     0.41726  0.41726  0.00000  0.16547
      14     H     0.42691  0.42691  0.00000  0.14619
      15     H     0.42073  0.42073  0.00000  0.15854

   Total alpha = 21.00000, Total beta = 21.00000, Total charge =  0.00000
