  ==> Input File <==

--------------------------------------------------------------------------
set {
	reference rhf
	basis 6-31G*
}

set_num_threads( 4 )
memory 2 gb

molecule MOL {
0 1

H	 -0.000158	 1.970498	 0.756846
O	 -0.000074	 1.880206	 -0.189275
C	 -0.000015	 0.544847	 -0.545111
C	 -1.278788	 -0.123820	 -0.051541
C	 1.278802	 -0.123718	 -0.051505
H	 -0.000001	 0.490777	 -1.623619
F	 -1.059320	 -1.406124	 0.146131
F	 -1.708672	 0.394994	 1.079119
F	 -2.244373	 -0.013157	 -0.949870
F	 2.323327	 0.466644	 -0.591854
F	 1.326242	 -1.401483	 -0.363667
F	 1.388946	 -0.015632	 1.262939

	symmetry c1
}
set optking {
	frozen_dihedral = ("
		7 4 3 6
	")
}

ee = optimize('scf')
oeprop('DIPOLE', 'QUADRUPOLE', 'MULLIKEN_CHARGES')
f=open( 'psi4out.xyz', 'w' )
f.write( "12  " )
f.write( str(ee) + "\n" )
f.write( MOL.save_string_xyz() )
f.close()
--------------------------------------------------------------------------

    Molecular point group: c1
  Charge       = 0
  Multiplicity = 1
  Basis Set: 6-31G*
  Basis Set:
  @DF-RHF Final Energy:  -786.27354141091519
    Total Energy =                       -786.2735414109158683
    Molecular point group: c1
  Basis Set: 6-31G*
  Basis Set:
  Basis Set: 6-31G*
  Basis Set:
  @DF-RHF Final Energy:  -786.27524161747908
    Total Energy =                       -786.2752416174789687
  Basis Set: 6-31G*
  Basis Set:
  Basis Set: 6-31G*
  Basis Set:
  @DF-RHF Final Energy:  -786.27568050308128
    Total Energy =                       -786.2756805030810483
  Basis Set: 6-31G*
  Basis Set:
  Basis Set: 6-31G*
  Basis Set:
  @DF-RHF Final Energy:  -786.27581115314320
    Total Energy =                       -786.2758111531434224
  Basis Set: 6-31G*
  Basis Set:
  Basis Set: 6-31G*
  Basis Set:
  @DF-RHF Final Energy:  -786.27584290338848
    Total Energy =                       -786.2758429033887069
  Basis Set: 6-31G*
  Basis Set:
  Basis Set: 6-31G*
  Basis Set:
  @DF-RHF Final Energy:  -786.27584642318959
    Total Energy =                       -786.2758464231894777
  Basis Set: 6-31G*
  Basis Set:
  Charge       = 0
  Multiplicity = 1
  Basis Set: 6-31G*
  Basis Set:

    Orbital Energies (a.u.)
    -----------------------

    Doubly Occupied:

       1A    -26.363595     2A    -26.363220     3A    -26.361939
       4A    -26.361750     5A    -26.359615     6A    -26.356778
       7A    -20.615074     8A    -11.528698     9A    -11.524099
      10A    -11.349093    11A     -1.765576    12A     -1.758316
      13A     -1.661365    14A     -1.660124    15A     -1.657065
      16A     -1.654354    17A     -1.433631    18A     -1.100282
      19A     -0.997020    20A     -0.937554    21A     -0.865701
      22A     -0.862182    23A     -0.851143    24A     -0.845289
      25A     -0.833183    26A     -0.816242    27A     -0.738608
      28A     -0.730112    29A     -0.724995    30A     -0.720901
      31A     -0.687802    32A     -0.686393    33A     -0.682488
      34A     -0.675304    35A     -0.669764    36A     -0.661841
      37A     -0.658028    38A     -0.650110    39A     -0.619535
      40A     -0.551548    41A     -0.505002

  @DF-RHF Final Energy:  -786.27584689653463

   => Energetics <=

    Nuclear Repulsion Energy =            670.3320179761228701
    One-Electron Energy =               -2427.5250924355968891
    Two-Electron Energy =                 970.9172275629392743
    DFT Exchange-Correlation Energy =       0.0000000000000000
    Empirical Dispersion Energy =           0.0000000000000000
    PCM Polarization Energy =               0.0000000000000000
    EFP Energy =                            0.0000000000000000
    Total Energy =                       -786.2758468965347447
    Molecular point group: c1
  Basis Set: 6-31G*
  Basis Set:

  -Total Gradient:
     Atom            X                  Y                   Z
    ------   -----------------  -----------------  -----------------
       1       -0.000009816612     0.000012994269     0.000022150551
       2        0.000010921181    -0.000048614355     0.000032378454
       3        0.002984679496    -0.004711618012     0.001451787869
       4       -0.001947380498    -0.000207719884    -0.005017645844
       5        0.000115757165    -0.000070917401    -0.000005135480
       6       -0.002161091313     0.004067964032    -0.000229468881
       7        0.001123531848     0.000778262937     0.003669471360
       8       -0.000003398457     0.000073082053     0.000050005161
       9        0.000043644727     0.000002912481     0.000030523761
      10       -0.000022122376     0.000077653388    -0.000029853328
      11       -0.000069738959    -0.000002119748    -0.000026183038
      12       -0.000064986193     0.000028120240     0.000051969414

  **** Optimization is complete! (in 7 steps) ****
    Final optimized geometry and variables:
    Molecular point group: c1

    Geometry (in Angstrom), charge = 0, multiplicity = 1:

    H           -0.091363594291     2.011791595517     0.670117809223
    O            0.004082282227     1.880591703160    -0.265624360936
    C            0.005083486135     0.531641565221    -0.569338642686
    C           -1.277745396001    -0.123910150296    -0.040011400901
    C            1.281015406182    -0.126754336211    -0.059696617867
    H           -0.010589150431     0.467060760854    -1.646675057420
    F           -1.135423262445    -1.412152899263     0.192195556522
    F           -1.639147360265     0.439384551920     1.103081549486
    F           -2.262778007675     0.037743576232    -0.896692862709
    F            2.330135906337     0.550375047628    -0.471803091464
    F            1.402019700724    -1.364121586037    -0.492993971911
    F            1.301888156988    -0.143486566185     1.264239785560

  Mulliken Charges: (a.u.)
   Center  Symbol    Alpha    Beta     Spin     Total
       1     H     0.26520  0.26520  0.00000  0.46959
       2     O     4.36268  4.36268  0.00000 -0.72535
       3     C     3.05959  3.05959  0.00000 -0.11917
       4     C     2.43794  2.43794  0.00000  1.12413
       5     C     2.44156  2.44156  0.00000  1.11687
       6     H     0.37336  0.37336  0.00000  0.25328
       7     F     4.67297  4.67297  0.00000 -0.34595
       8     F     4.68150  4.68150  0.00000 -0.36300
       9     F     4.67486  4.67486  0.00000 -0.34972
      10     F     4.67411  4.67411  0.00000 -0.34823
      11     F     4.67492  4.67492  0.00000 -0.34984
      12     F     4.68131  4.68131  0.00000 -0.36262

   Total alpha = 41.00000, Total beta = 41.00000, Total charge = -0.00000
