  ==> Input File <==

--------------------------------------------------------------------------
set {
	reference rhf
	basis 6-31G*
}

set_num_threads( 4 )
memory 2 gb

molecule MOL {
0 1

H	 -2.172150	 0.880146	 0.502514
C	 -2.018062	 -0.000025	 -0.114509
O	 -0.774054	 0.001095	 -0.743181
H	 -2.760490	 0.003458	 -0.901350
H	 -2.173624	 -0.884374	 0.496163
C	 0.026457	 -1.167227	 -0.716035
C	 1.274570	 -0.768052	 -1.500181
C	 0.408941	 -1.541754	 0.719453
C	 -0.677205	 -2.335866	 -1.413356
H	 1.760417	 0.076140	 -1.024026
H	 1.004273	 -0.475886	 -2.508622
H	 1.981413	 -1.589672	 -1.554725
H	 0.841159	 -0.686483	 1.228105
H	 1.140874	 -2.342921	 0.716686
H	 -0.444621	 -1.884920	 1.294105
H	 -1.007620	 -2.038653	 -2.403074
H	 0.002471	 -3.175244	 -1.518325
H	 -1.539844	 -2.685348	 -0.856266

	symmetry c1
}
set optking {
	frozen_dihedral = ("
		6 3 2 5
	")
}

ee = optimize('scf')
oeprop('DIPOLE', 'QUADRUPOLE', 'MULLIKEN_CHARGES')
f=open( 'psi4out.xyz', 'w' )
f.write( "18  " )
f.write( str(ee) + "\n" )
f.write( MOL.save_string_xyz() )
f.close()
--------------------------------------------------------------------------

    Molecular point group: c1
  Charge       = 0
  Multiplicity = 1
  Basis Set: 6-31G*
  Basis Set:
  @DF-RHF Final Energy:  -271.17211570071044
    Total Energy =                       -271.1721157007104921
    Molecular point group: c1
  Basis Set: 6-31G*
  Basis Set:
  Basis Set: 6-31G*
  Basis Set:
  @DF-RHF Final Energy:  -271.17262285332885
    Total Energy =                       -271.1726228533286758
  Basis Set: 6-31G*
  Basis Set:
  Basis Set: 6-31G*
  Basis Set:
  @DF-RHF Final Energy:  -271.17266288652661
    Total Energy =                       -271.1726628865266093
  Basis Set: 6-31G*
  Basis Set:
  Basis Set: 6-31G*
  Basis Set:
  @DF-RHF Final Energy:  -271.17324021178666
    Total Energy =                       -271.1732402117868332
  Basis Set: 6-31G*
  Basis Set:
  Basis Set: 6-31G*
  Basis Set:
  @DF-RHF Final Energy:  -271.17331157756342
    Total Energy =                       -271.1733115775630267
  Basis Set: 6-31G*
  Basis Set:
  Basis Set: 6-31G*
  Basis Set:
  @DF-RHF Final Energy:  -271.17330929474213
    Total Energy =                       -271.1733092947420687
  Basis Set: 6-31G*
  Basis Set:
  Basis Set: 6-31G*
  Basis Set:
  @DF-RHF Final Energy:  -271.17332629953637
    Total Energy =                       -271.1733262995362566
  Basis Set: 6-31G*
  Basis Set:
  Charge       = 0
  Multiplicity = 1
  Basis Set: 6-31G*
  Basis Set:

    Orbital Energies (a.u.)
    -----------------------

    Doubly Occupied:

       1A    -20.544387     2A    -11.281991     3A    -11.260958
       4A    -11.208894     5A    -11.208397     6A    -11.203217
       7A     -1.367752     8A     -1.072533     9A     -0.945634
      10A     -0.939931    11A     -0.912828    12A     -0.752658
      13A     -0.655058    14A     -0.643167    15A     -0.638562
      16A     -0.590166    17A     -0.570936    18A     -0.551885
      19A     -0.538578    20A     -0.523752    21A     -0.514927
      22A     -0.490081    23A     -0.487230    24A     -0.437689
      25A     -0.400962

  @DF-RHF Final Energy:  -271.17332589783302

   => Energetics <=

    Nuclear Repulsion Energy =            272.1377330822090244
    One-Electron Energy =                -907.1377743855547351
    Two-Electron Energy =                 363.8267154055126866
    DFT Exchange-Correlation Energy =       0.0000000000000000
    Empirical Dispersion Energy =           0.0000000000000000
    PCM Polarization Energy =               0.0000000000000000
    EFP Energy =                            0.0000000000000000
    Total Energy =                       -271.1733258978330241
    Molecular point group: c1
  Basis Set: 6-31G*
  Basis Set:

  -Total Gradient:
     Atom            X                  Y                   Z
    ------   -----------------  -----------------  -----------------
       1       -0.000017726346    -0.000019053367    -0.000003911977
       2        0.000735971686     0.000809453757     0.001566667501
       3       -0.000703629405    -0.000597094873    -0.001495584320
       4       -0.000005766112     0.000004214325     0.000004247505
       5       -0.000392519550    -0.000528258879    -0.000879154111
       6        0.000429907886     0.000307451484     0.000811368876
       7        0.000003397885     0.000029907910    -0.000025054296
       8        0.000028357447    -0.000070042747     0.000014848499
       9       -0.000085853785     0.000039107237     0.000028602399
      10       -0.000000284178     0.000012945581    -0.000021328286
      11       -0.000001588163    -0.000007416853    -0.000018872893
      12       -0.000003957164     0.000017522075     0.000010203227
      13        0.000012202136    -0.000009439513    -0.000031757553
      14       -0.000002201474    -0.000034485736     0.000042113727
      15       -0.000005728118     0.000017010792    -0.000006141320
      16        0.000078316535     0.000003976127    -0.000039963205
      17       -0.000006060345     0.000039409030     0.000063073304
      18       -0.000062838933    -0.000015206352    -0.000019357079

  **** Optimization is complete! (in 8 steps) ****
    Final optimized geometry and variables:
    Molecular point group: c1

    Geometry (in Angstrom), charge = 0, multiplicity = 1:

    H           -1.816362536818     1.807663780358     1.136679145660
    C           -1.727407671928     0.945573168424     0.485824284238
    O           -0.461570493242     0.958223533816    -0.106519236311
    H           -2.495426220462     1.010316756488    -0.278973685893
    H           -1.916254910355     0.054808277488     1.071847756666
    C            0.345043505876    -0.205307959613    -0.090507647215
    C            1.587009370368     0.200462235936    -0.880695183864
    C            0.739148558569    -0.576761766684     1.342680744174
    C           -0.360737564745    -1.370901546465    -0.790431821376
    H            2.070229526817     1.047850693137    -0.407766063847
    H            1.311039109468     0.489447309774    -1.888439577888
    H            2.298198679407    -0.617438251427    -0.936683454129
    H            1.204588146003     0.271987211288     1.832029676673
    H            1.445507810343    -1.400786768977     1.341313026154
    H           -0.115334584048    -0.883148276251     1.936407777350
    H           -0.653161261003    -1.081790170401    -1.794321577570
    H            0.300372263800    -2.228615155970    -0.861118066811
    H           -1.250287606147    -1.688585372327    -0.256651487527

  Mulliken Charges: (a.u.)
   Center  Symbol    Alpha    Beta     Spin     Total
       1     H     0.41852  0.41852  0.00000  0.16296
       2     C     3.07660  3.07660  0.00000 -0.15320
       3     O     4.32198  4.32198  0.00000 -0.64396
       4     H     0.42296  0.42296  0.00000  0.15408
       5     H     0.42981  0.42981  0.00000  0.14037
       6     C     2.84415  2.84415  0.00000  0.31170
       7     C     3.23301  3.23301  0.00000 -0.46602
       8     C     3.24439  3.24439  0.00000 -0.48877
       9     C     3.24565  3.24565  0.00000 -0.49130
      10     H     0.41393  0.41393  0.00000  0.17213
      11     H     0.41426  0.41426  0.00000  0.17149
      12     H     0.42508  0.42508  0.00000  0.14985
      13     H     0.41350  0.41350  0.00000  0.17300
      14     H     0.42061  0.42061  0.00000  0.15878
      15     H     0.42097  0.42097  0.00000  0.15807
      16     H     0.41368  0.41368  0.00000  0.17264
      17     H     0.41999  0.41999  0.00000  0.16001
      18     H     0.42091  0.42091  0.00000  0.15817

   Total alpha = 25.00000, Total beta = 25.00000, Total charge =  0.00000
