  ==> Input File <==

--------------------------------------------------------------------------
set {
	reference rhf
	basis cc-pvtz
}

set_num_threads( 4 )
memory 2 gb

molecule MOL {
0 1

H	 -0.811808	 1.638155	 -0.276010
O	 0.057669	 1.301365	 -0.158528
C	 0.004145	 -0.005141	 0.363049
C	 1.199168	 -0.827145	 -0.096690
C	 -1.316386	 -0.602081	 -0.083515
H	 0.012026	 0.043363	 1.450619
H	 1.216685	 -0.896776	 -1.178167
H	 2.129940	 -0.372354	 0.228035
H	 1.160783	 -1.829622	 0.314294
H	 -1.357882	 -0.655920	 -1.165207
H	 -2.140147	 0.011735	 0.257253
H	 -1.440790	 -1.601175	 0.317669

	symmetry c1
}
set optking {
	frozen_dihedral = ("
		1 2 3 4
	")
}

ee = optimize('scf')
oeprop('DIPOLE', 'QUADRUPOLE', 'MULLIKEN_CHARGES')
f=open( 'psi4out.xyz', 'w' )
f.write( "12  " )
f.write( str(ee) + "\n" )
f.write( MOL.save_string_xyz() )
f.close()
--------------------------------------------------------------------------

    Molecular point group: c1
  Charge       = 0
  Multiplicity = 1
  Basis Set: CC-PVTZ
  Basis Set:
  @DF-RHF Final Energy:  -193.19308146542082
    Total Energy =                       -193.1930814654207893
    Molecular point group: c1
  Basis Set: CC-PVTZ
  Basis Set:
  Basis Set: CC-PVTZ
  Basis Set:
  @DF-RHF Final Energy:  -193.19457114758578
    Total Energy =                       -193.1945711475856911
  Basis Set: CC-PVTZ
  Basis Set:
  Basis Set: CC-PVTZ
  Basis Set:
  @DF-RHF Final Energy:  -193.19493317387412
    Total Energy =                       -193.1949331738741193
  Basis Set: CC-PVTZ
  Basis Set:
  Basis Set: CC-PVTZ
  Basis Set:
  @DF-RHF Final Energy:  -193.19493739067175
    Total Energy =                       -193.1949373906717824
  Basis Set: CC-PVTZ
  Basis Set:
  Charge       = 0
  Multiplicity = 1
  Basis Set: CC-PVTZ
  Basis Set:

    Orbital Energies (a.u.)
    -----------------------

    Doubly Occupied:

       1A    -20.543083     2A    -11.274029     3A    -11.216104
       4A    -11.204937     5A     -1.363800     6A     -1.044126
       7A     -0.942993     8A     -0.808866     9A     -0.687132
      10A     -0.641411    11A     -0.608296    12A     -0.548007
      13A     -0.539611    14A     -0.525586    15A     -0.514758
      16A     -0.469548    17A     -0.431906

  @DF-RHF Final Energy:  -193.19493770454244

   => Energetics <=

    Nuclear Repulsion Energy =            135.7898564580611946
    One-Electron Energy =                -531.2412048060484722
    Two-Electron Energy =                 202.2564106434448377
    DFT Exchange-Correlation Energy =       0.0000000000000000
    Empirical Dispersion Energy =           0.0000000000000000
    PCM Polarization Energy =               0.0000000000000000
    EFP Energy =                            0.0000000000000000
    Total Energy =                       -193.1949377045424399
    Molecular point group: c1
  Basis Set: CC-PVTZ
  Basis Set:

  -Total Gradient:
     Atom            X                  Y                   Z
    ------   -----------------  -----------------  -----------------
       1        0.000000803588    -0.000694958220    -0.001808490723
       2       -0.000196165061     0.000777016363     0.001901727946
       3        0.000786733276     0.000293627553     0.000845767478
       4       -0.000607192897    -0.000338906725    -0.000949011878
       5        0.000001592408    -0.000000301360    -0.000000553250
       6       -0.000002898007    -0.000028318792    -0.000009306083
       7       -0.000007457665     0.000005282348    -0.000002236608
       8       -0.000011500026     0.000006865509     0.000010140837
       9        0.000009137502    -0.000009152229    -0.000009038757
      10        0.000006614712     0.000013234264     0.000014557811
      11        0.000019475848    -0.000003703388    -0.000005282041
      12        0.000000856321    -0.000020685320     0.000011725267

  **** Optimization is complete! (in 5 steps) ****
    Final optimized geometry and variables:
    Molecular point group: c1

    Geometry (in Angstrom), charge = 0, multiplicity = 1:

    H           -0.689699311026     1.695513327410    -0.287195509703
    O            0.150206320286     1.304156112179    -0.135809251626
    C            0.002335349779    -0.003804099258     0.367078377430
    C            1.202303437546    -0.807421515349    -0.098199659044
    C           -1.312040148076    -0.623190006862    -0.082650788189
    H            0.009504089701     0.039468204436     1.454042310461
    H            1.205036046394    -0.889928589742    -1.178855101290
    H            2.119670546823    -0.319629847304     0.206034748740
    H            1.186484109061    -1.804392757970     0.327529941966
    H           -1.355719355572    -0.681704992701    -1.164885620043
    H           -2.156574993494    -0.034439306562     0.262925507456
    H           -1.423774834013    -1.623448874580     0.318411039084

  Mulliken Charges: (a.u.)
   Center  Symbol    Alpha    Beta     Spin     Total
       1     H     0.39292  0.39292  0.00000  0.21416
       2     O     4.20833  4.20833  0.00000 -0.41666
       3     C     2.91918  2.91918  0.00000  0.16164
       4     C     3.13933  3.13933  0.00000 -0.27867
       5     C     3.15426  3.15426  0.00000 -0.30851
       6     H     0.46546  0.46546  0.00000  0.06908
       7     H     0.45577  0.45577  0.00000  0.08846
       8     H     0.44615  0.44615  0.00000  0.10769
       9     H     0.45963  0.45963  0.00000  0.08075
      10     H     0.45072  0.45072  0.00000  0.09855
      11     H     0.45540  0.45540  0.00000  0.08920
      12     H     0.45284  0.45284  0.00000  0.09431

   Total alpha = 17.00000, Total beta = 17.00000, Total charge = -0.00000
