  ==> Input File <==

--------------------------------------------------------------------------
set {
	reference rhf
	basis 6-31G*
}

set_num_threads( 4 )
memory 2 gb

molecule MOL {
0 1

H	 1.136379	 0.211822	 1.465562
C	 1.135357	 0.094285	 0.374742
C	 0.065331	 0.871482	 -0.349150
O	 1.941633	 -0.601957	 -0.151457
C	 0.646311	 1.984926	 -1.232431
H	 -0.625500	 1.268312	 0.385827
H	 -0.479008	 0.164903	 -0.974132
C	 1.314008	 3.104392	 -0.432805
H	 -0.155270	 2.399398	 -1.835499
H	 1.360901	 1.555774	 -1.931595
H	 0.607767	 3.570177	 0.247485
H	 1.698287	 3.874480	 -1.093570
H	 2.144912	 2.734916	 0.160892

	symmetry c1
}
set optking {
	frozen_dihedral = ("
		6 3 2 4
	")
}

ee = optimize('scf')
oeprop('DIPOLE', 'QUADRUPOLE', 'MULLIKEN_CHARGES')
f=open( 'psi4out.xyz', 'w' )
f.write( "13  " )
f.write( str(ee) + "\n" )
f.write( MOL.save_string_xyz() )
f.close()
--------------------------------------------------------------------------

    Molecular point group: c1
  Charge       = 0
  Multiplicity = 1
  Basis Set: 6-31G*
  Basis Set:
  @DF-RHF Final Energy:  -230.98260123509780
    Total Energy =                       -230.9826012350977180
    Molecular point group: c1
  Basis Set: 6-31G*
  Basis Set:
  Basis Set: 6-31G*
  Basis Set:
  @DF-RHF Final Energy:  -230.98288795289457
    Total Energy =                       -230.9828879528944299
  Basis Set: 6-31G*
  Basis Set:
  Basis Set: 6-31G*
  Basis Set:
  @DF-RHF Final Energy:  -230.98204129481960
    Total Energy =                       -230.9820412948196804
  Basis Set: 6-31G*
  Basis Set:
  Basis Set: 6-31G*
  Basis Set:
  @DF-RHF Final Energy:  -230.98287785295810
    Total Energy =                       -230.9828778529580973
  Basis Set: 6-31G*
  Basis Set:
  @DF-RHF Final Energy:  -230.98284242787230
    Total Energy =                       -230.9828424278722991
  Basis Set: 6-31G*
  Basis Set:
  @DF-RHF Final Energy:  -230.98297823580722
    Total Energy =                       -230.9829782358071952
  Basis Set: 6-31G*
  Basis Set:
  Basis Set: 6-31G*
  Basis Set:
  @DF-RHF Final Energy:  -230.98298227695273
    Total Energy =                       -230.9829822769526118
  Basis Set: 6-31G*
  Basis Set:
  Basis Set: 6-31G*
  Basis Set:
  @DF-RHF Final Energy:  -230.98298362846984
    Total Energy =                       -230.9829836284698956
  Basis Set: 6-31G*
  Basis Set:
  Charge       = 0
  Multiplicity = 1
  Basis Set: 6-31G*
  Basis Set:

    Orbital Energies (a.u.)
    -----------------------

    Doubly Occupied:

       1A    -20.563056     2A    -11.327538     3A    -11.235206
       4A    -11.233461     5A    -11.220815     6A     -1.403307
       7A     -1.081360     8A     -0.971210     9A     -0.853492
      10A     -0.772416    11A     -0.684963    12A     -0.640355
      13A     -0.618579    14A     -0.595839    15A     -0.558473
      16A     -0.533394    17A     -0.504132    18A     -0.489022
      19A     -0.478288    20A     -0.409989

  @DF-RHF Final Energy:  -230.98298396437255

   => Energetics <=

    Nuclear Repulsion Energy =            174.8656390574377895
    One-Electron Energy =                -659.3474516907715497
    Two-Electron Energy =                 253.4988286689613233
    DFT Exchange-Correlation Energy =       0.0000000000000000
    Empirical Dispersion Energy =           0.0000000000000000
    PCM Polarization Energy =               0.0000000000000000
    EFP Energy =                            0.0000000000000000
    Total Energy =                       -230.9829839643724654
    Molecular point group: c1
  Basis Set: 6-31G*
  Basis Set:

  -Total Gradient:
     Atom            X                  Y                   Z
    ------   -----------------  -----------------  -----------------
       1        0.000001689346     0.000000481040    -0.000000708836
       2        0.000457532752     0.000568688409    -0.000083001707
       3        0.000245359831     0.000421522222     0.000079835666
       4       -0.000376100023    -0.000487255805     0.000050312059
       5       -0.000002707961     0.000001372004     0.000000580696
       6       -0.000328956281    -0.000504256918    -0.000045163642
       7        0.000000603845    -0.000001069215    -0.000000195571
       8        0.000001698182    -0.000000337632    -0.000000157404
       9        0.000000117357    -0.000000238193    -0.000001312672
      10        0.000000618592     0.000000886717     0.000000091221
      11        0.000000695594    -0.000000740298    -0.000000513120
      12       -0.000000079518     0.000000472306    -0.000000411559
      13       -0.000000471715     0.000000475364     0.000000644870

  **** Optimization is complete! (in 9 steps) ****
    Final optimized geometry and variables:
    Molecular point group: c1

    Geometry (in Angstrom), charge = 0, multiplicity = 1:

    H            0.112244722631    -0.901884794120     1.837130412743
    C            0.097500696570    -0.997975994776     0.746607293955
    C           -0.976281970236    -0.232364303171     0.002857731784
    O            0.902917703892    -1.680222666684     0.199143274664
    C           -0.390914958476     0.884975428605    -0.875023472471
    H           -1.695583284863     0.172358036505     0.708885156104
    H           -1.498295795551    -0.946577566036    -0.626960887071
    C            0.283197069185     2.001825706672    -0.077142804962
    H           -1.193548765339     1.303493682262    -1.474629372192
    H            0.320119922630     0.442455622581    -1.564279572210
    H           -0.411334507047     2.462363533647     0.619972713981
    H            0.651055541821     2.778950497875    -0.738812967699
    H            1.131459503662     1.631998603773     0.491675310595

  Mulliken Charges: (a.u.)
   Center  Symbol    Alpha    Beta     Spin     Total
       1     H     0.42632  0.42632  0.00000  0.14735
       2     C     2.84509  2.84509  0.00000  0.30983
       3     C     3.20106  3.20106  0.00000 -0.40212
       4     O     4.23683  4.23683  0.00000 -0.47367
       5     C     3.15785  3.15785  0.00000 -0.31569
       6     H     0.41701  0.41701  0.00000  0.16597
       7     H     0.39902  0.39902  0.00000  0.20197
       8     C     3.24559  3.24559  0.00000 -0.49117
       9     H     0.41493  0.41493  0.00000  0.17014
      10     H     0.40481  0.40481  0.00000  0.19039
      11     H     0.42088  0.42088  0.00000  0.15825
      12     H     0.41359  0.41359  0.00000  0.17282
      13     H     0.41703  0.41703  0.00000  0.16593

   Total alpha = 20.00000, Total beta = 20.00000, Total charge = -0.00000
