  ==> Input File <==

--------------------------------------------------------------------------
set {
	reference rhf
	basis 6-31G*
}

set_num_threads( 1 )
memory 2 gb

molecule MOL {
0 1

O	 1.748594	 1.466599	 0.395453
C	 1.411186	 0.625764	 1.165044
C	 0.093500	 -0.109740	 1.140514
O	 2.173687	 0.212485	 2.169498
C	 -0.823008	 0.326187	 0.001381
H	 0.315561	 -1.171846	 1.082768
H	 -0.380349	 0.040761	 2.106711
C	 -2.149452	 -0.435131	 -0.000098
H	 -0.312064	 0.179038	 -0.944913
H	 -1.009637	 1.392581	 0.080651
C	 -3.368779	 0.488503	 -0.000883
H	 -2.193746	 -1.087250	 -0.871175
H	 -2.195311	 -1.087803	 0.870418
C	 -4.693822	 -0.272754	 -0.001129
H	 -3.325798	 1.139422	 -0.871284
H	 -3.326423	 1.139959	 0.869145
H	 -4.781274	 -0.907928	 -0.878124
H	 -5.538651	 0.408946	 -0.001420
H	 -4.781694	 -0.907783	 0.875984
C	 3.443853	 0.823299	 2.305669
H	 4.043477	 0.654168	 1.422848
H	 3.903661	 0.359802	 3.164519
H	 3.339019	 1.886796	 2.465325

	symmetry c1
}
set optking {
	frozen_dihedral = ("
		15 11 8 12,
		1 2 3 6,
		9 5 3 6,
		1 2 4 20
	")
}

ee = energy('scf')
oeprop('DIPOLE', 'QUADRUPOLE', 'MULLIKEN_CHARGES')
f=open( 'psi4out.xyz', 'w' )
f.write( "23  " )
f.write( str(ee) + "\n" )
f.write( MOL.save_string_xyz() )
f.close()
--------------------------------------------------------------------------

    Molecular point group: c1

    Geometry (in Angstrom), charge = 0, multiplicity = 1:

       Center              X                  Y                   Z               Mass
    ------------   -----------------  -----------------  -----------------  -----------------
           O          1.953606868953     1.110985018609    -0.417747903972    15.994914619560
           C          1.616198868953     0.270150018609     0.351843096028    12.000000000000
           C          0.298512868953    -0.465353981391     0.327313096028    12.000000000000
           O          2.378699868953    -0.143128981391     1.356297096028    15.994914619560
           C         -0.617995131047    -0.029426981391    -0.811819903972    12.000000000000
           H          0.520573868953    -1.527459981391     0.269567096028     1.007825032070
           H         -0.175336131047    -0.314852981391     1.293510096028     1.007825032070
           C         -1.944439131047    -0.790744981391    -0.813298903972    12.000000000000
           H         -0.107051131047    -0.176575981391    -1.758113903972     1.007825032070
           H         -0.804624131047     1.036967018609    -0.732549903972     1.007825032070
           C         -3.163766131047     0.132889018609    -0.814083903972    12.000000000000
           H         -1.988733131047    -1.442863981391    -1.684375903972     1.007825032070
           H         -1.990298131047    -1.443416981391     0.057217096028     1.007825032070
           C         -4.488809131047    -0.628367981391    -0.814329903972    12.000000000000
           H         -3.120785131047     0.783808018609    -1.684484903972     1.007825032070
           H         -3.121410131047     0.784345018609     0.055944096028     1.007825032070
           H         -4.576261131047    -1.263541981391    -1.691324903972     1.007825032070
           H         -5.333638131047     0.053332018609    -0.814620903972     1.007825032070
           H         -4.576681131047    -1.263396981391     0.062783096028     1.007825032070
           C          3.648865868953     0.467685018609     1.492468096028    12.000000000000
           H          4.248489868953     0.298554018609     0.609647096028     1.007825032070
           H          4.108673868953     0.004188018609     2.351318096028     1.007825032070
           H          3.544031868953     1.531182018609     1.652124096028     1.007825032070

  Charge       = 0
  Multiplicity = 1
  Basis Set: 6-31G*
  Basis Set:

    Orbital Energies (a.u.)
    -----------------------

    Doubly Occupied:

       1A    -20.603425     2A    -20.545276     3A    -11.371712
       4A    -11.280718     5A    -11.235859     6A    -11.217641
       7A    -11.217377     8A    -11.216110     9A    -11.209468
      10A     -1.469129    11A     -1.362562    12A     -1.093604
      13A     -1.043158    14A     -0.986852    15A     -0.931979
      16A     -0.844474    17A     -0.795058    18A     -0.767484
      19A     -0.699594    20A     -0.682489    21A     -0.672159
      22A     -0.641231    23A     -0.617038    24A     -0.598845
      25A     -0.572565    26A     -0.559617    27A     -0.556219
      28A     -0.527511    29A     -0.521133    30A     -0.501125
      31A     -0.491559    32A     -0.470972    33A     -0.463894
      34A     -0.458566    35A     -0.452208    36A     -0.434827

  @DF-RHF Final Energy:  -422.97071980470406

   => Energetics <=

    Nuclear Repulsion Energy =            453.7870544131390602
    One-Electron Energy =               -1475.2886402983356220
    Two-Electron Energy =                 598.5308660804919327
    DFT Exchange-Correlation Energy =       0.0000000000000000
    Empirical Dispersion Energy =           0.0000000000000000
    PCM Polarization Energy =               0.0000000000000000
    EFP Energy =                            0.0000000000000000
    Total Energy =                       -422.9707198047046859

  Mulliken Charges: (a.u.)
   Center  Symbol    Alpha    Beta     Spin     Total
       1     O     4.28596  4.28596  0.00000 -0.57192
       2     C     2.60563  2.60563  0.00000  0.78873
       3     C     3.21085  3.21085  0.00000 -0.42170
       4     O     4.30740  4.30740  0.00000 -0.61480
       5     C     3.15490  3.15490  0.00000 -0.30980
       6     H     0.40002  0.40002  0.00000  0.19997
       7     H     0.40065  0.40065  0.00000  0.19870
       8     C     3.15612  3.15612  0.00000 -0.31225
       9     H     0.40939  0.40939  0.00000  0.18122
      10     H     0.40896  0.40896  0.00000  0.18208
      11     C     3.15391  3.15391  0.00000 -0.30781
      12     H     0.41933  0.41933  0.00000  0.16135
      13     H     0.42245  0.42245  0.00000  0.15510
      14     C     3.24024  3.24024  0.00000 -0.48049
      15     H     0.42008  0.42008  0.00000  0.15984
      16     H     0.42289  0.42289  0.00000  0.15423
      17     H     0.42134  0.42134  0.00000  0.15733
      18     H     0.41874  0.41874  0.00000  0.16253
      19     H     0.42200  0.42200  0.00000  0.15600
      20     C     3.09244  3.09244  0.00000 -0.18489
      21     H     0.40908  0.40908  0.00000  0.18185
      22     H     0.40850  0.40850  0.00000  0.18300
      23     H     0.40914  0.40914  0.00000  0.18173

   Total alpha = 36.00000, Total beta = 36.00000, Total charge =  0.00000
