                              Psi4 1.0.54 Driver

  ==> Input File <==

--------------------------------------------------------------------------
set {
	reference rhf
	basis cc-pvtz
}

set_num_threads( 4 )
memory 2 gb

molecule MOL {
0 1

H	 2.614283	 2.028610	 0.296620
O	 3.358864	 1.662087	 -0.142800
C	 3.565468	 0.338079	 0.273842
C	 2.533667	 -0.637565	 -0.272227
H	 4.548038	 0.064914	 -0.086598
H	 3.593945	 0.282242	 1.360360
C	 1.097649	 -0.119849	 -0.231344
H	 2.802873	 -0.889150	 -1.293692
H	 2.601851	 -1.555052	 0.307400
C	 0.086919	 -1.138400	 -0.756527
H	 1.028413	 0.791925	 -0.815191
H	 0.838893	 0.143828	 0.792768
C	 -1.376322	 -0.700563	 -0.670045
H	 0.328351	 -1.381304	 -1.788484
H	 0.202891	 -2.060885	 -0.194350
C	 -1.756548	 0.467313	 -1.578469
H	 -2.002359	 -1.552083	 -0.922074
H	 -1.614233	 -0.446710	 0.360544
C	 -3.245310	 0.801480	 -1.530215
H	 -1.476643	 0.229922	 -2.602563
H	 -1.190186	 1.352665	 -1.305725
C	 -3.627736	 1.969487	 -2.433212
H	 -3.819321	 -0.076112	 -1.814683
H	 -3.528384	 1.030654	 -0.506296
H	 -3.386611	 1.758075	 -3.469745
H	 -4.690001	 2.178215	 -2.377243
H	 -3.098217	 2.873277	 -2.150149

	symmetry c1
}
set optking {
	frozen_dihedral = ("
		8 4 3 2
	")
}

ee,wfn = optimize('scf', return_wfn=True)
oeprop( wfn, 'DIPOLE', 'QUADRUPOLE', 'MULLIKEN_CHARGES')
f=open( 'psi4out.xyz', 'w' )
f.write( "27  " )
f.write( str(ee) + "\n" )
f.write( MOL.save_string_xyz() )
f.close()
--------------------------------------------------------------------------

    Molecular point group: c1
  Charge       = 0
  Multiplicity = 1
  Basis Set: CC-PVTZ
  Basis Set:
  @DF-RHF Final Energy:  -388.42537114573906
    Total Energy =                       -388.4253711457388363
    Molecular point group: c1
  Basis Set: CC-PVTZ
  Basis Set:
  Basis Set: CC-PVTZ
  Basis Set:
  @DF-RHF Final Energy:  -388.42568313833124
    Total Energy =                       -388.4256831383311237
  Basis Set: CC-PVTZ
  Basis Set:
  Basis Set: CC-PVTZ
  Basis Set:
  @DF-RHF Final Energy:  -388.42579131251296
    Total Energy =                       -388.4257913125130699
  Basis Set: CC-PVTZ
  Basis Set:
  Basis Set: CC-PVTZ
  Basis Set:
  @DF-RHF Final Energy:  -388.42579499933976
    Total Energy =                       -388.4257949993398142
  Basis Set: CC-PVTZ
  Basis Set:
  Basis Set: CC-PVTZ
  Basis Set:
  @DF-RHF Final Energy:  -388.42579701581104
    Total Energy =                       -388.4257970158107582
  Basis Set: CC-PVTZ
  Basis Set:
  Charge       = 0
  Multiplicity = 1
  Basis Set: CC-PVTZ
  Basis Set:

    Orbital Energies (a.u.)
    -----------------------

    Doubly Occupied:

       1A    -20.545002     2A    -11.265482     3A    -11.216484
       4A    -11.214581     5A    -11.213794     6A    -11.213393
       7A    -11.212969     8A    -11.211208     9A    -11.206662
      10A     -1.363315    11A     -1.095743    12A     -1.061767
      13A     -1.011703    14A     -0.949509    15A     -0.889324
      16A     -0.820241    17A     -0.800712    18A     -0.777868
      19A     -0.696023    20A     -0.650340    21A     -0.637816
      22A     -0.618009    23A     -0.603017    24A     -0.585195
      25A     -0.578933    26A     -0.554630    27A     -0.543384
      28A     -0.530158    29A     -0.505681    30A     -0.492413
      31A     -0.485208    32A     -0.474033    33A     -0.470083
      34A     -0.460986    35A     -0.448861    36A     -0.443409
      37A     -0.425528

  @DF-RHF Final Energy:  -388.42579697344377

   => Energetics <=

    Nuclear Repulsion Energy =            460.9678987307250964
    One-Electron Energy =               -1440.2404558766738774
    Two-Electron Energy =                 590.8467601725042186
    DFT Exchange-Correlation Energy =       0.0000000000000000
    Empirical Dispersion Energy =           0.0000000000000000
    PCM Polarization Energy =               0.0000000000000000
    EFP Energy =                            0.0000000000000000
    Total Energy =                       -388.4257969734445624
    Molecular point group: c1
  Basis Set: CC-PVTZ
  Basis Set:

  -Total Gradient:
     Atom            X                  Y                   Z
    ------   -----------------  -----------------  -----------------
       1       -0.000005789595     0.000012977196     0.000000595326
       2       -0.002314146757     0.000621108571     0.003165604641
       3        0.003806423543    -0.001834828112    -0.003977387228
       4       -0.004122317179     0.005054980627    -0.000801383780
       5        0.000007885980     0.000013162040    -0.000001804639
       6        0.000002715775     0.000018023006    -0.000004530342
       7        0.000036049501    -0.000034061628     0.000002786159
       8        0.002625218291    -0.003855753399     0.001623977810
       9       -0.000014964137    -0.000017498448     0.000010692153
      10       -0.000025701072     0.000020849395    -0.000018887513
      11        0.000026277601    -0.000018960070     0.000005969321
      12       -0.000006119418     0.000004132178    -0.000008122525
      13        0.000004141729     0.000013303106     0.000018416710
      14        0.000001972005     0.000016950273    -0.000000423331
      15       -0.000000619743    -0.000000802852    -0.000009055526
      16       -0.000006114873    -0.000000156914    -0.000002494344
      17        0.000001866424    -0.000001280296     0.000008353549
      18        0.000005368465     0.000006918209     0.000004486391
      19       -0.000001190924    -0.000010777462    -0.000006111032
      20        0.000002790826     0.000004689753    -0.000005089313
      21       -0.000026990227    -0.000011326725    -0.000002988068
      22        0.000001711706    -0.000002071955    -0.000002640543
      23       -0.000002740595     0.000002150124     0.000000740703
      24        0.000003909900    -0.000002224519    -0.000003017316
      25       -0.000001280263     0.000001516807     0.000002062018
      26        0.000002198425     0.000000018365     0.000000853229
      27       -0.000000555385    -0.000001037268    -0.000000602509

  **** Optimization is complete! (in 6 steps) ****
    Final optimized geometry and variables:
    Molecular point group: c1

    Geometry (in Angstrom), charge = 0, multiplicity = 1:

    H            2.560300441117     1.734525505957     1.061160645533
    O            3.317030435657     1.366957999608     0.644572074057
    C            3.477518752578     0.028799790107     1.034143803206
    C            2.431019215880    -0.923106305068     0.458053252550
    H            4.464299064486    -0.267687305339     0.707129813393
    H            3.465887039875    -0.037773941708     2.120274733197
    C            0.993019450755    -0.421951523920     0.539219085167
    H            2.691709698619    -1.177809137619    -0.564969750328
    H            2.514067602950    -1.855705422926     1.012734602515
    C           -0.019927427679    -1.461027246504     0.060725917031
    H            0.897460303389     0.481606032549    -0.050425929415
    H            0.761531564035    -0.152279022465     1.569365172412
    C           -1.484628574267    -1.035260746111     0.177990622132
    H            0.196474679480    -1.719742512648    -0.972939541703
    H            0.120134031816    -2.372056227155     0.635654106422
    C           -1.902338993576     0.105712400603    -0.747942869601
    H           -2.108736091465    -1.898654872625    -0.035244856833
    H           -1.696288350889    -0.758458605700     1.208431334072
    C           -3.391664171722     0.429454629162    -0.662645489593
    H           -1.651993663318    -0.156510411783    -1.773542986048
    H           -1.335224876461     1.002084490970    -0.516504844987
    C           -3.811504088506     1.569970620853    -1.583889309149
    H           -3.966728022989    -0.459766984844    -0.905896977386
    H           -3.645174514151     0.683720562902     0.363072886144
    H           -3.601495909005     1.332377050429    -2.621476362113
    H           -4.873052749752     1.772711216334    -1.499876850219
    H           -3.280306703163     2.484623239140    -1.342120081311

  Mulliken Charges: (a.u.)
   Center  Symbol    Alpha    Beta     Spin     Total
       1     H     0.39027  0.39027  0.00000  0.21945
       2     O     4.20568  4.20568  0.00000 -0.41135
       3     C     2.98056  2.98056  0.00000  0.03889
       4     C     3.08886  3.08886  0.00000 -0.17771
       5     H     0.44974  0.44974  0.00000  0.10052
       6     H     0.46936  0.46936  0.00000  0.06127
       7     C     3.10644  3.10644  0.00000 -0.21288
       8     H     0.45172  0.45172  0.00000  0.09656
       9     H     0.45665  0.45665  0.00000  0.08671
      10     C     3.10029  3.10029  0.00000 -0.20059
      11     H     0.44628  0.44628  0.00000  0.10744
      12     H     0.45570  0.45570  0.00000  0.08859
      13     C     3.09822  3.09822  0.00000 -0.19644
      14     H     0.45187  0.45187  0.00000  0.09627
      15     H     0.44809  0.44809  0.00000  0.10381
      16     C     3.08795  3.08795  0.00000 -0.17590
      17     H     0.44801  0.44801  0.00000  0.10397
      18     H     0.45425  0.45425  0.00000  0.09151
      19     C     3.08413  3.08413  0.00000 -0.16827
      20     H     0.45424  0.45424  0.00000  0.09153
      21     H     0.45445  0.45445  0.00000  0.09111
      22     C     3.14956  3.14956  0.00000 -0.29913
      23     H     0.45394  0.45394  0.00000  0.09211
      24     H     0.45491  0.45491  0.00000  0.09019
      25     H     0.45489  0.45489  0.00000  0.09022
      26     H     0.44847  0.44847  0.00000  0.10307
      27     H     0.45548  0.45548  0.00000  0.08904

   Total alpha = 37.00000, Total beta = 37.00000, Total charge = -0.00000

*** Psi4 exiting successfully. Buy a developer a beer!
