  ==> Input File <==

--------------------------------------------------------------------------
set {
	reference rhf
	basis 6-31G*
}

set_num_threads( 4 )
memory 2 gb

molecule MOL {
0 1

O	 1.213174	 1.309351	 -0.053208
C	 1.117465	 0.129121	 -0.157800
C	 -0.174673	 -0.650793	 -0.155120
O	 2.164069	 -0.675303	 -0.293806
C	 -1.412532	 0.227344	 -0.000452
H	 -0.210580	 -1.222701	 -1.078368
H	 -0.109723	 -1.384017	 0.644204
C	 -2.706999	 -0.587347	 -0.000541
H	 -1.436878	 0.957122	 -0.803780
H	 -1.335637	 0.795977	 0.921094
C	 -3.956778	 0.291888	 0.000910
H	 -2.726114	 -1.239230	 -0.871609
H	 -2.725217	 -1.240844	 0.869333
H	 -3.985213	 0.933254	 -0.875158
H	 -4.860123	 -0.309979	 0.000519
H	 -3.984618	 0.931166	 0.878514
C	 3.443199	 -0.068147	 -0.311937
H	 3.524044	 0.623135	 -1.138424
H	 4.150846	 -0.874192	 -0.428023
H	 3.626048	 0.460529	 0.612495

	symmetry c1
}
set optking {
	frozen_dihedral = ("
		9 5 8 12
	")
}

ee = optimize('scf')
oeprop('DIPOLE', 'QUADRUPOLE', 'MULLIKEN_CHARGES')
f=open( 'psi4out.xyz', 'w' )
f.write( "20  " )
f.write( str(ee) + "\n" )
f.write( MOL.save_string_xyz() )
f.close()
--------------------------------------------------------------------------

    Molecular point group: c1
  Charge       = 0
  Multiplicity = 1
  Basis Set: 6-31G*
  Basis Set:
  @DF-RHF Final Energy:  -383.94143649462546
    Total Energy =                       -383.9414364946258047
    Molecular point group: c1
  Basis Set: 6-31G*
  Basis Set:
  Basis Set: 6-31G*
  Basis Set:
  @DF-RHF Final Energy:  -383.94145173985396
    Total Energy =                       -383.9414517398541875
  Basis Set: 6-31G*
  Basis Set:
  Basis Set: 6-31G*
  Basis Set:
  @DF-RHF Final Energy:  -383.94141069016240
    Total Energy =                       -383.9414106901625701
  Basis Set: 6-31G*
  Basis Set:
  Basis Set: 6-31G*
  Basis Set:
  @DF-RHF Final Energy:  -383.94146224799323
    Total Energy =                       -383.9414622479935133
  Basis Set: 6-31G*
  Basis Set:
  Basis Set: 6-31G*
  Basis Set:
  @DF-RHF Final Energy:  -383.94146325345349
    Total Energy =                       -383.9414632534533212
  Basis Set: 6-31G*
  Basis Set:
  Charge       = 0
  Multiplicity = 1
  Basis Set: 6-31G*
  Basis Set:

    Orbital Energies (a.u.)
    -----------------------

    Doubly Occupied:

       1A    -20.603797     2A    -20.545608     3A    -11.372481
       4A    -11.280968     5A    -11.235850     6A    -11.220308
       7A    -11.219296     8A    -11.210788     9A     -1.469504
      10A     -1.362961    11A     -1.088732    12A     -1.024494
      13A     -0.969204    14A     -0.886009    15A     -0.804177
      16A     -0.767702    17A     -0.696958    18A     -0.683769
      19A     -0.672097    20A     -0.645558    21A     -0.597549
      22A     -0.592151    23A     -0.579025    24A     -0.539543
      25A     -0.537424    26A     -0.522880    27A     -0.500708
      28A     -0.478843    29A     -0.473497    30A     -0.469899
      31A     -0.455772    32A     -0.437128

  @DF-RHF Final Energy:  -383.94146326990995

   => Energetics <=

    Nuclear Repulsion Energy =            381.0574480472544110
    One-Electron Energy =               -1278.1084642122691548
    Two-Electron Energy =                 513.1095528951052529
    DFT Exchange-Correlation Energy =       0.0000000000000000
    Empirical Dispersion Energy =           0.0000000000000000
    PCM Polarization Energy =               0.0000000000000000
    EFP Energy =                            0.0000000000000000
    Total Energy =                       -383.9414632699094909
    Molecular point group: c1
  Basis Set: 6-31G*
  Basis Set:

  -Total Gradient:
     Atom            X                  Y                   Z
    ------   -----------------  -----------------  -----------------
       1       -0.000000445266    -0.000000381836    -0.000005409663
       2        0.000000762047    -0.000003214652     0.000010710902
       3        0.000001343245     0.000000496564     0.000008000787
       4        0.000001212729     0.000001695956     0.000000062124
       5        0.000774608598    -0.001251540569    -0.000825527459
       6       -0.000000827414     0.000003988030    -0.000002158661
       7       -0.000000792130    -0.000000437897    -0.000003251912
       8       -0.000826151013     0.001307704558    -0.000604199189
       9       -0.000509477431     0.000834141926     0.000767216427
      10       -0.000006281887     0.000001179818     0.000000783177
      11       -0.000003013971    -0.000000286649    -0.000004375642
      12        0.000562642803    -0.000885681514     0.000654388531
      13        0.000002985600    -0.000006597662     0.000002034362
      14        0.000003913053     0.000002124493     0.000004418280
      15       -0.000000394100     0.000000759907    -0.000004821045
      16       -0.000000918587    -0.000003742954     0.000003207373
      17        0.000000549903    -0.000000402519    -0.000000986508
      18        0.000000236601     0.000000143308    -0.000000053328
      19        0.000000224719     0.000000107306    -0.000000057804
      20       -0.000000177503    -0.000000055617     0.000000019248

  **** Optimization is complete! (in 6 steps) ****
    Final optimized geometry and variables:
    Molecular point group: c1

    Geometry (in Angstrom), charge = 0, multiplicity = 1:

    O            1.217090722808     1.303343134802     0.071882376269
    C            1.121482730369     0.123375287857    -0.035484306157
    C           -0.170989498518    -0.655974552694    -0.042972709859
    O            2.168522983726    -0.681342685512    -0.166469741428
    C           -1.409293344576     0.222177059156     0.102810882299
    H           -0.200141357333    -1.227559076414    -0.966563244586
    H           -0.112638388470    -1.389500246069     0.756683149636
    C           -2.704539874724    -0.591761075052     0.116631192173
    H           -1.437278977358     0.949477536808    -0.702803626513
    H           -1.332517747841     0.799774267906     1.018926630196
    C           -3.954815199587     0.285618712733     0.139846757800
    H           -2.733989985144    -1.248493055024    -0.750599751035
    H           -2.707804200593    -1.246193514484     0.986207545433
    H           -4.003971082821     0.920470281994    -0.739979073047
    H           -4.857137353136    -0.317232318753     0.164797273431
    H           -3.963239598517     0.931309307428     1.013213094039
    C            3.448054561292    -0.074847042319    -0.175182791764
    H            3.534440122340     0.618325411086    -0.999534766410
    H            4.155973188893    -0.881019029069    -0.288731189808
    H            3.625418380618     0.451561523753     0.751609248868

  Mulliken Charges: (a.u.)
   Center  Symbol    Alpha    Beta     Spin     Total
       1     O     4.28593  4.28593  0.00000 -0.57186
       2     C     2.60522  2.60522  0.00000  0.78955
       3     C     3.20812  3.20812  0.00000 -0.41625
       4     O     4.30725  4.30725  0.00000 -0.61449
       5     C     3.15136  3.15136  0.00000 -0.30272
       6     H     0.40058  0.40058  0.00000  0.19885
       7     H     0.40062  0.40062  0.00000  0.19877
       8     C     3.15427  3.15427  0.00000 -0.30855
       9     H     0.41221  0.41221  0.00000  0.17557
      10     H     0.41169  0.41169  0.00000  0.17662
      11     C     3.23933  3.23933  0.00000 -0.47867
      12     H     0.42328  0.42328  0.00000  0.15344
      13     H     0.42270  0.42270  0.00000  0.15460
      14     H     0.42001  0.42001  0.00000  0.15997
      15     H     0.41869  0.41869  0.00000  0.16262
      16     H     0.41978  0.41978  0.00000  0.16044
      17     C     3.09245  3.09245  0.00000 -0.18490
      18     H     0.40904  0.40904  0.00000  0.18192
      19     H     0.40840  0.40840  0.00000  0.18319
      20     H     0.40905  0.40905  0.00000  0.18190

   Total alpha = 32.00000, Total beta = 32.00000, Total charge =  0.00000
