  ==> Input File <==

--------------------------------------------------------------------------
set {
	reference rhf
	basis 6-31G*
}

set_num_threads( 4 )
memory 2 gb

molecule MOL {
0 1

H	 1.919516	 -0.717330	 0.891042
O	 1.586534	 -0.678666	 -0.000226
C	 0.489431	 0.077273	 0.000046
C	 -0.764129	 -0.759190	 0.000191
O	 0.537743	 1.263962	 0.000257
C	 -2.038368	 0.075731	 -0.000248
H	 -0.717284	 -1.412404	 -0.866059
H	 -0.717458	 -1.411724	 0.866967
H	 -2.086483	 0.712501	 -0.875098
H	 -2.908485	 -0.571682	 -0.000042
H	 -2.086576	 0.713280	 0.874068

	symmetry c1
}
set optking {
	frozen_dihedral = ("
		1 2 3 5
	")
}

ee = optimize('scf')
oeprop('DIPOLE', 'QUADRUPOLE', 'MULLIKEN_CHARGES')
f=open( 'psi4out.xyz', 'w' )
f.write( "11  " )
f.write( str(ee) + "\n" )
f.write( MOL.save_string_xyz() )
f.close()
--------------------------------------------------------------------------

    Molecular point group: c1
  Charge       = 0
  Multiplicity = 1
  Basis Set: 6-31G*
  Basis Set:
  @DF-RHF Final Energy:  -266.82429261869936
    Total Energy =                       -266.8242926186991895
    Molecular point group: c1
  Basis Set: 6-31G*
  Basis Set:
  Basis Set: 6-31G*
  Basis Set:
  @DF-RHF Final Energy:  -266.82401438443731
    Total Energy =                       -266.8240143844373051
  Basis Set: 6-31G*
  Basis Set:
  Basis Set: 6-31G*
  Basis Set:
  @DF-RHF Final Energy:  -266.82517629083588
    Total Energy =                       -266.8251762908357136
  Basis Set: 6-31G*
  Basis Set:
  Basis Set: 6-31G*
  Basis Set:
  @DF-RHF Final Energy:  -266.82602166705419
    Total Energy =                       -266.8260216670540785
  Basis Set: 6-31G*
  Basis Set:
  Basis Set: 6-31G*
  Basis Set:
  @DF-RHF Final Energy:  -266.82602921929492
    Total Energy =                       -266.8260292192949237
  Basis Set: 6-31G*
  Basis Set:
  Charge       = 0
  Multiplicity = 1
  Basis Set: 6-31G*
  Basis Set:

    Orbital Energies (a.u.)
    -----------------------

    Doubly Occupied:

       1A    -20.595488     2A    -20.563230     3A    -11.382312
       4A    -11.245268     5A    -11.221271     6A     -1.461377
       7A     -1.367995     8A     -1.063856     9A     -0.910641
      10A     -0.804898    11A     -0.710322    12A     -0.676381
      13A     -0.658092    14A     -0.612707    15A     -0.567253
      16A     -0.528188    17A     -0.521740    18A     -0.500007
      19A     -0.490636    20A     -0.446132

  @DF-RHF Final Energy:  -266.82602973043316

   => Energetics <=

    Nuclear Repulsion Energy =            178.9773128228842438
    One-Electron Energy =                -718.9510931159409211
    Two-Electron Energy =                 273.1477505626233437
    DFT Exchange-Correlation Energy =       0.0000000000000000
    Empirical Dispersion Energy =           0.0000000000000000
    PCM Polarization Energy =               0.0000000000000000
    EFP Energy =                            0.0000000000000000
    Total Energy =                       -266.8260297304333903
    Molecular point group: c1
  Basis Set: 6-31G*
  Basis Set:

  -Total Gradient:
     Atom            X                  Y                   Z
    ------   -----------------  -----------------  -----------------
       1       -0.003202466767    -0.004875640556     0.001289318251
       2        0.003833180048     0.006127175765    -0.004018418543
       3       -0.000334246139    -0.001144076658     0.007993792145
       4       -0.000013525964     0.000034155394     0.000008862262
       5       -0.000288575754    -0.000106656761    -0.005267213822
       6        0.000005959139    -0.000010792908    -0.000005491263
       7       -0.000004421260    -0.000004376906    -0.000002995110
       8       -0.000011005639    -0.000015160024     0.000001165673
       9        0.000003623786     0.000000952605    -0.000004437093
      10        0.000006589880    -0.000003053771     0.000001302882
      11        0.000004888669    -0.000002526183     0.000004114619

  **** Optimization is complete! (in 6 steps) ****
    Final optimized geometry and variables:
    Molecular point group: c1

    Geometry (in Angstrom), charge = 0, multiplicity = 1:

    H            2.041906548317    -0.723543533468     0.823168391112
    O            1.620311214524    -0.673521854784    -0.026276593930
    C            0.491309515164     0.086386435531     0.018568776918
    C           -0.768335713858    -0.742548057954    -0.002629342833
    O            0.531122602451     1.265474693082    -0.007785327806
    C           -2.044606332447     0.088092719497    -0.029957742880
    H           -0.699979390039    -1.397609997642    -0.866495262419
    H           -0.741333162923    -1.400250493298     0.862859599918
    H           -2.074345893229     0.724089755040    -0.906209039232
    H           -2.913842793857    -0.560364461801    -0.048247844850
    H           -2.113940425925     0.726856725454     0.842425172803

  Mulliken Charges: (a.u.)
   Center  Symbol    Alpha    Beta     Spin     Total
       1     H     0.26565  0.26565  0.00000  0.46870
       2     O     4.36884  4.36884  0.00000 -0.73769
       3     C     2.63295  2.63295  0.00000  0.73411
       4     C     3.20685  3.20685  0.00000 -0.41370
       5     O     4.24664  4.24664  0.00000 -0.49327
       6     C     3.23980  3.23980  0.00000 -0.47960
       7     H     0.39625  0.39625  0.00000  0.20750
       8     H     0.40759  0.40759  0.00000  0.18481
       9     H     0.40774  0.40774  0.00000  0.18452
      10     H     0.41682  0.41682  0.00000  0.16636
      11     H     0.41087  0.41087  0.00000  0.17827

   Total alpha = 20.00000, Total beta = 20.00000, Total charge =  0.00000
