  ==> Input File <==

--------------------------------------------------------------------------
set {
	reference rhf
	basis cc-pvtz
}

set_num_threads( 4 )
memory 2 gb

molecule MOL {
0 1

H	 -1.002690	 0.599106	 -0.836469
N	 -0.712187	 0.000026	 -0.093397
C	 0.734067	 -0.000020	 0.038424
H	 -1.051327	 -0.914477	 -0.303425
H	 1.140372	 -0.872115	 -0.458226
H	 1.140363	 0.872301	 -0.457869
H	 1.095085	 -0.000244	 1.065614

	symmetry c1
}
set optking {
	frozen_dihedral = ("
		1 2 3 7
	")
}

ee = optimize('scf')
oeprop('DIPOLE', 'QUADRUPOLE', 'MULLIKEN_CHARGES')
f=open( 'psi4out.xyz', 'w' )
f.write( "7  " )
f.write( str(ee) + "\n" )
f.write( MOL.save_string_xyz() )
f.close()
--------------------------------------------------------------------------

    Molecular point group: c1
  Charge       = 0
  Multiplicity = 1
  Basis Set: CC-PVTZ
  Basis Set:
  @DF-RHF Final Energy:   -95.25003860426588
    Total Energy =                        -95.2500386042658818
    Molecular point group: c1
  Basis Set: CC-PVTZ
  Basis Set:
  Basis Set: CC-PVTZ
  Basis Set:
  @DF-RHF Final Energy:   -95.25126819502495
    Total Energy =                        -95.2512681950249487
  Basis Set: CC-PVTZ
  Basis Set:
  Basis Set: CC-PVTZ
  Basis Set:
  @DF-RHF Final Energy:   -95.25140072008854
    Total Energy =                        -95.2514007200885260
  Basis Set: CC-PVTZ
  Basis Set:
  Basis Set: CC-PVTZ
  Basis Set:
  @DF-RHF Final Energy:   -95.25140781838789
    Total Energy =                        -95.2514078183879462
  Basis Set: CC-PVTZ
  Basis Set:
  Charge       = 0
  Multiplicity = 1
  Basis Set: CC-PVTZ
  Basis Set:

    Orbital Energies (a.u.)
    -----------------------

    Doubly Occupied:

       1A    -15.525795     2A    -11.235382     3A     -1.169167
       4A     -0.897623     5A     -0.667394     6A     -0.600714
       7A     -0.561864     8A     -0.516948     9A     -0.382034

  @DF-RHF Final Energy:   -95.25140864306289

   => Energetics <=

    Nuclear Repulsion Energy =             42.3469347878308326
    One-Electron Energy =                -212.0828464359396435
    Two-Electron Energy =                  74.4845030050458661
    DFT Exchange-Correlation Energy =       0.0000000000000000
    Empirical Dispersion Energy =           0.0000000000000000
    PCM Polarization Energy =               0.0000000000000000
    EFP Energy =                            0.0000000000000000
    Total Energy =                        -95.2514086430629447
    Molecular point group: c1
  Basis Set: CC-PVTZ
  Basis Set:

  -Total Gradient:
     Atom            X                  Y                   Z
    ------   -----------------  -----------------  -----------------
       1       -0.000124327974     0.002088631959     0.001728446654
       2        0.000048127922    -0.001970832022    -0.002197168839
       3        0.000057784544    -0.002652873582     0.000503590379
       4        0.000007963558     0.000013328688    -0.000001614886
       5       -0.000015880270     0.000031691852     0.000004431430
       6       -0.000006915424     0.000004311535     0.000000513325
       7        0.000033247644     0.002485741570    -0.000038198063

  **** Optimization is complete! (in 5 steps) ****
    Final optimized geometry and variables:
    Molecular point group: c1

    Geometry (in Angstrom), charge = 0, multiplicity = 1:

    H           -1.023859766838     0.609360026620    -0.770469666173
    N           -0.717644294354     0.018063566746    -0.031287255628
    C            0.732277811462    -0.001425137988     0.085171039795
    H           -1.100868315410    -0.889732144426    -0.171089807237
    H            1.198383488562    -0.851401847366    -0.404657210533
    H            1.147023362020     0.894760322268    -0.360035075626
    H            1.031415975544     0.003000993313     1.126850868548

  Mulliken Charges: (a.u.)
   Center  Symbol    Alpha    Beta     Spin     Total
       1     H     0.42583  0.42583  0.00000  0.14834
       2     N     3.69089  3.69089  0.00000 -0.38178
       3     C     3.06815  3.06815  0.00000 -0.13630
       4     H     0.42685  0.42685  0.00000  0.14631
       5     H     0.46798  0.46798  0.00000  0.06403
       6     H     0.46008  0.46008  0.00000  0.07983
       7     H     0.46022  0.46022  0.00000  0.07956

   Total alpha =  9.00000, Total beta =  9.00000, Total charge = -0.00000
