  ==> Input File <==

--------------------------------------------------------------------------
set {
	reference rhf
	basis 6-31G*
}

set_num_threads( 1 )
memory 2 gb

molecule MOL {
0 1

H	 3.893188	 0.355400	 -0.101367
N	 3.092854	 -0.246221	 -0.068770
C	 1.865559	 0.531981	 0.018834
H	 3.199514	 -0.826043	 0.741946
C	 0.645745	 -0.382037	 -0.029944
H	 1.841966	 1.207024	 -0.831236
H	 1.815756	 1.155410	 0.915079
C	 -0.679275	 0.379305	 0.025956
H	 0.698998	 -0.976915	 -0.937203
H	 0.693479	 -1.083846	 0.802235
C	 -1.899857	 -0.519256	 -0.181750
H	 -0.678399	 1.161105	 -0.732092
H	 -0.768147	 0.886276	 0.985606
C	 -3.221451	 0.246339	 -0.129170
H	 -1.813909	 -1.025817	 -1.140511
H	 -1.904839	 -1.299970	 0.575954
H	 -3.261329	 1.012854	 -0.898052
H	 -4.067239	 -0.417318	 -0.280191
H	 -3.353053	 0.736308	 0.831560

	symmetry c1
}
set optking {
	frozen_dihedral = ("
		6 3 5 9,
		12 8 11 15,
		1 2 3 6
	")
}

ee = energy('scf')
oeprop('DIPOLE', 'QUADRUPOLE', 'MULLIKEN_CHARGES')
f=open( 'psi4out.xyz', 'w' )
f.write( "19  " )
f.write( str(ee) + "\n" )
f.write( MOL.save_string_xyz() )
f.close()
--------------------------------------------------------------------------

    Molecular point group: c1

    Geometry (in Angstrom), charge = 0, multiplicity = 1:

       Center              X                  Y                   Z               Mass
    ------------   -----------------  -----------------  -----------------  -----------------
           H          3.891981207489     0.349435666124    -0.048732866630     1.007825032070
           N          3.091647207489    -0.252185333876    -0.016135866630    14.003074004780
           C          1.864352207489     0.526016666124     0.071468133370    12.000000000000
           H          3.198307207489    -0.832007333876     0.794580133370     1.007825032070
           C          0.644538207489    -0.388001333876     0.022690133370    12.000000000000
           H          1.840759207489     1.201059666124    -0.778601866630     1.007825032070
           H          1.814549207489     1.149445666124     0.967713133370     1.007825032070
           C         -0.680481792511     0.373340666124     0.078590133370    12.000000000000
           H          0.697791207489    -0.982879333876    -0.884568866630     1.007825032070
           H          0.692272207489    -1.089810333876     0.854869133370     1.007825032070
           C         -1.901063792511    -0.525220333876    -0.129115866630    12.000000000000
           H         -0.679605792511     1.155140666124    -0.679457866630     1.007825032070
           H         -0.769353792511     0.880311666124     1.038240133370     1.007825032070
           C         -3.222657792511     0.240374666124    -0.076535866630    12.000000000000
           H         -1.815115792511    -1.031781333876    -1.087876866630     1.007825032070
           H         -1.906045792511    -1.305934333876     0.628588133370     1.007825032070
           H         -3.262535792511     1.006889666124    -0.845417866630     1.007825032070
           H         -4.068445792511    -0.423282333876    -0.227556866630     1.007825032070
           H         -3.354259792511     0.730343666124     0.884194133370     1.007825032070

  Charge       = 0
  Multiplicity = 1
  Basis Set: 6-31G*
  Basis Set:

    Orbital Energies (a.u.)
    -----------------------

    Doubly Occupied:

       1A    -15.532495     2A    -11.239762     3A    -11.213890
       4A    -11.212715     5A    -11.209416     6A    -11.207439
       7A     -1.176615     8A     -1.072912     9A     -0.998353
      10A     -0.900151    11A     -0.813036    12A     -0.789193
      13A     -0.664429    14A     -0.641793    15A     -0.617610
      16A     -0.587790    17A     -0.565693    18A     -0.548331
      19A     -0.528969    20A     -0.499459    21A     -0.480073
      22A     -0.465141    23A     -0.460759    24A     -0.449995
      25A     -0.380925

  @DF-RHF Final Energy:  -251.35159403841743

   => Energetics <=

    Nuclear Repulsion Energy =            245.6566630026918006
    One-Electron Energy =                -825.5025384634246848
    Two-Electron Energy =                 328.4942814223159644
    DFT Exchange-Correlation Energy =       0.0000000000000000
    Empirical Dispersion Energy =           0.0000000000000000
    PCM Polarization Energy =               0.0000000000000000
    EFP Energy =                            0.0000000000000000
    Total Energy =                       -251.3515940384169767

  Mulliken Charges: (a.u.)
   Center  Symbol    Alpha    Beta     Spin     Total
       1     H     0.33248  0.33248  0.00000  0.33504
       2     N     3.92188  3.92188  0.00000 -0.84376
       3     C     3.06035  3.06035  0.00000 -0.12070
       4     H     0.33537  0.33537  0.00000  0.32925
       5     C     3.15158  3.15158  0.00000 -0.30316
       6     H     0.42081  0.42081  0.00000  0.15839
       7     H     0.43479  0.43479  0.00000  0.13042
       8     C     3.15489  3.15489  0.00000 -0.30979
       9     H     0.41322  0.41322  0.00000  0.17356
      10     H     0.42744  0.42744  0.00000  0.14512
      11     C     3.15088  3.15088  0.00000 -0.30177
      12     H     0.42401  0.42401  0.00000  0.15198
      13     H     0.42449  0.42449  0.00000  0.15102
      14     C     3.23933  3.23933  0.00000 -0.47867
      15     H     0.42180  0.42180  0.00000  0.15640
      16     H     0.42322  0.42322  0.00000  0.15356
      17     H     0.42181  0.42181  0.00000  0.15638
      18     H     0.41935  0.41935  0.00000  0.16130
      19     H     0.42229  0.42229  0.00000  0.15543

   Total alpha = 25.00000, Total beta = 25.00000, Total charge =  0.00000
