                              Psi4 1.0.54 Driver

  ==> Input File <==

--------------------------------------------------------------------------
set {
	reference rhf
	basis cc-pvtz
}

set_num_threads( 4 )
memory 2 gb

molecule MOL {
0 1

H	 1.383075	 -1.151303	 1.400380
C	 0.482881	 -1.267998	 0.814937
O	 0.000000	 0.000000	 0.518769
H	 0.722665	 -1.824299	 -0.088882
H	 -0.237666	 -1.844187	 1.391716
C	 -1.165153	 0.000000	 -0.236961
H	 -1.229451	 0.882440	 -0.870223
H	 -2.002557	 0.000000	 0.445289
H	 -1.229451	 -0.882440	 -0.870223

	symmetry c1
}
set optking {
	frozen_dihedral = ("
		2 3 6 7
	")
}

ee,wfn = optimize('scf', return_wfn=True)
oeprop( wfn, 'DIPOLE', 'QUADRUPOLE', 'MULLIKEN_CHARGES')
f=open( 'psi4out.xyz', 'w' )
f.write( "9  " )
f.write( str(ee) + "\n" )
f.write( MOL.save_string_xyz() )
f.close()
--------------------------------------------------------------------------

    Molecular point group: c1
  Charge       = 0
  Multiplicity = 1
  Basis Set: CC-PVTZ
  Basis Set:
  @DF-RHF Final Energy:  -154.12440669489115
    Total Energy =                       -154.1244066948912632
    Molecular point group: c1
  Basis Set: CC-PVTZ
  Basis Set:
  Basis Set: CC-PVTZ
  Basis Set:
  @DF-RHF Final Energy:  -154.12518466639585
    Total Energy =                       -154.1251846663959100
  Basis Set: CC-PVTZ
  Basis Set:
  Basis Set: CC-PVTZ
  Basis Set:
  @DF-RHF Final Energy:  -154.12535234891624
    Total Energy =                       -154.1253523489162944
  Basis Set: CC-PVTZ
  Basis Set:
  Charge       = 0
  Multiplicity = 1
  Basis Set: CC-PVTZ
  Basis Set:

    Orbital Energies (a.u.)
    -----------------------

    Doubly Occupied:

       1A    -20.548579     2A    -11.263429     3A    -11.262903
       4A     -1.380322     5A     -0.975843     6A     -0.872724
       7A     -0.662133     8A     -0.654730     9A     -0.645906
      10A     -0.556496    11A     -0.527561    12A     -0.475709
      13A     -0.418124

  @DF-RHF Final Energy:  -154.12535282854924

   => Energetics <=

    Nuclear Repulsion Energy =             84.7220175318311846
    One-Electron Energy =                -377.2058254462245372
    Two-Electron Energy =                 138.3584550858441560
    DFT Exchange-Correlation Energy =       0.0000000000000000
    Empirical Dispersion Energy =           0.0000000000000000
    PCM Polarization Energy =               0.0000000000000000
    EFP Energy =                            0.0000000000000000
    Total Energy =                       -154.1253528285492109
    Molecular point group: c1
  Basis Set: CC-PVTZ
  Basis Set:

  -Total Gradient:
     Atom            X                  Y                   Z
    ------   -----------------  -----------------  -----------------
       1       -0.000006153878     0.000014085595     0.000006868269
       2        0.001379147834    -0.000064653016    -0.001981299515
       3       -0.001606150063    -0.000299725044     0.002285696930
       4       -0.000003458260    -0.000005272832    -0.000003411358
       5       -0.000010114437     0.000050961023    -0.000015322421
       6       -0.001193321253     0.001745464516     0.001771308122
       7        0.001449994483    -0.001461740861    -0.002057228430
       8       -0.000000250383     0.000011865053     0.000000674452
       9       -0.000009694042     0.000009015567    -0.000007286049

  **** Optimization is complete! (in 4 steps) ****
    Final optimized geometry and variables:
    Molecular point group: c1

    Geometry (in Angstrom), charge = 0, multiplicity = 1:

    H            1.586644122800    -0.693689752001     1.105409425591
    C            0.707939285973    -0.828009039736     0.491205117810
    O            0.227462630227     0.432142017831     0.158031158133
    H            0.983112826222    -1.394858733944    -0.395138164774
    H           -0.024205014638    -1.403637614023     1.054224749717
    C           -0.917088184987     0.434183448409    -0.633746537544
    H           -0.903607125607     1.323333363544    -1.249029190905
    H           -1.818701848586     0.425171912853    -0.027537417946
    H           -0.942939857524    -0.425512749962    -1.298782296535

  Mulliken Charges: (a.u.)
   Center  Symbol    Alpha    Beta     Spin     Total
       1     H     0.44922  0.44922  0.00000  0.10156
       2     C     3.02137  3.02137  0.00000 -0.04273
       3     O     4.17015  4.17015  0.00000 -0.34029
       4     H     0.47214  0.47214  0.00000  0.05573
       5     H     0.47369  0.47369  0.00000  0.05262
       6     C     3.01877  3.01877  0.00000 -0.03754
       7     H     0.45214  0.45214  0.00000  0.09572
       8     H     0.46639  0.46639  0.00000  0.06722
       9     H     0.47614  0.47614  0.00000  0.04772

   Total alpha = 13.00000, Total beta = 13.00000, Total charge =  0.00000

*** Psi4 exiting successfully. Buy a developer a beer!
