                              Psi4 1.0.54 Driver

  ==> Input File <==

--------------------------------------------------------------------------
set {
	reference rhf
	basis cc-pvtz
}

set_num_threads( 4 )
memory 2 gb

molecule MOL {
0 1

O	 0.395927	 1.296676	 -0.000076
C	 0.503051	 0.114301	 -0.000074
C	 -0.701422	 -0.805636	 -0.000109
C	 1.858118	 -0.556123	 0.000212
C	 -0.356883	 -2.278101	 0.158705
H	 -1.366207	 -0.475119	 0.793777
H	 -1.246114	 -0.632342	 -0.924620
H	 0.164322	 -2.456291	 1.089737
H	 -1.258788	 -2.878399	 0.150605
H	 0.285476	 -2.614925	 -0.643888
H	 1.961106	 -1.191101	 -0.872843
H	 2.636688	 0.191085	 -0.000109
H	 1.961070	 -1.190284	 0.873873

	symmetry c1
}
set optking {
	frozen_dihedral = ("
		6 3 2 1
	")
}

ee,wfn = optimize('scf', return_wfn=True)
oeprop( wfn, 'DIPOLE', 'QUADRUPOLE', 'MULLIKEN_CHARGES')
f=open( 'psi4out.xyz', 'w' )
f.write( "13  " )
f.write( str(ee) + "\n" )
f.write( MOL.save_string_xyz() )
f.close()
--------------------------------------------------------------------------

    Molecular point group: c1
  Charge       = 0
  Multiplicity = 1
  Basis Set: CC-PVTZ
  Basis Set:
  @DF-RHF Final Energy:  -231.07648647505079
    Total Energy =                       -231.0764864750507854
    Molecular point group: c1
  Basis Set: CC-PVTZ
  Basis Set:
  Basis Set: CC-PVTZ
  Basis Set:
  @DF-RHF Final Energy:  -231.07453476254832
    Total Energy =                       -231.0745347625483248
  Basis Set: CC-PVTZ
  Basis Set:
  Basis Set: CC-PVTZ
  Basis Set:
  @DF-RHF Final Energy:  -231.07885900520759
    Total Energy =                       -231.0788590052075051
  Basis Set: CC-PVTZ
  Basis Set:
  Basis Set: CC-PVTZ
  Basis Set:
  @DF-RHF Final Energy:  -231.07868517843121
    Total Energy =                       -231.0786851784309874
  Basis Set: CC-PVTZ
  Basis Set:
  Basis Set: CC-PVTZ
  Basis Set:
  @DF-RHF Final Energy:  -231.07891468650510
    Total Energy =                       -231.0789146865050725
  Basis Set: CC-PVTZ
  Basis Set:
  Basis Set: CC-PVTZ
  Basis Set:
  @DF-RHF Final Energy:  -231.07904187772209
    Total Energy =                       -231.0790418777220907
  Basis Set: CC-PVTZ
  Basis Set:
  Charge       = 0
  Multiplicity = 1
  Basis Set: CC-PVTZ
  Basis Set:

    Orbital Energies (a.u.)
    -----------------------

    Doubly Occupied:

       1A    -20.535563     2A    -11.321894     3A    -11.233004
       4A    -11.227571     5A    -11.226289     6A     -1.397365
       7A     -1.067311     8A     -0.995162     9A     -0.891579
      10A     -0.732455    11A     -0.654752    12A     -0.644480
      13A     -0.629237    14A     -0.584093    15A     -0.557197
      16A     -0.546450    17A     -0.532649    18A     -0.515038
      19A     -0.475737    20A     -0.401660

  @DF-RHF Final Energy:  -231.07904234314191

   => Energetics <=

    Nuclear Repulsion Energy =            177.0118296270771339
    One-Electron Energy =                -663.8427726761974554
    Two-Electron Energy =                 255.7519007059784144
    DFT Exchange-Correlation Energy =       0.0000000000000000
    Empirical Dispersion Energy =           0.0000000000000000
    PCM Polarization Energy =               0.0000000000000000
    EFP Energy =                            0.0000000000000000
    Total Energy =                       -231.0790423431419072
    Molecular point group: c1
  Basis Set: CC-PVTZ
  Basis Set:

  -Total Gradient:
     Atom            X                  Y                   Z
    ------   -----------------  -----------------  -----------------
       1        0.000033874048    -0.000136718525    -0.000677287244
       2       -0.000023237290     0.000128565601     0.001043416995
       3       -0.000384646515     0.000310314694    -0.000855780907
       4        0.000057771191    -0.000032377570    -0.000009980376
       5       -0.000004577636     0.000019857949    -0.000012936808
       6        0.000333827420    -0.000295846628     0.000506893820
       7       -0.000011333416    -0.000005791206    -0.000001027784
       8       -0.000001534783     0.000000807455     0.000001003428
       9        0.000001671804     0.000007236988    -0.000002638733
      10        0.000001645516    -0.000005697587    -0.000000305652
      11        0.000001964583     0.000002427095     0.000004921586
      12       -0.000005210811     0.000005831011    -0.000001964555
      13       -0.000000214112     0.000001390720     0.000005686229

  **** Optimization is complete! (in 7 steps) ****
    Final optimized geometry and variables:
    Molecular point group: c1

    Geometry (in Angstrom), charge = 0, multiplicity = 1:

    O           -0.233744674195     1.698474193362    -0.280220157421
    C            0.101922591286     0.573458602893    -0.099071649420
    C           -0.959837433231    -0.515821480754    -0.010749781389
    C            1.562927014492     0.209316553178     0.019016696017
    C           -0.510285242186    -1.924934489378     0.360593449521
    H           -1.695342050835    -0.157755755016     0.699812662438
    H           -1.455133549843    -0.522702856492    -0.976042929768
    H           -0.048253131321    -1.956415987419     1.340202082032
    H           -1.366097545478    -2.587965079457     0.384195756363
    H            0.194923043659    -2.330305941945    -0.354698483199
    H            1.838251716153    -0.499078854163    -0.754231467834
    H            2.159669306259     1.102795995809    -0.077752386756
    H            1.763099615300    -0.263296008444     0.973484008678

  Mulliken Charges: (a.u.)
   Center  Symbol    Alpha    Beta     Spin     Total
       1     O     4.17659  4.17659  0.00000 -0.35318
       2     C     2.85975  2.85975  0.00000  0.28051
       3     C     3.09606  3.09606  0.00000 -0.19213
       4     C     3.15897  3.15897  0.00000 -0.31794
       5     C     3.15726  3.15726  0.00000 -0.31452
       6     H     0.43794  0.43794  0.00000  0.12413
       7     H     0.43965  0.43965  0.00000  0.12070
       8     H     0.45101  0.45101  0.00000  0.09799
       9     H     0.44114  0.44114  0.00000  0.11772
      10     H     0.45222  0.45222  0.00000  0.09555
      11     H     0.44846  0.44846  0.00000  0.10307
      12     H     0.43190  0.43190  0.00000  0.13619
      13     H     0.44905  0.44905  0.00000  0.10190

   Total alpha = 20.00000, Total beta = 20.00000, Total charge =  0.00000

*** Psi4 exiting successfully. Buy a developer a beer!
