  ==> Input File <==

--------------------------------------------------------------------------
set {
	reference rhf
	basis 6-31G*
}

set_num_threads( 4 )
memory 2 gb

molecule MOL {
0 1

H	 2.170341	 -0.654057	 -0.235223
O	 1.331649	 -0.546804	 0.189762
C	 0.702312	 0.627605	 -0.264544
C	 -0.714990	 0.596302	 0.266387
H	 0.682109	 0.657492	 -1.350616
H	 1.220598	 1.512876	 0.097670
O	 -1.405996	 -0.526611	 -0.195820
H	 -1.257453	 1.468809	 -0.075599
H	 -0.688972	 0.618407	 1.353696
H	 -0.890587	 -1.292708	 0.022039

	symmetry c1
}
set optking {
	frozen_dihedral = ("
		5 3 4 7
	")
}

ee = optimize('scf')
oeprop('DIPOLE', 'QUADRUPOLE', 'MULLIKEN_CHARGES')
f=open( 'psi4out.xyz', 'w' )
f.write( "10  " )
f.write( str(ee) + "\n" )
f.write( MOL.save_string_xyz() )
f.close()
--------------------------------------------------------------------------

    Molecular point group: c1
  Charge       = 0
  Multiplicity = 1
  Basis Set: 6-31G*
  Basis Set:
  @DF-RHF Final Energy:  -228.92556043132342
    Total Energy =                       -228.9255604313233903
    Molecular point group: c1
  Basis Set: 6-31G*
  Basis Set:
  Basis Set: 6-31G*
  Basis Set:
  @DF-RHF Final Energy:  -228.92556149234935
    Total Energy =                       -228.9255614923493738
  Basis Set: 6-31G*
  Basis Set:
  Charge       = 0
  Multiplicity = 1
  Basis Set: 6-31G*
  Basis Set:

    Orbital Energies (a.u.)
    -----------------------

    Doubly Occupied:

       1A    -20.569993     2A    -20.547839     3A    -11.276429
       4A    -11.268021     5A     -1.382749     6A     -1.350320
       7A     -1.002016     8A     -0.843183     9A     -0.729024
      10A     -0.678147    11A     -0.649076    12A     -0.603197
      13A     -0.574696    14A     -0.531387    15A     -0.489711
      16A     -0.454263    17A     -0.431899

  @DF-RHF Final Energy:  -228.92556222964484

   => Energetics <=

    Nuclear Repulsion Energy =            134.6597853093656170
    One-Electron Energy =                -580.4067966400011755
    Two-Electron Energy =                 216.8214491009907476
    DFT Exchange-Correlation Energy =       0.0000000000000000
    Empirical Dispersion Energy =           0.0000000000000000
    PCM Polarization Energy =               0.0000000000000000
    EFP Energy =                            0.0000000000000000
    Total Energy =                       -228.9255622296448394
    Molecular point group: c1
  Basis Set: 6-31G*
  Basis Set:

  -Total Gradient:
     Atom            X                  Y                   Z
    ------   -----------------  -----------------  -----------------
       1       -0.000000849016     0.000008559386    -0.000006905180
       2       -0.000010319478    -0.000026204774     0.000016538244
       3        0.000034913389    -0.000389556785     0.000035377414
       4       -0.000097158967     0.000246875736    -0.000257374971
       5        0.000003331609     0.000311339331     0.000019887594
       6        0.000001429341    -0.000003435505    -0.000007936813
       7        0.000066052927    -0.000149817694     0.000199345116
       8        0.000009280005    -0.000001960481     0.000002910182
       9       -0.000005499542     0.000000494454     0.000002166433
      10       -0.000001180265     0.000003706335    -0.000004008017

  **** Optimization is complete! (in 3 steps) ****
    Final optimized geometry and variables:
    Molecular point group: c1

    Geometry (in Angstrom), charge = 0, multiplicity = 1:

    H            2.172672696460    -0.651466146807    -0.229917082430
    O            1.333899830768    -0.543892631371     0.194933812305
    C            0.703782378496     0.628922519231    -0.261769252352
    C           -0.713298563119     0.598792245343     0.270440262732
    H            0.683800363801     0.658414226496    -1.347855998194
    H            1.221601698255     1.515240348997     0.098697791088
    O           -1.405510852057    -0.523701975970    -0.190649035059
    H           -1.255133626541     1.472011705018    -0.070593835061
    H           -0.686304744486     0.620527034350     1.357782902651
    H           -0.886809932754    -1.289415389457     0.020639462557

  Mulliken Charges: (a.u.)
   Center  Symbol    Alpha    Beta     Spin     Total
       1     H     0.27623  0.27623  0.00000  0.44753
       2     O     4.37772  4.37772  0.00000 -0.75545
       3     C     3.01228  3.01228  0.00000 -0.02457
       4     C     2.99661  2.99661  0.00000  0.00678
       5     H     0.42281  0.42281  0.00000  0.15437
       6     H     0.42822  0.42822  0.00000  0.14356
       7     O     4.37302  4.37302  0.00000 -0.74604
       8     H     0.41697  0.41697  0.00000  0.16606
       9     H     0.42370  0.42370  0.00000  0.15260
      10     H     0.27242  0.27242  0.00000  0.45515

   Total alpha = 17.00000, Total beta = 17.00000, Total charge = -0.00000
