                              Psi4 1.0.54 Driver

  ==> Input File <==

--------------------------------------------------------------------------
set {
	reference rhf
	basis cc-pvtz
}

set_num_threads( 4 )
memory 2 gb

molecule MOL {
0 1

O	 2.868453	 1.353349	 -0.000734
C	 2.841259	 0.166180	 -0.000295
C	 1.542794	 -0.614730	 -0.000853
C	 4.113372	 -0.651103	 0.000743
C	 0.288398	 0.247429	 0.000314
H	 1.557171	 -1.273139	 -0.866508
H	 1.557484	 -1.274998	 0.863344
C	 -0.993089	 -0.581367	 -0.000217
H	 0.305153	 0.900562	 -0.864701
H	 0.305567	 0.898805	 0.866656
C	 -2.258482	 0.271340	 0.000669
H	 -1.002280	 -1.233920	 -0.870484
H	 -1.002061	 -1.235367	 0.868958
C	 -2.115814	 1.570588	 -0.786945
H	 -2.533894	 0.502800	 1.026675
H	 -3.081464	 -0.308228	 -0.410340
C	 -3.384251	 2.417244	 -0.781383
H	 -1.294165	 2.151104	 -0.376053
H	 -1.841779	 1.340140	 -1.812965
H	 -3.665681	 2.693629	 0.229285
H	 -3.249388	 3.331191	 -1.348422
H	 -4.217260	 1.876787	 -1.218471
H	 4.145311	 -1.294584	 -0.871587
H	 4.970080	 0.004978	 -0.000091
H	 4.145223	 -1.291980	 0.874988

	symmetry c1
}
set optking {
	frozen_dihedral = ("
		15 11 8 12
	")
}

ee,wfn = optimize('scf', return_wfn=True)
oeprop( wfn, 'DIPOLE', 'QUADRUPOLE', 'MULLIKEN_CHARGES')
f=open( 'psi4out.xyz', 'w' )
f.write( "25  " )
f.write( str(ee) + "\n" )
f.write( MOL.save_string_xyz() )
f.close()
--------------------------------------------------------------------------

    Molecular point group: c1
  Charge       = 0
  Multiplicity = 1
  Basis Set: CC-PVTZ
  Basis Set:
  @DF-RHF Final Energy:  -387.26730543781559
    Total Energy =                       -387.2673054378153665
    Molecular point group: c1
  Basis Set: CC-PVTZ
  Basis Set:
  Basis Set: CC-PVTZ
  Basis Set:
  @DF-RHF Final Energy:  -387.26690001485542
    Total Energy =                       -387.2669000148555369
  Basis Set: CC-PVTZ
  Basis Set:
  Basis Set: CC-PVTZ
  Basis Set:
  @DF-RHF Final Energy:  -387.26992398152237
    Total Energy =                       -387.2699239815220835
  Basis Set: CC-PVTZ
  Basis Set:
  Basis Set: CC-PVTZ
  Basis Set:
  @DF-RHF Final Energy:  -387.27007899953128
    Total Energy =                       -387.2700789995309378
  Basis Set: CC-PVTZ
  Basis Set:
  Basis Set: CC-PVTZ
  Basis Set:
  @DF-RHF Final Energy:  -387.26876258545872
    Total Energy =                       -387.2687625854587168
  Basis Set: CC-PVTZ
  Basis Set:
  Basis Set: CC-PVTZ
  Basis Set:
  @DF-RHF Final Energy:  -387.27007953759301
    Total Energy =                       -387.2700795375932330
  Basis Set: CC-PVTZ
  Basis Set:
  Basis Set: CC-PVTZ
  Basis Set:
  @DF-RHF Final Energy:  -387.27010936418526
    Total Energy =                       -387.2701093641854868
  Basis Set: CC-PVTZ
  Basis Set:
  Charge       = 0
  Multiplicity = 1
  Basis Set: CC-PVTZ
  Basis Set:

    Orbital Energies (a.u.)
    -----------------------

    Doubly Occupied:

       1A    -20.538937     2A    -11.320518     3A    -11.230099
       4A    -11.226552     5A    -11.215500     6A    -11.214549
       7A    -11.212058     8A    -11.211134     9A    -11.204985
      10A     -1.399024    11A     -1.094183    12A     -1.055604
      13A     -1.014130    14A     -0.969715    15A     -0.889977
      16A     -0.834163    17A     -0.771606    18A     -0.732138
      19A     -0.658484    20A     -0.652818    21A     -0.633940
      22A     -0.624906    23A     -0.598405    24A     -0.581682
      25A     -0.571682    26A     -0.561592    27A     -0.550939
      28A     -0.517573    29A     -0.504460    30A     -0.499967
      31A     -0.492123    32A     -0.481410    33A     -0.459912
      34A     -0.452424    35A     -0.448956    36A     -0.401932

  @DF-RHF Final Energy:  -387.27010943864002

   => Energetics <=

    Nuclear Repulsion Energy =            446.2280135768230593
    One-Electron Energy =               -1409.3400916286668689
    Two-Electron Energy =                 575.8419686132033348
    DFT Exchange-Correlation Energy =       0.0000000000000000
    Empirical Dispersion Energy =           0.0000000000000000
    PCM Polarization Energy =               0.0000000000000000
    EFP Energy =                            0.0000000000000000
    Total Energy =                       -387.2701094386404748
    Molecular point group: c1
  Basis Set: CC-PVTZ
  Basis Set:

  -Total Gradient:
     Atom            X                  Y                   Z
    ------   -----------------  -----------------  -----------------
       1       -0.000012834772    -0.000179095950    -0.000023058345
       2        0.000099125299     0.000087078521     0.000062940705
       3        0.000030655069     0.000039145523    -0.000040988624
       4       -0.000022000846    -0.000001275861     0.000022088667
       5        0.000024943960     0.000019021129     0.000099087238
       6       -0.000001721224    -0.000015420745    -0.000000486350
       7        0.000000657979     0.000016065529    -0.000009477462
       8        0.002264566686     0.003787359866    -0.003599476430
       9       -0.000004950054    -0.000011562662     0.000019427769
      10        0.000035043302    -0.000009350426    -0.000006060198
      11        0.003110097472     0.004778361852     0.000383249680
      12       -0.002423393815    -0.003959777607     0.002975059108
      13       -0.000008546756     0.000012440361    -0.000025737141
      14       -0.000053950922    -0.000010914489    -0.000100748033
      15       -0.002992969314    -0.004624343351     0.000247172847
      16        0.000037252789     0.000026324555     0.000014315076
      17        0.000022992857     0.000016408809     0.000014457257
      18       -0.000041761828    -0.000035324312    -0.000018260418
      19       -0.000018289732     0.000014890772    -0.000001100451
      20       -0.000011266594     0.000001221035    -0.000005750073
      21        0.000005429982    -0.000038736210     0.000039171226
      22        0.000045786820     0.000021826822     0.000000635487
      23       -0.000002601304     0.000027276338     0.000054355948
      24       -0.000075548446    -0.000021850867     0.000000414664
      25       -0.000006716614     0.000060231374    -0.000101232148

  **** Optimization is complete! (in 8 steps) ****
    Final optimized geometry and variables:
    Molecular point group: c1

    Geometry (in Angstrom), charge = 0, multiplicity = 1:

    O            2.670183686151     0.802671157707     0.204269706166
    C            2.583900085594    -0.381595429226     0.206958635364
    C            1.248730014423    -1.097227148109     0.173388024776
    C            3.813122864593    -1.261032201467     0.244263007196
    C            0.039539975088    -0.173012992975     0.140680195193
    H            1.252461214688    -1.756465464962    -0.691861160836
    H            1.208528225147    -1.756436679007     1.037428061837
    C           -1.273343750905    -0.949346148540     0.096326806610
    H            0.124883337615     0.483151744129    -0.715342559261
    H            0.060291606780     0.468988835809     1.014577248292
    C           -2.556703542176    -0.109055240830     0.178816143232
    H           -1.313654661179    -1.584050215162    -0.785674432270
    H           -1.289027604719    -1.647286747360     0.930586609933
    C           -2.577425113036     1.180415047570    -0.636634269744
    H           -2.786672791153     0.097732812924     1.220903133180
    H           -3.377970548170    -0.737052136602    -0.158400045335
    C           -3.932015920646     1.879810974498    -0.587378232289
    H           -1.814176135355     1.861498739513    -0.277539635281
    H           -2.326122474786     0.957295759428    -1.670497757643
    H           -4.202500823339     2.135451949255     0.431855108181
    H           -3.921135255355     2.796535509482    -1.165468833620
    H           -4.716395540602     1.245552201514    -0.986755267711
    H            3.835793705684    -1.909071539151    -0.624856681013
    H            4.701145335713    -0.648438212960     0.264113363074
    H            3.789849372071    -1.898745733298     1.120876291359

  Mulliken Charges: (a.u.)
   Center  Symbol    Alpha    Beta     Spin     Total
       1     O     4.17084  4.17084  0.00000 -0.34168
       2     C     2.86122  2.86122  0.00000  0.27755
       3     C     3.11583  3.11583  0.00000 -0.23165
       4     C     3.15158  3.15158  0.00000 -0.30316
       5     C     3.08582  3.08582  0.00000 -0.17164
       6     H     0.44531  0.44531  0.00000  0.10937
       7     H     0.44438  0.44438  0.00000  0.11123
       8     C     3.09986  3.09986  0.00000 -0.19971
       9     H     0.44214  0.44214  0.00000  0.11572
      10     H     0.44511  0.44511  0.00000  0.10978
      11     C     3.09209  3.09209  0.00000 -0.18419
      12     H     0.45286  0.45286  0.00000  0.09428
      13     H     0.45263  0.45263  0.00000  0.09475
      14     C     3.08969  3.08969  0.00000 -0.17938
      15     H     0.45222  0.45222  0.00000  0.09556
      16     H     0.45227  0.45227  0.00000  0.09546
      17     C     3.15094  3.15094  0.00000 -0.30189
      18     H     0.44743  0.44743  0.00000  0.10515
      19     H     0.45354  0.45354  0.00000  0.09292
      20     H     0.45516  0.45516  0.00000  0.08968
      21     H     0.44777  0.44777  0.00000  0.10446
      22     H     0.45520  0.45520  0.00000  0.08959
      23     H     0.45048  0.45048  0.00000  0.09904
      24     H     0.43536  0.43536  0.00000  0.12928
      25     H     0.45026  0.45026  0.00000  0.09949

   Total alpha = 36.00000, Total beta = 36.00000, Total charge = -0.00000

*** Psi4 exiting successfully. Buy a developer a beer!
