                              Psi4 1.0.54 Driver

  ==> Input File <==

--------------------------------------------------------------------------
set {
	reference rhf
	basis cc-pvtz
}

set_num_threads( 4 )
memory 2 gb

molecule MOL {
0 1

H	 -3.841268	 1.311956	 -0.643478
O	 -3.133509	 0.738801	 -0.873186
C	 -2.302264	 0.528872	 0.237390
C	 -1.175688	 -0.398187	 -0.171891
H	 -1.894685	 1.473362	 0.591779
H	 -2.865902	 0.087520	 1.056750
C	 0.196029	 0.106276	 0.266738
H	 -1.201873	 -0.515469	 -1.250677
H	 -1.365975	 -1.378728	 0.252664
C	 1.330220	 -0.826136	 -0.155230
H	 0.359542	 1.097229	 -0.145561
H	 0.212134	 0.218135	 1.348778
C	 2.719700	 -0.407669	 0.328325
H	 1.339388	 -0.911200	 -1.239363
H	 1.119001	 -1.821953	 0.224128
C	 3.241564	 0.893452	 -0.276737
H	 3.418299	 -1.204729	 0.093035
H	 2.711776	 -0.323368	 1.411960
H	 3.254204	 0.841071	 -1.360784
H	 2.634460	 1.745075	 0.005842
H	 4.254264	 1.092401	 0.054971

	symmetry c1
}
set optking {
	frozen_dihedral = ("
		2 3 4 8
	")
}

ee,wfn = optimize('scf', return_wfn=True)
oeprop( wfn, 'DIPOLE', 'QUADRUPOLE', 'MULLIKEN_CHARGES')
f=open( 'psi4out.xyz', 'w' )
f.write( "21  " )
f.write( str(ee) + "\n" )
f.write( MOL.save_string_xyz() )
f.close()
--------------------------------------------------------------------------

    Molecular point group: c1
  Charge       = 0
  Multiplicity = 1
  Basis Set: CC-PVTZ
  Basis Set:
  @DF-RHF Final Energy:  -310.32748634435035
    Total Energy =                       -310.3274863443503477
    Molecular point group: c1
  Basis Set: CC-PVTZ
  Basis Set:
  Basis Set: CC-PVTZ
  Basis Set:
  @DF-RHF Final Energy:  -310.32782127337845
    Total Energy =                       -310.3278212733786177
  Basis Set: CC-PVTZ
  Basis Set:
  Basis Set: CC-PVTZ
  Basis Set:
  @DF-RHF Final Energy:  -310.32792238312328
    Total Energy =                       -310.3279223831232230
  Basis Set: CC-PVTZ
  Basis Set:
  Basis Set: CC-PVTZ
  Basis Set:
  @DF-RHF Final Energy:  -310.32792401996579
    Total Energy =                       -310.3279240199658489
  Basis Set: CC-PVTZ
  Basis Set:
  Charge       = 0
  Multiplicity = 1
  Basis Set: CC-PVTZ
  Basis Set:

    Orbital Energies (a.u.)
    -----------------------

    Doubly Occupied:

       1A    -20.545169     2A    -11.265248     3A    -11.212482
       4A    -11.212060     5A    -11.210267     6A    -11.208761
       7A    -11.205071     8A     -1.362297     9A     -1.085920
      10A     -1.032091    11A     -0.954090    12A     -0.876612
      13A     -0.808014    14A     -0.778565    15A     -0.702411
      16A     -0.649771    17A     -0.623112    18A     -0.607458
      19A     -0.590882    20A     -0.565588    21A     -0.541371
      22A     -0.520581    23A     -0.508007    24A     -0.493134
      25A     -0.477783    26A     -0.459420    27A     -0.456136
      28A     -0.445406    29A     -0.430290

  @DF-RHF Final Energy:  -310.32792472325957

   => Energetics <=

    Nuclear Repulsion Energy =            313.2691935172432522
    One-Electron Energy =               -1041.5382419587087952
    Two-Electron Energy =                 417.9411237182060290
    DFT Exchange-Correlation Energy =       0.0000000000000000
    Empirical Dispersion Energy =           0.0000000000000000
    PCM Polarization Energy =               0.0000000000000000
    EFP Energy =                            0.0000000000000000
    Total Energy =                       -310.3279247232595139
    Molecular point group: c1
  Basis Set: CC-PVTZ
  Basis Set:

  -Total Gradient:
     Atom            X                  Y                   Z
    ------   -----------------  -----------------  -----------------
       1       -0.000029874617     0.000006317381    -0.000042495463
       2        0.001162965832     0.001743583726    -0.000439315511
       3       -0.001752107081    -0.002790477787     0.000780052487
       4        0.002396660122     0.003216567070    -0.000455117811
       5       -0.000011982863    -0.000002579705    -0.000020882992
       6       -0.000038260704     0.000000664973    -0.000053108113
       7       -0.000034835322     0.000024634877    -0.000040338918
       8       -0.001657587858    -0.002219107218     0.000237816838
       9       -0.000040924365     0.000032818686     0.000022944892
      10       -0.000030913730    -0.000002854789     0.000031080229
      11        0.000025959244     0.000031871744     0.000008895833
      12       -0.000016463482    -0.000015955333    -0.000023199907
      13        0.000038827866    -0.000035347080    -0.000030537448
      14        0.000008042684    -0.000007707795     0.000010449462
      15       -0.000012452535     0.000000261976     0.000005327803
      16       -0.000013516555     0.000006386786     0.000006942012
      17        0.000020936225     0.000007766980    -0.000001950196
      18        0.000004076476    -0.000011017497    -0.000004806140
      19        0.000005952766    -0.000005844523     0.000007849288
      20       -0.000020777311     0.000012823559    -0.000006120229
      21       -0.000003724789     0.000007193968     0.000006513883

  **** Optimization is complete! (in 5 steps) ****
    Final optimized geometry and variables:
    Molecular point group: c1

    Geometry (in Angstrom), charge = 0, multiplicity = 1:

    H           -3.963005293165     1.140725189619    -0.495651074630
    O           -3.224897710996     0.619984722016    -0.753899467828
    C           -2.378795272129     0.405886885076     0.347736535709
    C           -1.225580808092    -0.504318127309    -0.080074783100
    H           -1.988051914968     1.357857695599     0.698623262018
    H           -2.932690972230    -0.039046722273     1.169383031235
    C            0.146923593407    -0.007431208919     0.363751305645
    H           -1.266761547811    -0.598927035126    -1.158572835704
    H           -1.388693545965    -1.504172297089     0.310185374800
    C            1.277887190593    -0.949108712882    -0.043149449860
    H            0.313125878757     0.979804752515    -0.055175073830
    H            0.156079163849     0.113156297864     1.445443006723
    C            2.667969052012    -0.530818752758     0.439274388572
    H            1.289207756290    -1.046726703967    -1.126249371135
    H            1.061938590650    -1.939937644553     0.347025322046
    C            3.195871783594     0.761773008851    -0.178538289631
    H            3.364436401492    -1.332735552146     0.214352223498
    H            2.657697603753    -0.434753758016     1.521941928584
    H            3.212347236165     0.696817850960    -1.261767665591
    H            2.589933703103     1.618142756253     0.091657722771
    H            4.207866193199     0.961615875445     0.154841727267

  Mulliken Charges: (a.u.)
   Center  Symbol    Alpha    Beta     Spin     Total
       1     H     0.39578  0.39578  0.00000  0.20845
       2     O     4.19661  4.19661  0.00000 -0.39322
       3     C     2.96496  2.96496  0.00000  0.07008
       4     C     3.08986  3.08986  0.00000 -0.17973
       5     H     0.47599  0.47599  0.00000  0.04801
       6     H     0.47225  0.47225  0.00000  0.05550
       7     C     3.10116  3.10116  0.00000 -0.20231
       8     H     0.44415  0.44415  0.00000  0.11169
       9     H     0.45429  0.45429  0.00000  0.09141
      10     C     3.09590  3.09590  0.00000 -0.19180
      11     H     0.44986  0.44986  0.00000  0.10028
      12     H     0.45553  0.45553  0.00000  0.08893
      13     C     3.08995  3.08995  0.00000 -0.17991
      14     H     0.45256  0.45256  0.00000  0.09489
      15     H     0.44970  0.44970  0.00000  0.10059
      16     C     3.15199  3.15199  0.00000 -0.30399
      17     H     0.44866  0.44866  0.00000  0.10269
      18     H     0.45543  0.45543  0.00000  0.08915
      19     H     0.45439  0.45439  0.00000  0.09122
      20     H     0.45410  0.45410  0.00000  0.09179
      21     H     0.44686  0.44686  0.00000  0.10627

   Total alpha = 29.00000, Total beta = 29.00000, Total charge =  0.00000

*** Psi4 exiting successfully. Buy a developer a beer!
