  ==> Input File <==

--------------------------------------------------------------------------
set {
	reference rhf
	basis 6-31G*
}

set_num_threads( 4 )
memory 2 gb

molecule MOL {
0 1

H	 3.729471	 -0.928294	 -0.070608
O	 2.826016	 -1.159218	 0.122261
C	 2.077727	 -0.067559	 -0.035091
C	 0.624473	 -0.343591	 0.253101
O	 2.542965	 0.974826	 -0.363729
C	 -0.265902	 0.883932	 0.072916
H	 0.324016	 -1.163849	 -0.390541
H	 0.565024	 -0.726111	 1.268924
C	 -1.728698	 0.646073	 0.462102
H	 -0.209144	 1.219470	 -0.958188
H	 0.135059	 1.692851	 0.673903
C	 -2.482460	 -0.343073	 -0.431425
H	 -2.245265	 1.602650	 0.432430
H	 -1.779332	 0.308348	 1.496285
C	 -3.181137	 -1.442291	 0.368605
H	 -3.219465	 0.197568	 -1.021828
H	 -1.799896	 -0.803711	 -1.140862
H	 -3.706463	 -2.131141	 -0.285483
H	 -3.906763	 -1.023055	 1.059646
H	 -2.466581	 -2.018167	 0.949995

	symmetry c1
}
set optking {
	frozen_dihedral = ("
		16 12 9 6
	")
}

ee = optimize('scf')
oeprop('DIPOLE', 'QUADRUPOLE', 'MULLIKEN_CHARGES')
f=open( 'psi4out.xyz', 'w' )
f.write( "20  " )
f.write( str(ee) + "\n" )
f.write( MOL.save_string_xyz() )
f.close()
--------------------------------------------------------------------------

    Molecular point group: c1
  Charge       = 0
  Multiplicity = 1
  Basis Set: 6-31G*
  Basis Set:
  @DF-RHF Final Energy:  -383.94314312288446
    Total Energy =                       -383.9431431228845213
    Molecular point group: c1
  Basis Set: 6-31G*
  Basis Set:
  Basis Set: 6-31G*
  Basis Set:
  @DF-RHF Final Energy:  -383.94336049188064
    Total Energy =                       -383.9433604918806964
  Basis Set: 6-31G*
  Basis Set:
  Basis Set: 6-31G*
  Basis Set:
  @DF-RHF Final Energy:  -383.94343910556171
    Total Energy =                       -383.9434391055615379
  Basis Set: 6-31G*
  Basis Set:
  Basis Set: 6-31G*
  Basis Set:
  @DF-RHF Final Energy:  -383.94360195875436
    Total Energy =                       -383.9436019587544138
  Basis Set: 6-31G*
  Basis Set:
  Basis Set: 6-31G*
  Basis Set:
  @DF-RHF Final Energy:  -383.94329613721646
    Total Energy =                       -383.9432961372162936
  Basis Set: 6-31G*
  Basis Set:
  Basis Set: 6-31G*
  Basis Set:
  @DF-RHF Final Energy:  -383.94362043620038
    Total Energy =                       -383.9436204362002627
  Basis Set: 6-31G*
  Basis Set:
  Charge       = 0
  Multiplicity = 1
  Basis Set: 6-31G*
  Basis Set:

    Orbital Energies (a.u.)
    -----------------------

    Doubly Occupied:

       1A    -20.612680     2A    -20.551756     3A    -11.381355
       4A    -11.240501     5A    -11.223187     6A    -11.220447
       7A    -11.219885     8A    -11.213222     9A     -1.474734
      10A     -1.365804    11A     -1.095336    12A     -1.038987
      13A     -0.961796    14A     -0.869519    15A     -0.814222
      16A     -0.779110    17A     -0.699686    18A     -0.690809
      19A     -0.664233    20A     -0.627624    21A     -0.607081
      22A     -0.595046    23A     -0.580612    24A     -0.553540
      25A     -0.536185    26A     -0.510245    27A     -0.503030
      28A     -0.479254    29A     -0.469887    30A     -0.463398
      31A     -0.456149    32A     -0.443386

  @DF-RHF Final Energy:  -383.94362127552569

   => Energetics <=

    Nuclear Repulsion Energy =            378.7658588485971336
    One-Electron Energy =               -1273.5335449791969040
    Two-Electron Energy =                 510.8240648550743117
    DFT Exchange-Correlation Energy =       0.0000000000000000
    Empirical Dispersion Energy =           0.0000000000000000
    PCM Polarization Energy =               0.0000000000000000
    EFP Energy =                            0.0000000000000000
    Total Energy =                       -383.9436212755254019
    Molecular point group: c1
  Basis Set: 6-31G*
  Basis Set:

  -Total Gradient:
     Atom            X                  Y                   Z
    ------   -----------------  -----------------  -----------------
       1       -0.000003540152     0.000004103814     0.000000849276
       2       -0.000000986125    -0.000019911996     0.000002659317
       3        0.000006047281     0.000013430519    -0.000001449342
       4       -0.000010885035    -0.000015985200    -0.000014599242
       5       -0.000011015479     0.000001993872     0.000015128803
       6        0.000263871796    -0.000778618682     0.000520782815
       7        0.000004242563     0.000013439836     0.000006725018
       8        0.000012221919    -0.000006855703     0.000009526492
       9       -0.000642156300     0.000987370911    -0.000577890074
      10       -0.000018391128     0.000014092616     0.000009180390
      11        0.000003991576     0.000001868598     0.000007112137
      12        0.001312173226    -0.000048536610    -0.000953065927
      13       -0.000003107284     0.000005142014    -0.000031424631
      14       -0.000012632421     0.000006794747     0.000018682291
      15        0.000014181987     0.000021263907     0.000006978103
      16       -0.000935569265    -0.000203712011     0.000977826709
      17        0.000020543842    -0.000007370683     0.000018622642
      18       -0.000019682687     0.000013938126    -0.000003551356
      19        0.000022852788     0.000003298822     0.000018168929
      20       -0.000002161107    -0.000005746896    -0.000030262350

  **** Optimization is complete! (in 7 steps) ****
    Final optimized geometry and variables:
    Molecular point group: c1

    Geometry (in Angstrom), charge = 0, multiplicity = 1:

    H            3.618133339380    -0.819100376921    -0.149707777394
    O            2.725968896409    -1.024390977352     0.112324482427
    C            1.971947865056     0.052036683734    -0.109193886117
    C            0.535997904326    -0.184548122405     0.281712042573
    O            2.420154660250     1.055193828146    -0.560575952342
    C           -0.360598207931     1.028552155448     0.045605690127
    H            0.195184043173    -1.056800174437    -0.267689926302
    H            0.531383966204    -0.474940673065     1.329040320654
    C           -1.820382923762     0.778950647315     0.441181904454
    H           -0.304099438135     1.322371150799    -0.997863973230
    H            0.031024924882     1.864686518248     0.615275314111
    C           -2.579367596659    -0.205135241307    -0.479168869091
    H           -2.338547970917     1.732820911715     0.454852520619
    H           -1.846301315058     0.415392588148     1.466649213997
    C           -3.285442561124    -1.328920172968     0.281091188741
    H           -3.321126430342     0.339689353072    -1.055746192356
    H           -1.900356393754    -0.642448342743    -1.205938055469
    H           -3.828203037539    -1.981952735822    -0.395459037973
    H           -3.997459531186    -0.928244696690     0.997013639364
    H           -2.574169566203    -1.938437327331     0.831886447835

  Mulliken Charges: (a.u.)
   Center  Symbol    Alpha    Beta     Spin     Total
       1     H     0.26783  0.26783  0.00000  0.46434
       2     O     4.35150  4.35150  0.00000 -0.70300
       3     C     2.62256  2.62256  0.00000  0.75488
       4     C     3.21197  3.21197  0.00000 -0.42394
       5     O     4.27914  4.27914  0.00000 -0.55827
       6     C     3.15543  3.15543  0.00000 -0.31085
       7     H     0.39739  0.39739  0.00000  0.20522
       8     H     0.39884  0.39884  0.00000  0.20232
       9     C     3.16035  3.16035  0.00000 -0.32070
      10     H     0.41063  0.41063  0.00000  0.17875
      11     H     0.41024  0.41024  0.00000  0.17953
      12     C     3.15689  3.15689  0.00000 -0.31378
      13     H     0.41471  0.41471  0.00000  0.17057
      14     H     0.42122  0.42122  0.00000  0.15756
      15     C     3.24023  3.24023  0.00000 -0.48047
      16     H     0.41742  0.41742  0.00000  0.16515
      17     H     0.42145  0.42145  0.00000  0.15710
      18     H     0.41932  0.41932  0.00000  0.16136
      19     H     0.42024  0.42024  0.00000  0.15952
      20     H     0.42264  0.42264  0.00000  0.15472

   Total alpha = 32.00000, Total beta = 32.00000, Total charge =  0.00000
