                              Psi4 1.0.54 Driver

  ==> Input File <==

--------------------------------------------------------------------------
set {
	reference rhf
	basis cc-pvtz
}

set_num_threads( 4 )
memory 2 gb

molecule MOL {
0 1

H	 -3.938895	 -1.215560	 0.920383
C	 -2.873596	 -1.089294	 0.957402
C	 -2.254905	 -0.795528	 2.159303
C	 -2.123966	 -1.220737	 -0.196184
H	 -2.837402	 -0.693651	 3.054299
C	 -0.885954	 -0.633421	 2.206079
H	 -2.604717	 -1.448568	 -1.127765
C	 -0.753126	 -1.058709	 -0.150967
H	 -0.390753	 -0.405768	 3.128038
C	 -0.130040	 -0.764368	 1.051380
H	 -0.169661	 -1.159835	 -1.042523
C	 1.345822	 -0.579732	 1.154635
O	 1.968286	 -0.725612	 -0.000027
O	 1.909652	 -0.327584	 2.166414
C	 3.373556	 -0.568203	 0.000011
H	 3.695416	 -0.031588	 -0.879663
H	 3.782700	 -1.565294	 -0.000152
H	 3.695405	 -0.031851	 0.879862

	symmetry c1
}
set optking {
	frozen_dihedral = ("
		12 13 15 16
	")
}

ee,wfn = optimize('scf', return_wfn=True)
oeprop( wfn, 'DIPOLE', 'QUADRUPOLE', 'MULLIKEN_CHARGES')
f=open( 'psi4out.xyz', 'w' )
f.write( "18  " )
f.write( str(ee) + "\n" )
f.write( MOL.save_string_xyz() )
f.close()
--------------------------------------------------------------------------

    Molecular point group: c1
  Charge       = 0
  Multiplicity = 1
  Basis Set: CC-PVTZ
  Basis Set:
  @DF-RHF Final Energy:  -457.50731115684619
    Total Energy =                       -457.5073111568462991
    Molecular point group: c1
  Basis Set: CC-PVTZ
  Basis Set:
  Basis Set: CC-PVTZ
  Basis Set:
  @DF-RHF Final Energy:  -457.50643014258191
    Total Energy =                       -457.5064301425820759
  Basis Set: CC-PVTZ
  Basis Set:
  Basis Set: CC-PVTZ
  Basis Set:
  @DF-RHF Final Energy:  -457.50833862829188
    Total Energy =                       -457.5083386282922220
  Basis Set: CC-PVTZ
  Basis Set:
  Basis Set: CC-PVTZ
  Basis Set:
  @DF-RHF Final Energy:  -457.50605219446254
    Total Energy =                       -457.5060521944626544
  Basis Set: CC-PVTZ
  Basis Set:
  Basis Set: CC-PVTZ
  Basis Set:
  @DF-RHF Final Energy:  -457.50852581884442
    Total Energy =                       -457.5085258188441912
  Basis Set: CC-PVTZ
  Basis Set:
  Basis Set: CC-PVTZ
  Basis Set:
  @DF-RHF Final Energy:  -457.50855009360629
    Total Energy =                       -457.5085500936062317
  Basis Set: CC-PVTZ
  Basis Set:
  Charge       = 0
  Multiplicity = 1
  Basis Set: CC-PVTZ
  Basis Set:

    Orbital Energies (a.u.)
    -----------------------

    Doubly Occupied:

       1A    -20.600092     2A    -20.533770     3A    -11.372909
       4A    -11.280204     5A    -11.244670     6A    -11.243233
       7A    -11.242342     8A    -11.239709     9A    -11.235759
      10A    -11.234994    11A     -1.474925    12A     -1.368933
      13A     -1.170411    14A     -1.051582    15A     -1.028720
      16A     -0.981428    17A     -0.862836    18A     -0.838122
      19A     -0.780602    20A     -0.744987    21A     -0.688268
      22A     -0.679995    23A     -0.676068    24A     -0.634183
      25A     -0.629783    26A     -0.600942    27A     -0.587470
      28A     -0.570297    29A     -0.527059    30A     -0.519973
      31A     -0.509993    32A     -0.501616    33A     -0.461450
      34A     -0.449601    35A     -0.350039    36A     -0.345926

  @DF-RHF Final Energy:  -457.50855108991306

   => Energetics <=

    Nuclear Repulsion Energy =            493.6639874645019859
    One-Electron Energy =               -1601.8192930267923657
    Two-Electron Energy =                 650.6467544723769834
    DFT Exchange-Correlation Energy =       0.0000000000000000
    Empirical Dispersion Energy =           0.0000000000000000
    PCM Polarization Energy =               0.0000000000000000
    EFP Energy =                            0.0000000000000000
    Total Energy =                       -457.5085510899133396
    Molecular point group: c1
  Basis Set: CC-PVTZ
  Basis Set:

  -Total Gradient:
     Atom            X                  Y                   Z
    ------   -----------------  -----------------  -----------------
       1        0.000002816106     0.000000660776     0.000000009765
       2        0.000008446763     0.000006370563     0.000006461158
       3       -0.000031011410    -0.000009531566    -0.000002436025
       4       -0.000016963759    -0.000004023479     0.000003469662
       5       -0.000005671780    -0.000003319148    -0.000006902749
       6       -0.000022255609     0.000010795315    -0.000005630921
       7       -0.000008402842    -0.000000898292     0.000004620760
       8       -0.000023088175    -0.000001652754    -0.000029987339
       9        0.000000059965    -0.000007095067    -0.000013068648
      10        0.000016340940     0.000006102268     0.000048252771
      11       -0.000018874025     0.000005026981     0.000025459365
      12       -0.000174469835     0.001117432120    -0.000375007924
      13        0.000137865713    -0.001338377896     0.000820774827
      14        0.000045850174    -0.000044438641    -0.000145968396
      15        0.000153660084    -0.000950667779    -0.000828095662
      16       -0.000034668144     0.001221912875     0.000507112128
      17       -0.000015079774     0.000018075258     0.000004610016
      18       -0.000014554391    -0.000026371534    -0.000013672788

  **** Optimization is complete! (in 7 steps) ****
    Final optimized geometry and variables:
    Molecular point group: c1

    Geometry (in Angstrom), charge = 0, multiplicity = 1:

    H           -4.037811388819    -0.292059129791    -0.019484584676
    C           -2.968821407848    -0.203896363136     0.022291933133
    C           -2.355617240694     0.209339380234     1.191460011346
    C           -2.208710362459    -0.503785370174    -1.092190399057
    H           -2.946047270049     0.441853084696     2.056415149150
    C           -0.981945996362     0.322242983954     1.244399657991
    H           -2.684885247125    -0.824375031080    -1.998521745270
    C           -0.832988569957    -0.391071175363    -1.040729556710
    H           -0.491249696898     0.640509163924     2.141591087955
    C           -0.215249582536     0.022746780707     0.128700587504
    H           -0.241929918713    -0.622925843418    -1.902267566654
    C            1.266384592625     0.161844658987     0.238896038328
    O            1.893214013289    -0.153226982154    -0.879706281066
    O            1.818517924620     0.515656457182     1.225864408108
    C            3.302962498910    -0.041296713470    -0.935080232618
    H            3.547508231982     0.359620779284    -1.906402874403
    H            3.742747864879    -1.021525184028    -0.818324115756
    H            3.666324596895     0.613900134336    -0.162333440259

  Mulliken Charges: (a.u.)
   Center  Symbol    Alpha    Beta     Spin     Total
       1     H     0.42034  0.42034  0.00000  0.15933
       2     C     3.06972  3.06972  0.00000 -0.13944
       3     C     3.07557  3.07557  0.00000 -0.15113
       4     C     3.07489  3.07489  0.00000 -0.14978
       5     H     0.42046  0.42046  0.00000  0.15907
       6     C     3.07590  3.07590  0.00000 -0.15181
       7     H     0.42196  0.42196  0.00000  0.15607
       8     C     3.08197  3.08197  0.00000 -0.16393
       9     H     0.40641  0.40641  0.00000  0.18718
      10     C     3.01795  3.01795  0.00000 -0.03589
      11     H     0.41118  0.41118  0.00000  0.17763
      12     C     2.77556  2.77556  0.00000  0.44888
      13     O     4.14999  4.14999  0.00000 -0.29999
      14     O     4.21143  4.21143  0.00000 -0.42285
      15     C     3.04057  3.04057  0.00000 -0.08115
      16     H     0.44935  0.44935  0.00000  0.10130
      17     H     0.45463  0.45463  0.00000  0.09075
      18     H     0.44212  0.44212  0.00000  0.11576

   Total alpha = 36.00000, Total beta = 36.00000, Total charge = -0.00000

*** Psi4 exiting successfully. Buy a developer a beer!
