                              Psi4 1.0.54 Driver

  ==> Input File <==

--------------------------------------------------------------------------
set {
	reference rhf
	basis cc-pvtz
}

set_num_threads( 4 )
memory 2 gb

molecule MOL {
0 1

H	 -1.396087	 -0.394552	 -0.560513
N	 -0.625934	 -0.663929	 -0.000707
C	 -0.730064	 -1.880477	 0.770177
C	 0.468494	 0.129045	 -0.002160
H	 -1.551587	 -1.824487	 1.474417
H	 0.187932	 -2.015726	 1.316147
H	 -0.883386	 -2.737398	 0.125028
C	 1.785715	 -0.615093	 0.000603
O	 0.413285	 1.323206	 0.000532
H	 1.866994	 -1.243310	 -0.878792
H	 2.591506	 0.100263	 0.006422
H	 1.860358	 -1.250360	 0.875522

	symmetry c1
}
set optking {
	frozen_dihedral = ("
		3 2 4 9
	")
}

ee,wfn = optimize('scf', return_wfn=True)
oeprop( wfn, 'DIPOLE', 'QUADRUPOLE', 'MULLIKEN_CHARGES')
f=open( 'psi4out.xyz', 'w' )
f.write( "12  " )
f.write( str(ee) + "\n" )
f.write( MOL.save_string_xyz() )
f.close()
--------------------------------------------------------------------------

    Molecular point group: c1
  Charge       = 0
  Multiplicity = 1
  Basis Set: CC-PVTZ
  Basis Set:
  @DF-RHF Final Energy:  -247.07943692249805
    Total Energy =                       -247.0794369224979050
    Molecular point group: c1
  Basis Set: CC-PVTZ
  Basis Set:
  Basis Set: CC-PVTZ
  Basis Set:
  @DF-RHF Final Energy:  -247.08496478029494
    Total Energy =                       -247.0849647802947402
  Basis Set: CC-PVTZ
  Basis Set:
  Basis Set: CC-PVTZ
  Basis Set:
  @DF-RHF Final Energy:  -247.08974874023798
    Total Energy =                       -247.0897487402380648
  Basis Set: CC-PVTZ
  Basis Set:
  Basis Set: CC-PVTZ
  Basis Set:
  @DF-RHF Final Energy:  -247.09216306733430
    Total Energy =                       -247.0921630673344680
  Basis Set: CC-PVTZ
  Basis Set:
  @DF-RHF Final Energy:  -247.09214152110195
    Total Energy =                       -247.0921415211019507
  @DF-RHF Final Energy:  -247.09324573869702
    Total Energy =                       -247.0932457386969645
  @DF-RHF Final Energy:  -247.09287529729426
    Total Energy =                       -247.0928752972944267
  @DF-RHF Final Energy:  -247.09421772120817
    Total Energy =                       -247.0942177212079969
  @DF-RHF Final Energy:  -247.09452740215161
    Total Energy =                       -247.0945274021515843
  @DF-RHF Final Energy:  -247.09465969260251
    Total Energy =                       -247.0946596926024199
  Basis Set: CC-PVTZ
  Basis Set:
  @DF-RHF Final Energy:  -247.09471422377649
    Total Energy =                       -247.0947142237764638
  Basis Set: CC-PVTZ
  Basis Set:
  Basis Set: CC-PVTZ
  Basis Set:
  @DF-RHF Final Energy:  -247.09473178499169
    Total Energy =                       -247.0947317849916089
  Basis Set: CC-PVTZ
  Basis Set:
  Basis Set: CC-PVTZ
  Basis Set:
  @DF-RHF Final Energy:  -247.09473663884171
    Total Energy =                       -247.0947366388415958
  Basis Set: CC-PVTZ
  Basis Set:
  Charge       = 0
  Multiplicity = 1
  Basis Set: CC-PVTZ
  Basis Set:

    Orbital Energies (a.u.)
    -----------------------

    Doubly Occupied:

       1A    -20.517634     2A    -15.570770     3A    -11.340208
       4A    -11.267185     5A    -11.229241     6A     -1.397084
       7A     -1.229731     8A     -1.007911     9A     -0.952135
      10A     -0.777047    11A     -0.677872    12A     -0.668327
      13A     -0.639391    14A     -0.594590    15A     -0.578600
      16A     -0.563861    17A     -0.553451    18A     -0.514887
      19A     -0.425630    20A     -0.395018

  @DF-RHF Final Energy:  -247.09473689356076

   => Energetics <=

    Nuclear Repulsion Energy =            181.7143649749156111
    One-Electron Energy =                -695.8170597351142987
    Two-Electron Energy =                 267.0079578666379803
    DFT Exchange-Correlation Energy =       0.0000000000000000
    Empirical Dispersion Energy =           0.0000000000000000
    PCM Polarization Energy =               0.0000000000000000
    EFP Energy =                            0.0000000000000000
    Total Energy =                       -247.0947368935607074
    Molecular point group: c1
  Basis Set: CC-PVTZ
  Basis Set:

  -Total Gradient:
     Atom            X                  Y                   Z
    ------   -----------------  -----------------  -----------------
       1       -0.000023881842     0.000000493012     0.000010300967
       2        0.003258096364    -0.003062494625    -0.003264302958
       3       -0.002115906423     0.001780392529     0.003656590784
       4       -0.000919618898     0.001913419543    -0.005867649127
       5        0.000002568481     0.000012122542     0.000011199671
       6        0.000005127893     0.000004379760    -0.000012884183
       7       -0.000008362775    -0.000009085764    -0.000004504537
       8        0.000002469943     0.000006682141    -0.000014192327
       9       -0.000207085810    -0.000645518653     0.005464520234
      10       -0.000000161062     0.000003733357     0.000007158321
      11        0.000004168490    -0.000000242291     0.000002257306
      12        0.000002585639    -0.000003881556     0.000011505850

  **** Optimization is complete! (in 14 steps) ****
    Final optimized geometry and variables:
    Molecular point group: c1

    Geometry (in Angstrom), charge = 0, multiplicity = 1:

    H           -1.723739877029     0.073295914586    -0.169071757348
    N           -0.847749182664    -0.393239076925    -0.253050112755
    C           -0.829525668641    -1.696903604840     0.382083003519
    C            0.172581024775     0.512105554534    -0.103215068160
    H           -0.802947921835    -1.638157307391     1.466444893628
    H            0.019301257734    -2.275767730978     0.048069432922
    H           -1.721990638294    -2.232289623082     0.091875424796
    C            1.578687181331    -0.038271424215    -0.117116595039
    O           -0.046402545434     1.676529825403     0.030391449486
    H            1.714325434892    -0.754430511759    -0.916772606084
    H            2.265488298072     0.784112530210    -0.234571896983
    H            1.789899115550    -0.537828053077     0.821713554701

  Mulliken Charges: (a.u.)
   Center  Symbol    Alpha    Beta     Spin     Total
       1     H     0.42318  0.42318  0.00000  0.15364
       2     N     3.61020  3.61020  0.00000 -0.22040
       3     C     3.08923  3.08923  0.00000 -0.17846
       4     C     2.84293  2.84293  0.00000  0.31414
       5     H     0.45686  0.45686  0.00000  0.08629
       6     H     0.45160  0.45160  0.00000  0.09680
       7     H     0.44311  0.44311  0.00000  0.11377
       8     C     3.15966  3.15966  0.00000 -0.31931
       9     O     4.19955  4.19955  0.00000 -0.39911
      10     H     0.44521  0.44521  0.00000  0.10958
      11     H     0.42979  0.42979  0.00000  0.14042
      12     H     0.44869  0.44869  0.00000  0.10263

   Total alpha = 20.00000, Total beta = 20.00000, Total charge =  0.00000

*** Psi4 exiting successfully. Buy a developer a beer!
