  ==> Input File <==

--------------------------------------------------------------------------
set {
	reference rhf
	basis 6-31G*
}

set_num_threads( 1 )
memory 2 gb

molecule MOL {
0 1

H	 -2.798360	 -0.862255	 -0.071053
N	 -1.863561	 -0.715187	 0.256814
C	 -1.344686	 0.554728	 -0.219830
H	 -1.300452	 -1.461917	 -0.101532
C	 -2.281882	 1.140315	 -1.255151
H	 -1.199409	 1.293595	 0.569456
H	 -0.379454	 0.382138	 -0.686007
O	 -3.498456	 1.433240	 -0.629667
H	 -1.852658	 2.046535	 -1.681965
H	 -2.433789	 0.422724	 -2.058409
C	 -4.487773	 1.902315	 -1.489196
H	 -5.372662	 2.093654	 -0.897539
H	 -4.185067	 2.826887	 -1.977578
H	 -4.727993	 1.169336	 -2.256558

	symmetry c1
}
set optking {
	frozen_dihedral = ("
		8 5 3 6,
		5 8 11 13,
		11 8 5 3
	")
}

ee = energy('scf')
oeprop('DIPOLE', 'QUADRUPOLE', 'MULLIKEN_CHARGES')
f=open( 'psi4out.xyz', 'w' )
f.write( "14  " )
f.write( str(ee) + "\n" )
f.write( MOL.save_string_xyz() )
f.close()
--------------------------------------------------------------------------

    Molecular point group: c1

    Geometry (in Angstrom), charge = 0, multiplicity = 1:

       Center              X                  Y                   Z               Mass
    ------------   -----------------  -----------------  -----------------  -----------------
           H         -0.082640181288    -1.715485087864     0.612034297970     1.007825032070
           N          0.852158818712    -1.568417087864     0.939901297970    14.003074004780
           C          1.371033818712    -0.298502087864     0.463257297970    12.000000000000
           H          1.415267818712    -2.315147087864     0.581555297970     1.007825032070
           C          0.433837818712     0.287084912136    -0.572063702030    12.000000000000
           H          1.516310818712     0.440364912136     1.252543297970     1.007825032070
           H          2.336265818712    -0.471092087864    -0.002919702030     1.007825032070
           O         -0.782736181288     0.580009912136     0.053420297970    15.994914619560
           H          0.863061818712     1.193304912136    -0.998877702030     1.007825032070
           H          0.281930818712    -0.430506087864    -1.375321702030     1.007825032070
           C         -1.772053181288     1.049084912136    -0.806108702030    12.000000000000
           H         -2.656942181288     1.240423912136    -0.214451702030     1.007825032070
           H         -1.469347181288     1.973656912136    -1.294490702030     1.007825032070
           H         -2.012273181288     0.316105912136    -1.573470702030     1.007825032070

  Charge       = 0
  Multiplicity = 1
  Basis Set: 6-31G*
  Basis Set:

    Orbital Energies (a.u.)
    -----------------------

    Doubly Occupied:

       1A    -20.561046     2A    -15.527138     3A    -11.270536
       4A    -11.269259     5A    -11.241990     6A     -1.385348
       7A     -1.176055     8A     -1.000194     9A     -0.909293
      10A     -0.823187    11A     -0.687652    12A     -0.674987
      13A     -0.649218    14A     -0.615238    15A     -0.591068
      16A     -0.564817    17A     -0.520899    18A     -0.499596
      19A     -0.480458    20A     -0.422765    21A     -0.374901

  @DF-RHF Final Energy:  -248.11761626328897

   => Energetics <=

    Nuclear Repulsion Energy =            195.1067400025523568
    One-Electron Energy =                -723.9573553680373834
    Two-Electron Energy =                 280.7329991021965725
    DFT Exchange-Correlation Energy =       0.0000000000000000
    Empirical Dispersion Energy =           0.0000000000000000
    PCM Polarization Energy =               0.0000000000000000
    EFP Energy =                            0.0000000000000000
    Total Energy =                       -248.1176162632884825

  Mulliken Charges: (a.u.)
   Center  Symbol    Alpha    Beta     Spin     Total
       1     H     0.32422  0.32422  0.00000  0.35156
       2     N     3.92377  3.92377  0.00000 -0.84754
       3     C     3.05688  3.05688  0.00000 -0.11376
       4     H     0.33470  0.33470  0.00000  0.33060
       5     C     3.00599  3.00599  0.00000 -0.01197
       6     H     0.41249  0.41249  0.00000  0.17502
       7     H     0.42583  0.42583  0.00000  0.14833
       8     O     4.30374  4.30374  0.00000 -0.60748
       9     H     0.42913  0.42913  0.00000  0.14174
      10     H     0.43415  0.43415  0.00000  0.13170
      11     C     3.07957  3.07957  0.00000 -0.15914
      12     H     0.41012  0.41012  0.00000  0.17975
      13     H     0.42891  0.42891  0.00000  0.14218
      14     H     0.43049  0.43049  0.00000  0.13901

   Total alpha = 21.00000, Total beta = 21.00000, Total charge = -0.00000
