  ==> Input File <==

--------------------------------------------------------------------------
set {
	reference rhf
	basis cc-pvtz
}

set_num_threads( 4 )
memory 2 gb

molecule MOL {
0 1

H	 -2.498963	 -0.741158	 -0.729149
O	 -2.346257	 -0.289210	 0.080372
C	 -1.183935	 0.486039	 -0.009831
C	 0.062853	 -0.375310	 0.027457
H	 -1.178881	 1.094526	 -0.908634
H	 -1.184406	 1.155156	 0.838676
O	 1.172093	 0.457955	 -0.054438
H	 0.052476	 -1.081302	 -0.804627
H	 0.076323	 -0.955658	 0.947560
C	 0.882092	 1.778814	 -0.374520
H	 0.236950	 2.236286	 0.372331
H	 1.814277	 2.323325	 -0.409518
H	 0.394563	 1.854923	 -1.343562

	symmetry c1
}
set optking {
	frozen_dihedral = ("
		10 7 4 8
	")
}

ee = optimize('scf')
oeprop('DIPOLE', 'QUADRUPOLE', 'MULLIKEN_CHARGES')
f=open( 'psi4out.xyz', 'w' )
f.write( "13  " )
f.write( str(ee) + "\n" )
f.write( MOL.save_string_xyz() )
f.close()
--------------------------------------------------------------------------

    Molecular point group: c1
  Charge       = 0
  Multiplicity = 1
  Basis Set: CC-PVTZ
  Basis Set:
  @DF-RHF Final Energy:  -268.03414645015448
    Total Energy =                       -268.0341464501544806
    Molecular point group: c1
  Basis Set: CC-PVTZ
  Basis Set:
  Basis Set: CC-PVTZ
  Basis Set:
  @DF-RHF Final Energy:  -268.03923753472833
    Total Energy =                       -268.0392375347284428
  Basis Set: CC-PVTZ
  Basis Set:
  Basis Set: CC-PVTZ
  Basis Set:
  @DF-RHF Final Energy:  -268.04656364300064
    Total Energy =                       -268.0465636430007521
  Basis Set: CC-PVTZ
  Basis Set:
  Basis Set: CC-PVTZ
  Basis Set:
  @DF-RHF Final Energy:  -268.04960521756345
    Total Energy =                       -268.0496052175636237
  Basis Set: CC-PVTZ
  Basis Set:
  @DF-RHF Final Energy:  -268.05065373240518
    Total Energy =                       -268.0506537324050669
  @DF-RHF Final Energy:  -268.05098026588939
    Total Energy =                       -268.0509802658892227
  @DF-RHF Final Energy:  -268.05100382532214
    Total Energy =                       -268.0510038253220841
  Basis Set: CC-PVTZ
  Basis Set:
  @DF-RHF Final Energy:  -268.05101156409137
    Total Energy =                       -268.0510115640914250
  Basis Set: CC-PVTZ
  Basis Set:
  Basis Set: CC-PVTZ
  Basis Set:
  @DF-RHF Final Energy:  -268.05101545687313
    Total Energy =                       -268.0510154568729035
  Basis Set: CC-PVTZ
  Basis Set:
  Basis Set: CC-PVTZ
  Basis Set:
  @DF-RHF Final Energy:  -268.05101684882959
    Total Energy =                       -268.0510168488295335
  Basis Set: CC-PVTZ
  Basis Set:
  Charge       = 0
  Multiplicity = 1
  Basis Set: CC-PVTZ
  Basis Set:

    Orbital Energies (a.u.)
    -----------------------

    Doubly Occupied:

       1A    -20.558471     2A    -20.550207     3A    -11.276119
       4A    -11.270094     5A    -11.268341     6A     -1.384521
       7A     -1.372211     8A     -1.014278     9A     -0.940270
      10A     -0.828984    11A     -0.713921    12A     -0.677743
      13A     -0.665676    14A     -0.634358    15A     -0.600143
      16A     -0.567788    17A     -0.544938    18A     -0.516636
      19A     -0.492825    20A     -0.432547    21A     -0.412807

  @DF-RHF Final Energy:  -268.05101689033916

   => Energetics <=

    Nuclear Repulsion Energy =            192.9030780091158874
    One-Electron Energy =                -748.4624320410775908
    Two-Electron Energy =                 287.5083371416224054
    DFT Exchange-Correlation Energy =       0.0000000000000000
    Empirical Dispersion Energy =           0.0000000000000000
    PCM Polarization Energy =               0.0000000000000000
    EFP Energy =                            0.0000000000000000
    Total Energy =                       -268.0510168903392696
    Molecular point group: c1
  Basis Set: CC-PVTZ
  Basis Set:

  -Total Gradient:
     Atom            X                  Y                   Z
    ------   -----------------  -----------------  -----------------
       1        0.000001622856     0.000002785352     0.000001585057
       2        0.000004570069     0.000007207637     0.000001599938
       3       -0.000003359160    -0.000004819663    -0.000004724279
       4       -0.002146742438     0.003039975612    -0.000929798407
       5       -0.000000591186     0.000001440582     0.000000709401
       6       -0.000003152539    -0.000002352439    -0.000000612686
       7        0.000874131122    -0.001491978621    -0.003649566164
       8        0.001579020573    -0.002188285552     0.001852781513
       9        0.000003504643     0.000003401336    -0.000000539011
      10       -0.000308332424     0.000627508909     0.002728653219
      11       -0.000000892423    -0.000001654255     0.000001256365
      12        0.000001408896     0.000005024311    -0.000000668174
      13       -0.000001187989     0.000001746790    -0.000000676772

  **** Optimization is complete! (in 11 steps) ****
    Final optimized geometry and variables:
    Molecular point group: c1

    Geometry (in Angstrom), charge = 0, multiplicity = 1:

    H           -2.116551373351    -1.401591488625    -0.583119495167
    O           -2.054130976980    -0.890168226150     0.203299922796
    C           -1.016150365475     0.042157885249     0.092275268797
    C            0.323830680725    -0.681862439539     0.061777230757
    H           -1.153201308722     0.666393446756    -0.784582437267
    H           -1.086707508372     0.677455778973     0.963818675544
    O            1.481384919811     0.104352341005     0.008875782966
    H            0.337877750928    -1.378162156502    -0.775833234452
    H            0.388807605110    -1.284934692051     0.959048278185
    C            1.405064443903     1.455521570865    -0.316597193573
    H            0.797052451767     2.018879912254     0.383397191180
    H            2.413197849418     1.841081894168    -0.273749723741
    H            1.022890349625     1.618552201212    -1.320969851704

  Mulliken Charges: (a.u.)
   Center  Symbol    Alpha    Beta     Spin     Total
       1     H     0.39306  0.39306  0.00000  0.21387
       2     O     4.19940  4.19940  0.00000 -0.39880
       3     C     2.99283  2.99283  0.00000  0.01433
       4     C     2.96957  2.96957  0.00000  0.06087
       5     H     0.46640  0.46640  0.00000  0.06720
       6     H     0.44759  0.44759  0.00000  0.10483
       7     O     4.18029  4.18029  0.00000 -0.36058
       8     H     0.47550  0.47550  0.00000  0.04901
       9     H     0.45676  0.45676  0.00000  0.08647
      10     C     3.03740  3.03740  0.00000 -0.07480
      11     H     0.46898  0.46898  0.00000  0.06204
      12     H     0.44082  0.44082  0.00000  0.11836
      13     H     0.47141  0.47141  0.00000  0.05719

   Total alpha = 21.00000, Total beta = 21.00000, Total charge = -0.00000
