                              Psi4 1.0.54 Driver

  ==> Input File <==

--------------------------------------------------------------------------
set {
	reference rhf
	basis cc-pvtz
}

set_num_threads( 4 )
memory 2 gb

molecule MOL {
0 1

H	 -1.613087	 1.116484	 4.766829
O	 -0.782476	 1.096963	 5.204474
C	 -0.229961	 -0.191406	 5.140396
C	 0.284415	 -0.562620	 3.757535
H	 0.590686	 -0.196244	 5.845020
H	 -0.951674	 -0.931187	 5.481431
C	 -0.804088	 -0.673181	 2.692271
H	 1.020466	 0.175462	 3.453196
H	 0.805710	 -1.513406	 3.839116
C	 -0.254557	 -1.079381	 1.325577
H	 -1.319652	 0.277511	 2.606366
H	 -1.545927	 -1.403992	 3.009880
C	 -1.311023	 -1.277304	 0.237018
H	 0.466055	 -0.335239	 0.995126
H	 0.299813	 -2.006957	 1.438469
C	 -2.041121	 -0.006551	 -0.194127
H	 -0.826118	 -1.709338	 -0.634039
H	 -2.038098	 -2.013392	 0.572715
C	 -3.489218	 0.042606	 0.286507
H	 -2.022185	 0.066287	 -1.279394
H	 -1.518764	 0.869305	 0.178730
C	 -4.219984	 1.311773	 -0.139038
H	 -4.022855	 -0.824300	 -0.093339
H	 -3.510372	 -0.038577	 1.370031
H	 -4.244251	 1.405725	 -1.219696
H	 -5.244345	 1.313233	 0.215630
H	 -3.732090	 2.196311	 0.257073

	symmetry c1
}
set optking {
	frozen_dihedral = ("
		10 13 16 20
	")
}

ee,wfn = optimize('scf', return_wfn=True)
oeprop( wfn, 'DIPOLE', 'QUADRUPOLE', 'MULLIKEN_CHARGES')
f=open( 'psi4out.xyz', 'w' )
f.write( "27  " )
f.write( str(ee) + "\n" )
f.write( MOL.save_string_xyz() )
f.close()
--------------------------------------------------------------------------

    Molecular point group: c1
  Charge       = 0
  Multiplicity = 1
  Basis Set: CC-PVTZ
  Basis Set:
  @DF-RHF Final Energy:  -388.42260590361354
    Total Energy =                       -388.4226059036138849
    Molecular point group: c1
  Basis Set: CC-PVTZ
  Basis Set:
  Basis Set: CC-PVTZ
  Basis Set:
  @DF-RHF Final Energy:  -388.42288699453314
    Total Energy =                       -388.4228869945326323
  Basis Set: CC-PVTZ
  Basis Set:
  Basis Set: CC-PVTZ
  Basis Set:
  @DF-RHF Final Energy:  -388.42297610434434
    Total Energy =                       -388.4229761043445706
  Basis Set: CC-PVTZ
  Basis Set:
  Basis Set: CC-PVTZ
  Basis Set:
  @DF-RHF Final Energy:  -388.42297780979777
    Total Energy =                       -388.4229778097976578
  Basis Set: CC-PVTZ
  Basis Set:
  Basis Set: CC-PVTZ
  Basis Set:
  @DF-RHF Final Energy:  -388.42298004627713
    Total Energy =                       -388.4229800462771891
  Basis Set: CC-PVTZ
  Basis Set:
  Charge       = 0
  Multiplicity = 1
  Basis Set: CC-PVTZ
  Basis Set:

    Orbital Energies (a.u.)
    -----------------------

    Doubly Occupied:

       1A    -20.545647     2A    -11.265219     3A    -11.216972
       4A    -11.214981     5A    -11.214834     6A    -11.213412
       7A    -11.213105     8A    -11.212168     9A    -11.207802
      10A     -1.363506    11A     -1.095644    12A     -1.061391
      13A     -1.012407    14A     -0.949234    15A     -0.889824
      16A     -0.825048    17A     -0.797766    18A     -0.779419
      19A     -0.696704    20A     -0.652855    21A     -0.636365
      22A     -0.612917    23A     -0.601429    24A     -0.591140
      25A     -0.578696    26A     -0.558684    27A     -0.544820
      28A     -0.519784    29A     -0.509627    30A     -0.496232
      31A     -0.487006    32A     -0.478274    33A     -0.470710
      34A     -0.459717    35A     -0.447716    36A     -0.442254
      37A     -0.425490

  @DF-RHF Final Energy:  -388.42298021163009

   => Energetics <=

    Nuclear Repulsion Energy =            469.3088836968894952
    One-Electron Energy =               -1456.8861311238210874
    Two-Electron Energy =                 599.1542672153016156
    DFT Exchange-Correlation Energy =       0.0000000000000000
    Empirical Dispersion Energy =           0.0000000000000000
    PCM Polarization Energy =               0.0000000000000000
    EFP Energy =                            0.0000000000000000
    Total Energy =                       -388.4229802116299197
    Molecular point group: c1
  Basis Set: CC-PVTZ
  Basis Set:

  -Total Gradient:
     Atom            X                  Y                   Z
    ------   -----------------  -----------------  -----------------
       1        0.000004973404    -0.000003076660     0.000001634843
       2        0.000001629468     0.000003064380     0.000006425930
       3       -0.000004736629    -0.000012177324    -0.000003247977
       4        0.000001739843     0.000002028241     0.000003994554
       5       -0.000005312181     0.000004140155    -0.000001026470
       6        0.000000739398     0.000005087372     0.000001593835
       7        0.000002581963    -0.000001017693    -0.000001348922
       8       -0.000005556078    -0.000003780435    -0.000005830548
       9       -0.000001370419     0.000003912292    -0.000001672779
      10        0.000443253441     0.000122490506    -0.000452222445
      11        0.000005129810    -0.000006260228    -0.000004472137
      12        0.000004034235     0.000003959966     0.000003043651
      13       -0.000464287421    -0.000040286232     0.000653959949
      14        0.000004981902    -0.000002003108     0.000002398001
      15       -0.000007285075     0.000002810836     0.000001388725
      16       -0.000729817228    -0.000514243779    -0.000225953170
      17       -0.000004795012     0.000008605782    -0.000008512379
      18       -0.000007595456     0.000000648978    -0.000003100020
      19        0.000009572001    -0.000011916853    -0.000004108550
      20        0.000742251860     0.000435549452     0.000031834468
      21        0.000005026717     0.000004734872     0.000004109279
      22        0.000007717724    -0.000001551973     0.000002465707
      23       -0.000002749370     0.000003506095    -0.000003200095
      24       -0.000001980476    -0.000001730060     0.000000056429
      25       -0.000000677771    -0.000001487271     0.000000126557
      26        0.000002815433    -0.000000544652     0.000001690871
      27       -0.000000284077    -0.000000462654    -0.000000027303

  **** Optimization is complete! (in 6 steps) ****
    Final optimized geometry and variables:
    Molecular point group: c1

    Geometry (in Angstrom), charge = 0, multiplicity = 1:

    H           -0.201197689682     1.242866486896     2.655616253344
    O            0.637840898201     1.262933688772     3.076538584152
    C            1.230467161763    -0.008595630505     3.039772832569
    C            1.738824869429    -0.400653554959     1.660545923243
    H            2.059616853273     0.031560863999     3.733200336351
    H            0.537017507914    -0.761071660088     3.410142315361
    C            0.641978360498    -0.565806168488     0.611158145106
    H            2.451734162353     0.348398021892     1.329390744413
    H            2.285844920617    -1.335210033334     1.759300989040
    C            1.183765807575    -1.005889117968    -0.747372923153
    H            0.107784431378     0.372370142670     0.498983937355
    H           -0.083269152206    -1.298487717211     0.960281503742
    C            0.123134992016    -1.210665902320    -1.831639141639
    H            1.909722759697    -0.275195748389    -1.095188485951
    H            1.729546524724    -1.936556106086    -0.617871558456
    C           -0.624792495685     0.066216348098    -2.266010527707
    H            0.616047081622    -1.644511960421    -2.694764903730
    H           -0.592402291229    -1.955877879836    -1.494541200992
    C           -2.074980725559     0.141638928497    -1.791284907138
    H           -0.612972903419     0.140524824617    -3.348836512213
    H           -0.088793653123     0.942066682309    -1.910278967887
    C           -2.776347915580     1.427601297478    -2.214722677318
    H           -2.620464739667    -0.712019096681    -2.183957081839
    H           -2.111252360526     0.050230347572    -0.709735017484
    H           -2.785290034046     1.530465458789    -3.294771612070
    H           -3.804879381067     1.445927360986    -1.872779320716
    H           -2.276375545150     2.299702587161    -1.806236863214

  Mulliken Charges: (a.u.)
   Center  Symbol    Alpha    Beta     Spin     Total
       1     H     0.39221  0.39221  0.00000  0.21557
       2     O     4.20553  4.20553  0.00000 -0.41106
       3     C     2.98047  2.98047  0.00000  0.03906
       4     C     3.08822  3.08822  0.00000 -0.17643
       5     H     0.44843  0.44843  0.00000  0.10313
       6     H     0.46943  0.46943  0.00000  0.06113
       7     C     3.10639  3.10639  0.00000 -0.21278
       8     H     0.45079  0.45079  0.00000  0.09842
       9     H     0.45506  0.45506  0.00000  0.08988
      10     C     3.09464  3.09464  0.00000 -0.18928
      11     H     0.45564  0.45564  0.00000  0.08873
      12     H     0.45210  0.45210  0.00000  0.09581
      13     C     3.10462  3.10462  0.00000 -0.20923
      14     H     0.45193  0.45193  0.00000  0.09614
      15     H     0.44831  0.44831  0.00000  0.10338
      16     C     3.10563  3.10563  0.00000 -0.21126
      17     H     0.44225  0.44225  0.00000  0.11549
      18     H     0.45408  0.45408  0.00000  0.09184
      19     C     3.08261  3.08261  0.00000 -0.16522
      20     H     0.44403  0.44403  0.00000  0.11194
      21     H     0.45159  0.45159  0.00000  0.09682
      22     C     3.15075  3.15075  0.00000 -0.30149
      23     H     0.45261  0.45261  0.00000  0.09478
      24     H     0.45515  0.45515  0.00000  0.08971
      25     H     0.45418  0.45418  0.00000  0.09164
      26     H     0.44841  0.44841  0.00000  0.10317
      27     H     0.45494  0.45494  0.00000  0.09012

   Total alpha = 37.00000, Total beta = 37.00000, Total charge = -0.00000

*** Psi4 exiting successfully. Buy a developer a beer!
