                              Psi4 1.0.54 Driver

  ==> Input File <==

--------------------------------------------------------------------------
set {
	reference rhf
	basis cc-pvtz
}

set_num_threads( 4 )
memory 2 gb

molecule MOL {
0 1

O	 -0.694481	 1.313155	 -0.204815
C	 -0.862519	 0.151932	 -0.046791
C	 -2.171428	 -0.477048	 0.339095
O	 0.085519	 -0.757083	 -0.192238
H	 -2.467997	 -1.191667	 -0.417688
H	 -2.923379	 0.287970	 0.444097
H	 -2.053854	 -1.015120	 1.270901
C	 0.730877	 -1.265227	 0.969564
C	 -0.045470	 -2.410466	 1.585691
H	 0.869694	 -0.463793	 1.678260
H	 1.697191	 -1.598668	 0.621992
H	 0.508227	 -2.814047	 2.425925
H	 -1.009480	 -2.075676	 1.943437
H	 -0.194502	 -3.204029	 0.863443

	symmetry c1
}
set optking {
	frozen_dihedral = ("
		8 4 2 1
	")
}

ee,wfn = optimize('scf', return_wfn=True)
oeprop( wfn, 'DIPOLE', 'QUADRUPOLE', 'MULLIKEN_CHARGES')
f=open( 'psi4out.xyz', 'w' )
f.write( "14  " )
f.write( str(ee) + "\n" )
f.write( MOL.save_string_xyz() )
f.close()
--------------------------------------------------------------------------

    Molecular point group: c1
  Charge       = 0
  Multiplicity = 1
  Basis Set: CC-PVTZ
  Basis Set:
  @DF-RHF Final Energy:  -305.95977588748337
    Total Energy =                       -305.9597758874836018
    Molecular point group: c1
  Basis Set: CC-PVTZ
  Basis Set:
  Basis Set: CC-PVTZ
  Basis Set:
  @DF-RHF Final Energy:  -305.96724308588830
    Total Energy =                       -305.9672430858884127
  Basis Set: CC-PVTZ
  Basis Set:
  Basis Set: CC-PVTZ
  Basis Set:
  @DF-RHF Final Energy:  -305.96840166710751
    Total Energy =                       -305.9684016671076279
  Basis Set: CC-PVTZ
  Basis Set:
  Basis Set: CC-PVTZ
  Basis Set:
  @DF-RHF Final Energy:  -305.96900557583058
    Total Energy =                       -305.9690055758307494
  Basis Set: CC-PVTZ
  Basis Set:
  @DF-RHF Final Energy:  -305.96935052777360
    Total Energy =                       -305.9693505277739405
  @DF-RHF Final Energy:  -305.96941209630330
    Total Energy =                       -305.9694120963034152
  @DF-RHF Final Energy:  -305.96953233807949
    Total Energy =                       -305.9695323380794889
  @DF-RHF Final Energy:  -305.96912506072283
    Total Energy =                       -305.9691250607226607
  @DF-RHF Final Energy:  -305.96923075025563
    Total Energy =                       -305.9692307502554627
  @DF-RHF Final Energy:  -305.97011205612210
    Total Energy =                       -305.9701120561221614
  @DF-RHF Final Energy:  -305.97021615699703
    Total Energy =                       -305.9702161569971395
  @DF-RHF Final Energy:  -305.97030309689836
    Total Energy =                       -305.9703030968983057
  @DF-RHF Final Energy:  -305.97038373369992
    Total Energy =                       -305.9703837336999754
  @DF-RHF Final Energy:  -305.97062064447709
    Total Energy =                       -305.9706206444773215
  @DF-RHF Final Energy:  -305.95231857523612
    Total Energy =                       -305.9523185752358927
  @DF-RHF Final Energy:  -305.91149404944071
    Total Energy =                       -305.9114940494408756
  @DF-RHF Final Energy:  -305.96639761943618
    Total Energy =                       -305.9663976194362931
  @DF-RHF Final Energy:  -305.97016131192009
    Total Energy =                       -305.9701613119200942
  @DF-RHF Final Energy:  -305.97183426710393
    Total Energy =                       -305.9718342671041000
  @DF-RHF Final Energy:  -305.97124335171850
    Total Energy =                       -305.9712433517184991
  @DF-RHF Final Energy:  -305.97154157667643
    Total Energy =                       -305.9715415766761453
  @DF-RHF Final Energy:  -305.97250012103200
    Total Energy =                       -305.9725001210318851
  @DF-RHF Final Energy:  -305.97255200829090
    Total Energy =                       -305.9725520082910180
  @DF-RHF Final Energy:  -305.97258071532713
    Total Energy =                       -305.9725807153274104
  @DF-RHF Final Energy:  -305.97259217859539
    Total Energy =                       -305.9725921785952210
  Basis Set: CC-PVTZ
  Basis Set:
  @DF-RHF Final Energy:  -305.97260253593140
    Total Energy =                       -305.9726025359315145
  Basis Set: CC-PVTZ
  Basis Set:
  Basis Set: CC-PVTZ
  Basis Set:
  @DF-RHF Final Energy:  -305.97260747487849
    Total Energy =                       -305.9726074748786004
  Basis Set: CC-PVTZ
  Basis Set:
  Basis Set: CC-PVTZ
  Basis Set:
  @DF-RHF Final Energy:  -305.97260913231344
    Total Energy =                       -305.9726091323131527
  Basis Set: CC-PVTZ
  Basis Set:
  Charge       = 0
  Multiplicity = 1
  Basis Set: CC-PVTZ
  Basis Set:

    Orbital Energies (a.u.)
    -----------------------

    Doubly Occupied:

       1A    -20.577067     2A    -20.544632     3A    -11.370231
       4A    -11.295076     5A    -11.236895     6A    -11.223721
       7A     -1.461330     8A     -1.370268     9A     -1.050713
      10A     -1.010094    11A     -0.875252    12A     -0.783264
      13A     -0.699386    14A     -0.691186    15A     -0.650829
      16A     -0.633696    17A     -0.586202    18A     -0.575323
      19A     -0.555406    20A     -0.536631    21A     -0.523673
      22A     -0.492458    23A     -0.457514    24A     -0.441318

  @DF-RHF Final Energy:  -305.97260935369320

   => Energetics <=

    Nuclear Repulsion Energy =            245.1210219840448588
    One-Electron Energy =                -902.9029287395173924
    Two-Electron Energy =                 351.8092974017793608
    DFT Exchange-Correlation Energy =       0.0000000000000000
    Empirical Dispersion Energy =           0.0000000000000000
    PCM Polarization Energy =               0.0000000000000000
    EFP Energy =                            0.0000000000000000
    Total Energy =                       -305.9726093536931444
    Molecular point group: c1
  Basis Set: CC-PVTZ
  Basis Set:

  -Total Gradient:
     Atom            X                  Y                   Z
    ------   -----------------  -----------------  -----------------
       1       -0.000848441110    -0.000012775394    -0.000771248686
       2        0.000908715115     0.000138725291     0.001373205881
       3        0.000001392078    -0.000024884858     0.000018649242
       4        0.000650235981    -0.000327521447    -0.001129854912
       5        0.000014636399     0.000003660465     0.000000813904
       6       -0.000004906403     0.000002412922     0.000001186541
       7       -0.000006403849     0.000002507014    -0.000024677809
       8       -0.000727590906     0.000232386355     0.000527961623
       9       -0.000003732903    -0.000000942853    -0.000002953431
      10        0.000005469785    -0.000000602137     0.000001261429
      11        0.000005632223    -0.000003127146     0.000003277555
      12        0.000000595472    -0.000002458562    -0.000000071807
      13        0.000004741897    -0.000003820216    -0.000001714706
      14       -0.000000343777    -0.000003559434     0.000004165171

  **** Optimization is complete! (in 29 steps) ****
    Final optimized geometry and variables:
    Molecular point group: c1

    Geometry (in Angstrom), charge = 0, multiplicity = 1:

    O            0.628759713127     1.246677914423    -1.367366478102
    C           -0.078413891911     0.884231776358    -0.500787279442
    C           -0.920356536647     1.803760856504     0.341094099457
    O           -0.254320907997    -0.426630902432    -0.240202289397
    H           -1.964733871229     1.585413248252     0.154243888793
    H           -0.707427815392     2.830264119024     0.090416194048
    H           -0.736928998729     1.636274196812     1.394569131649
    C            0.471298683943    -0.993426803009     0.835924020827
    C            0.151235594947    -2.468531585778     0.894646633436
    H            0.195373631369    -0.507548933025     1.766040222748
    H            1.530905397596    -0.835902709408     0.670239948878
    H            0.695542483604    -2.932048579388     1.709101532220
    H           -0.908176382168    -2.622549313439     1.055305626505
    H            0.432609372706    -2.953165539741    -0.030802590023

  Mulliken Charges: (a.u.)
   Center  Symbol    Alpha    Beta     Spin     Total
       1     O     4.16835  4.16835  0.00000 -0.33670
       2     C     2.80473  2.80473  0.00000  0.39055
       3     C     3.14646  3.14646  0.00000 -0.29292
       4     O     4.16639  4.16639  0.00000 -0.33277
       5     H     0.44363  0.44363  0.00000  0.11273
       6     H     0.43590  0.43590  0.00000  0.12820
       7     H     0.45091  0.45091  0.00000  0.09819
       8     C     2.97508  2.97508  0.00000  0.04984
       9     C     3.13384  3.13384  0.00000 -0.26768
      10     H     0.46512  0.46512  0.00000  0.06976
      11     H     0.45716  0.45716  0.00000  0.08568
      12     H     0.45673  0.45673  0.00000  0.08654
      13     H     0.45036  0.45036  0.00000  0.09927
      14     H     0.44535  0.44535  0.00000  0.10931

   Total alpha = 24.00000, Total beta = 24.00000, Total charge = -0.00000

*** Psi4 exiting successfully. Buy a developer a beer!
