  ==> Input File <==

--------------------------------------------------------------------------
set {
	reference rhf
	basis 6-31G*
}

set_num_threads( 4 )
memory 2 gb

molecule MOL {
0 1

H	 -4.155895	 0.782200	 -0.292795
O	 -3.437871	 0.213662	 -0.531773
C	 -2.306886	 0.532354	 0.237577
C	 -1.177863	 -0.397191	 -0.171080
H	 -2.013500	 1.568803	 0.076312
H	 -2.520311	 0.415348	 1.299226
C	 0.198102	 0.111031	 0.262842
H	 -1.208843	 -0.518759	 -1.250427
H	 -1.368741	 -1.376554	 0.258909
C	 1.331804	 -0.827780	 -0.158768
H	 0.361943	 1.100838	 -0.156218
H	 0.217265	 0.229072	 1.345532
C	 2.723619	 -0.410569	 0.329459
H	 1.342964	 -0.912588	 -1.244120
H	 1.116806	 -1.824343	 0.220779
C	 3.243875	 0.895854	 -0.272975
H	 3.424222	 -1.207124	 0.091250
H	 2.714788	 -0.329854	 1.414619
H	 3.251977	 0.848779	 -1.358681
H	 2.637085	 1.747371	 0.016682
H	 4.259473	 1.094070	 0.055697

	symmetry c1
}
set optking {
	frozen_dihedral = ("
		2 3 4 8
	")
}

ee = optimize('scf')
oeprop('DIPOLE', 'QUADRUPOLE', 'MULLIKEN_CHARGES')
f=open( 'psi4out.xyz', 'w' )
f.write( "21  " )
f.write( str(ee) + "\n" )
f.write( MOL.save_string_xyz() )
f.close()
--------------------------------------------------------------------------

    Molecular point group: c1
  Charge       = 0
  Multiplicity = 1
  Basis Set: 6-31G*
  Basis Set:
  @DF-RHF Final Energy:  -310.21158417503057
    Total Energy =                       -310.2115841750304526
    Molecular point group: c1
  Basis Set: 6-31G*
  Basis Set:
  Basis Set: 6-31G*
  Basis Set:
  @DF-RHF Final Energy:  -310.21169208316252
    Total Energy =                       -310.2116920831625748
  Basis Set: 6-31G*
  Basis Set:
  Basis Set: 6-31G*
  Basis Set:
  @DF-RHF Final Energy:  -310.21173432041149
    Total Energy =                       -310.2117343204111535
  Basis Set: 6-31G*
  Basis Set:
  Basis Set: 6-31G*
  Basis Set:
  @DF-RHF Final Energy:  -310.21174119911490
    Total Energy =                       -310.2117411991150107
  Basis Set: 6-31G*
  Basis Set:
  Basis Set: 6-31G*
  Basis Set:
  @DF-RHF Final Energy:  -310.21174336507170
    Total Energy =                       -310.2117433650717544
  Basis Set: 6-31G*
  Basis Set:
  Charge       = 0
  Multiplicity = 1
  Basis Set: 6-31G*
  Basis Set:

    Orbital Energies (a.u.)
    -----------------------

    Doubly Occupied:

       1A    -20.551885     2A    -11.267124     3A    -11.215665
       4A    -11.215087     5A    -11.213459     6A    -11.210474
       7A    -11.207968     8A     -1.358566     9A     -1.085973
      10A     -1.032716    11A     -0.954187    12A     -0.875751
      13A     -0.807443    14A     -0.779089    15A     -0.694308
      16A     -0.658174    17A     -0.620179    18A     -0.608984
      19A     -0.587710    20A     -0.566720    21A     -0.538169
      22A     -0.519892    23A     -0.509565    24A     -0.488840
      25A     -0.478432    26A     -0.460117    27A     -0.455950
      28A     -0.443153    29A     -0.432789

  @DF-RHF Final Energy:  -310.21174368764383

   => Energetics <=

    Nuclear Repulsion Energy =            312.4310476794567535
    One-Electron Energy =               -1039.6088439092204680
    Two-Electron Energy =                 416.9660525421201100
    DFT Exchange-Correlation Energy =       0.0000000000000000
    Empirical Dispersion Energy =           0.0000000000000000
    PCM Polarization Energy =               0.0000000000000000
    EFP Energy =                            0.0000000000000000
    Total Energy =                       -310.2117436876436614
    Molecular point group: c1
  Basis Set: 6-31G*
  Basis Set:

  -Total Gradient:
     Atom            X                  Y                   Z
    ------   -----------------  -----------------  -----------------
       1       -0.000012447706     0.000000105619    -0.000009196283
       2        0.000712379229     0.001810561025    -0.001789190529
       3       -0.001348359826    -0.002925459131     0.002402830930
       4        0.002680152789     0.003830055019    -0.000928061276
       5       -0.000018211910    -0.000003086049    -0.000002318688
       6       -0.000010899861     0.000004333470     0.000002082390
       7       -0.000007910239    -0.000022207077     0.000002108804
       8       -0.002016588519    -0.002714580212     0.000312786272
       9        0.000004668969     0.000012238225     0.000012783374
      10        0.000008338122     0.000011725069     0.000002360270
      11       -0.000007235764    -0.000012727396    -0.000005386173
      12        0.000007060426     0.000006033866     0.000005148579
      13       -0.000000410644    -0.000004609383     0.000002297192
      14        0.000002948656     0.000009603638     0.000001508654
      15        0.000001188727    -0.000001586032    -0.000005262839
      16        0.000003964078     0.000001390080    -0.000003237583
      17       -0.000002912264    -0.000005237072     0.000003124560
      18       -0.000001506732     0.000003344066    -0.000000471635
      19        0.000003429032     0.000001719251    -0.000003609368
      20        0.000004321683    -0.000001983379    -0.000001146889
      21       -0.000001968241     0.000000366403     0.000000850240

  **** Optimization is complete! (in 6 steps) ****
    Final optimized geometry and variables:
    Molecular point group: c1

    Geometry (in Angstrom), charge = 0, multiplicity = 1:

    H           -4.199021112777     0.685765696685    -0.171104865339
    O           -3.462256698594     0.170928814226    -0.467962440784
    C           -2.325856104186     0.489906363646     0.293840985180
    C           -1.185149432382    -0.414323053178    -0.148397164225
    H           -2.053574589120     1.533359237898     0.138696324560
    H           -2.520367906437     0.360142494052     1.357047463523
    C            0.188319713290     0.083612481215     0.301143737134
    H           -1.233290056896    -0.508980861090    -1.229248061984
    H           -1.363204643414    -1.413210138836     0.242861548745
    C            1.320315398699    -0.866406032021    -0.098619849349
    H            0.363655614167     1.069452220539    -0.121499983636
    H            0.193948870312     0.208544564279     1.383686504602
    C            2.710287106145    -0.450156576996     0.395793964467
    H            1.339639678803    -0.964858519266    -1.182727096452
    H            1.097233086425    -1.857040430497     0.291622077691
    C            3.244597657047     0.843190579703    -0.222384465169
    H            3.407916668162    -1.254751912089     0.176654583157
    H            2.692088902350    -0.352261194790     1.479459370180
    H            3.262927196547     0.778527021124    -1.307029907813
    H            2.640468492404     1.703028995497     0.047488147755
    H            4.258195004218     1.040361142698     0.113048326536

  Mulliken Charges: (a.u.)
   Center  Symbol    Alpha    Beta     Spin     Total
       1     H     0.28131  0.28131  0.00000  0.43737
       2     O     4.37177  4.37177  0.00000 -0.74354
       3     C     2.99021  2.99021  0.00000  0.01958
       4     C     3.16087  3.16087  0.00000 -0.32174
       5     H     0.43288  0.43288  0.00000  0.13424
       6     H     0.43197  0.43197  0.00000  0.13605
       7     C     3.16159  3.16159  0.00000 -0.32319
       8     H     0.41067  0.41067  0.00000  0.17866
       9     H     0.41791  0.41791  0.00000  0.16418
      10     C     3.15209  3.15209  0.00000 -0.30418
      11     H     0.42017  0.42017  0.00000  0.15967
      12     H     0.42493  0.42493  0.00000  0.15014
      13     C     3.15252  3.15252  0.00000 -0.30503
      14     H     0.42258  0.42258  0.00000  0.15484
      15     H     0.42135  0.42135  0.00000  0.15731
      16     C     3.24114  3.24114  0.00000 -0.48227
      17     H     0.42066  0.42066  0.00000  0.15868
      18     H     0.42372  0.42372  0.00000  0.15255
      19     H     0.42178  0.42178  0.00000  0.15645
      20     H     0.42056  0.42056  0.00000  0.15888
      21     H     0.41932  0.41932  0.00000  0.16136

   Total alpha = 29.00000, Total beta = 29.00000, Total charge =  0.00000
