  ==> Input File <==

--------------------------------------------------------------------------
set {
	reference rhf
	basis 6-31G*
}

set_num_threads( 1 )
memory 2 gb

molecule MOL {
0 1

O	 3.225979	 0.970355	 -0.599647
C	 2.701189	 0.057885	 -0.047330
C	 1.245376	 -0.013843	 0.345420
O	 3.347903	 -1.046386	 0.304773
C	 0.455112	 1.231400	 -0.050772
H	 0.838542	 -0.913825	 -0.103701
H	 1.208210	 -0.175333	 1.419774
C	 -0.998893	 1.219485	 0.433193
H	 0.482531	 1.345121	 -1.130325
H	 0.957290	 2.103070	 0.354729
C	 -1.883438	 0.145884	 -0.207175
H	 -1.431207	 2.195402	 0.224832
H	 -1.019646	 1.105716	 1.516076
C	 -3.217647	 0.698203	 -0.712973
H	 -1.346430	 -0.312127	 -1.036433
H	 -2.081189	 -0.651063	 0.506086
C	 -4.112035	 -0.366774	 -1.350171
H	 -3.028396	 1.488006	 -1.437976
H	 -3.750368	 1.165831	 0.113606
C	 -5.440806	 0.193684	 -1.856092
H	 -3.580852	 -0.835774	 -2.175717
H	 -4.305894	 -1.154944	 -0.625611
H	 -6.052247	 -0.584718	 -2.302003
H	 -5.281579	 0.960844	 -2.608628
H	 -6.011843	 0.639730	 -1.046627
C	 4.728119	 -1.109107	 -0.004993
H	 4.882018	 -1.033965	 -1.071845
H	 5.068212	 -2.067527	 0.355250
H	 5.265056	 -0.311663	 0.488280

	symmetry c1
}
set optking {
	frozen_dihedral = ("
		21 17 14 11,
		17 14 11 15,
		6 3 5 9,
		11 8 5 9,
		2 4 26 27,
		1 2 4 26,
		6 3 2 1
	")
}

ee = energy('scf')
oeprop('DIPOLE', 'QUADRUPOLE', 'MULLIKEN_CHARGES')
f=open( 'psi4out.xyz', 'w' )
f.write( "29  " )
f.write( str(ee) + "\n" )
f.write( MOL.save_string_xyz() )
f.close()
--------------------------------------------------------------------------

    Molecular point group: c1

    Geometry (in Angstrom), charge = 0, multiplicity = 1:

       Center              X                  Y                   Z               Mass
    ------------   -----------------  -----------------  -----------------  -----------------
           O          3.178331900588     0.803077786409    -0.253386441234    15.994914619560
           C          2.653541900588    -0.109392213591     0.298930558766    12.000000000000
           C          1.197728900588    -0.181120213591     0.691680558766    12.000000000000
           O          3.300255900588    -1.213663213591     0.651033558766    15.994914619560
           C          0.407464900588     1.064122786409     0.295488558766    12.000000000000
           H          0.790894900588    -1.081102213591     0.242559558766     1.007825032070
           H          1.160562900588    -0.342610213591     1.766034558766     1.007825032070
           C         -1.046540099412     1.052207786409     0.779453558766    12.000000000000
           H          0.434883900588     1.177843786409    -0.784064441234     1.007825032070
           H          0.909642900588     1.935792786409     0.700989558766     1.007825032070
           C         -1.931085099412    -0.021393213591     0.139085558766    12.000000000000
           H         -1.478854099412     2.028124786409     0.571092558766     1.007825032070
           H         -1.067293099412     0.938438786409     1.862336558766     1.007825032070
           C         -3.265294099412     0.530925786409    -0.366712441234    12.000000000000
           H         -1.394077099412    -0.479404213591    -0.690172441234     1.007825032070
           H         -2.128836099412    -0.818340213591     0.852346558766     1.007825032070
           C         -4.159682099412    -0.534051213591    -1.003910441234    12.000000000000
           H         -3.076043099412     1.320728786409    -1.091715441234     1.007825032070
           H         -3.798015099412     0.998553786409     0.459866558766     1.007825032070
           C         -5.488453099412     0.026406786409    -1.509831441234    12.000000000000
           H         -3.628499099412    -1.003051213591    -1.829456441234     1.007825032070
           H         -4.353541099412    -1.322221213591    -0.279350441234     1.007825032070
           H         -6.099894099412    -0.751995213591    -1.955742441234     1.007825032070
           H         -5.329226099412     0.793566786409    -2.262367441234     1.007825032070
           H         -6.059490099412     0.472452786409    -0.700366441234     1.007825032070
           C          4.680471900588    -1.276384213591     0.341267558766    12.000000000000
           H          4.834370900588    -1.201242213591    -0.725584441234     1.007825032070
           H          5.020564900588    -2.234804213591     0.701510558766     1.007825032070
           H          5.217408900588    -0.478940213591     0.834540558766     1.007825032070

  Charge       = 0
  Multiplicity = 1
  Basis Set: 6-31G*
  Basis Set:

    Orbital Energies (a.u.)
    -----------------------

    Doubly Occupied:

       1A    -20.603427     2A    -20.545346     3A    -11.372126
       4A    -11.280700     5A    -11.234875     6A    -11.219248
       7A    -11.216161     8A    -11.215282     9A    -11.214843
      10A    -11.214276    11A    -11.208665    12A     -1.469157
      13A     -1.362621    14A     -1.098165    15A     -1.066493
      16A     -1.019300    17A     -0.976952    18A     -0.927979
      19A     -0.862205    20A     -0.800321    21A     -0.789813
      22A     -0.763262    23A     -0.699840    24A     -0.682803
      25A     -0.671818    26A     -0.651467    27A     -0.627966
      28A     -0.606167    29A     -0.593238    30A     -0.578618
      31A     -0.566079    32A     -0.553785    33A     -0.531744
      34A     -0.527610    35A     -0.518780    36A     -0.512694
      37A     -0.494012    38A     -0.476989    39A     -0.472108
      40A     -0.459516    41A     -0.456637    42A     -0.456134
      43A     -0.441155    44A     -0.434619

  @DF-RHF Final Energy:  -501.03960904789813

   => Energetics <=

    Nuclear Repulsion Energy =            611.1830029037986378
    One-Electron Energy =               -1893.4954582172886148
    Two-Electron Energy =                 781.2728462655950352
    DFT Exchange-Correlation Energy =       0.0000000000000000
    Empirical Dispersion Energy =           0.0000000000000000
    PCM Polarization Energy =               0.0000000000000000
    EFP Energy =                            0.0000000000000000
    Total Energy =                       -501.0396090478948281

  Mulliken Charges: (a.u.)
   Center  Symbol    Alpha    Beta     Spin     Total
       1     O     4.28586  4.28586  0.00000 -0.57172
       2     C     2.60551  2.60551  0.00000  0.78898
       3     C     3.20849  3.20849  0.00000 -0.41698
       4     O     4.30740  4.30740  0.00000 -0.61480
       5     C     3.15552  3.15552  0.00000 -0.31104
       6     H     0.39872  0.39872  0.00000  0.20256
       7     H     0.40114  0.40114  0.00000  0.19771
       8     C     3.15957  3.15957  0.00000 -0.31913
       9     H     0.41328  0.41328  0.00000  0.17345
      10     H     0.40946  0.40946  0.00000  0.18109
      11     C     3.15518  3.15518  0.00000 -0.31035
      12     H     0.41571  0.41571  0.00000  0.16858
      13     H     0.42180  0.42180  0.00000  0.15641
      14     C     3.15331  3.15331  0.00000 -0.30663
      15     H     0.42256  0.42256  0.00000  0.15488
      16     H     0.42111  0.42111  0.00000  0.15779
      17     C     3.15202  3.15202  0.00000 -0.30403
      18     H     0.42280  0.42280  0.00000  0.15441
      19     H     0.42311  0.42311  0.00000  0.15378
      20     C     3.23934  3.23934  0.00000 -0.47868
      21     H     0.42301  0.42301  0.00000  0.15398
      22     H     0.42334  0.42334  0.00000  0.15333
      23     H     0.41932  0.41932  0.00000  0.16136
      24     H     0.42155  0.42155  0.00000  0.15690
      25     H     0.42182  0.42182  0.00000  0.15636
      26     C     3.09238  3.09238  0.00000 -0.18476
      27     H     0.40911  0.40911  0.00000  0.18177
      28     H     0.40849  0.40849  0.00000  0.18301
      29     H     0.40912  0.40912  0.00000  0.18177

   Total alpha = 44.00000, Total beta = 44.00000, Total charge = -0.00000
