  ==> Input File <==

--------------------------------------------------------------------------
set {
	reference rhf
	basis 6-31G*
}

set_num_threads( 4 )
memory 2 gb

molecule MOL {
0 1

H	 1.385766	 2.442773	 -2.456225
O	 0.684455	 2.216416	 -1.862412
C	 1.179300	 1.389642	 -0.839310
C	 0.031547	 1.023609	 0.088541
H	 1.949085	 1.907610	 -0.270073
H	 1.634168	 0.494838	 -1.258264
C	 -1.134819	 0.293262	 -0.585751
H	 -0.338989	 1.939583	 0.540184
H	 0.431732	 0.412958	 0.896115
C	 -1.917817	 -0.639439	 0.339494
H	 -0.758119	 -0.268455	 -1.433105
H	 -1.813832	 1.041889	 -0.986690
H	 -2.777680	 -1.057197	 -0.174994
H	 -1.310268	 -1.471279	 0.680599
H	 -2.283753	 -0.111424	 1.216626

	symmetry c1
}
set optking {
	frozen_dihedral = ("
		8 4 7 11
	")
}

ee = optimize('scf')
oeprop('DIPOLE', 'QUADRUPOLE', 'MULLIKEN_CHARGES')
f=open( 'psi4out.xyz', 'w' )
f.write( "15  " )
f.write( str(ee) + "\n" )
f.write( MOL.save_string_xyz() )
f.close()
--------------------------------------------------------------------------

    Molecular point group: c1
  Charge       = 0
  Multiplicity = 1
  Basis Set: 6-31G*
  Basis Set:
  @DF-RHF Final Energy:  -232.14229682448354
    Total Energy =                       -232.1422968244835943
    Molecular point group: c1
  Basis Set: 6-31G*
  Basis Set:
  Basis Set: 6-31G*
  Basis Set:
  @DF-RHF Final Energy:  -232.14280781549789
    Total Energy =                       -232.1428078154978607
  Basis Set: 6-31G*
  Basis Set:
  Basis Set: 6-31G*
  Basis Set:
  @DF-RHF Final Energy:  -232.14284343359336
    Total Energy =                       -232.1428434335936117
  Basis Set: 6-31G*
  Basis Set:
  Charge       = 0
  Multiplicity = 1
  Basis Set: 6-31G*
  Basis Set:

    Orbital Energies (a.u.)
    -----------------------

    Doubly Occupied:

       1A    -20.553019     2A    -11.267826     3A    -11.211974
       4A    -11.208754     5A    -11.205420     6A     -1.359784
       7A     -1.063316     8A     -0.973804     9A     -0.856335
      10A     -0.786270    11A     -0.703516    12A     -0.644136
      13A     -0.603181    14A     -0.588402    15A     -0.547615
      16A     -0.536054    17A     -0.506366    18A     -0.475789
      19A     -0.466520    20A     -0.453445    21A     -0.430325

  @DF-RHF Final Energy:  -232.14284388529853

   => Energetics <=

    Nuclear Repulsion Energy =            188.6988439690846349
    One-Electron Energy =                -688.7996699147408890
    Two-Electron Energy =                 267.9579820603575513
    DFT Exchange-Correlation Energy =       0.0000000000000000
    Empirical Dispersion Energy =           0.0000000000000000
    PCM Polarization Energy =               0.0000000000000000
    EFP Energy =                            0.0000000000000000
    Total Energy =                       -232.1428438852987028
    Molecular point group: c1
  Basis Set: 6-31G*
  Basis Set:

  -Total Gradient:
     Atom            X                  Y                   Z
    ------   -----------------  -----------------  -----------------
       1       -0.000003634613    -0.000015503395     0.000022643983
       2       -0.000067838838     0.000022010452    -0.000015858478
       3        0.000098502321     0.000034372551    -0.000050812104
       4       -0.001187679374    -0.001766071004     0.003562331207
       5        0.000014987785    -0.000011256368     0.000007084617
       6        0.000025037474    -0.000026195009     0.000033308534
       7        0.000879305391    -0.003350207328     0.002248438561
       8        0.000787146839     0.001954299841    -0.003385596909
       9       -0.000026428890    -0.000008085430    -0.000032483412
      10       -0.000022468547    -0.000068604138    -0.000031096634
      11       -0.000527205701     0.003151102712    -0.002373672106
      12        0.000003296400     0.000057518062     0.000009837230
      13        0.000019213621    -0.000027052017     0.000013074450
      14        0.000014579416     0.000027767322     0.000022209497
      15       -0.000006813287     0.000025903744    -0.000029408436

  **** Optimization is complete! (in 4 steps) ****
    Final optimized geometry and variables:
    Molecular point group: c1

    Geometry (in Angstrom), charge = 0, multiplicity = 1:

    H            1.546143331489     1.577733496505    -1.839758511270
    O            0.865600965808     1.361300754595    -1.218599328818
    C            1.376214465336     0.493000957419    -0.238824870881
    C            0.245451414517     0.115838712920     0.703624989192
    H            2.177041679992     0.976097326944     0.318578391630
    H            1.790309402880    -0.402788771068    -0.700138475328
    C           -0.911692234291    -0.608701482841     0.000076118868
    H           -0.116596700839     1.036168935731     1.153058152330
    H            0.657849376952    -0.502161379977     1.498017198408
    C           -1.712458558809    -1.512937565387     0.934675307856
    H           -0.529489242601    -1.177101120911    -0.844502525825
    H           -1.571035606076     0.132981552095    -0.438761321298
    H           -2.543966851844    -1.978925663951     0.414998296439
    H           -1.091700943254    -2.304995492216     1.344686477211
    H           -2.119853805201    -0.949196704870     1.769657501064

  Mulliken Charges: (a.u.)
   Center  Symbol    Alpha    Beta     Spin     Total
       1     H     0.28063  0.28063  0.00000  0.43873
       2     O     4.36960  4.36960  0.00000 -0.73921
       3     C     2.99949  2.99949  0.00000  0.00103
       4     C     3.16011  3.16011  0.00000 -0.32022
       5     H     0.42969  0.42969  0.00000  0.14063
       6     H     0.43262  0.43262  0.00000  0.13476
       7     C     3.15037  3.15037  0.00000 -0.30075
       8     H     0.41395  0.41395  0.00000  0.17211
       9     H     0.42325  0.42325  0.00000  0.15351
      10     C     3.24068  3.24068  0.00000 -0.48136
      11     H     0.42235  0.42235  0.00000  0.15529
      12     H     0.41188  0.41188  0.00000  0.17624
      13     H     0.41968  0.41968  0.00000  0.16063
      14     H     0.42384  0.42384  0.00000  0.15232
      15     H     0.42186  0.42186  0.00000  0.15628

   Total alpha = 21.00000, Total beta = 21.00000, Total charge =  0.00000
