  ==> Input File <==

--------------------------------------------------------------------------
set {
	reference rhf
	basis 6-31G*
}

set_num_threads( 4 )
memory 2 gb

molecule MOL {
0 1

O	 -0.988096	 -1.408613	 0.050699
C	 -0.676749	 -0.249230	 -0.009274
C	 -1.746085	 0.827156	 -0.009539
N	 0.623947	 0.147590	 -0.102813
H	 -1.701500	 1.431508	 -0.908902
H	 -2.703425	 0.330732	 0.036390
H	 -1.647323	 1.487769	 0.845106
C	 0.911233	 1.468070	 -0.627861
C	 1.752374	 -0.755619	 -0.047040
H	 1.740326	 1.902097	 -0.079916
H	 0.043195	 2.094388	 -0.517516
H	 1.181802	 1.424374	 -1.680621
H	 2.597034	 -0.240464	 0.394779
H	 1.540549	 -1.618375	 0.564284
H	 2.048546	 -1.097412	 -1.037127

	symmetry c1
}
set optking {
	frozen_dihedral = ("
		8 4 2 3
	")
}

ee = optimize('scf')
oeprop('DIPOLE', 'QUADRUPOLE', 'MULLIKEN_CHARGES')
f=open( 'psi4out.xyz', 'w' )
f.write( "15  " )
f.write( str(ee) + "\n" )
f.write( MOL.save_string_xyz() )
f.close()
--------------------------------------------------------------------------

    Molecular point group: c1
  Charge       = 0
  Multiplicity = 1
  Basis Set: 6-31G*
  Basis Set:
  @DF-RHF Final Energy:  -286.02368769396810
    Total Energy =                       -286.0236876939682134
    Molecular point group: c1
  Basis Set: 6-31G*
  Basis Set:
  Basis Set: 6-31G*
  Basis Set:
  @DF-RHF Final Energy:  -286.02550073808135
    Total Energy =                       -286.0255007380811776
  Basis Set: 6-31G*
  Basis Set:
  Basis Set: 6-31G*
  Basis Set:
  @DF-RHF Final Energy:  -286.02905403550415
    Total Energy =                       -286.0290540355042594
  Basis Set: 6-31G*
  Basis Set:
  Basis Set: 6-31G*
  Basis Set:
  @DF-RHF Final Energy:  -286.02950929638183
    Total Energy =                       -286.0295092963816614
  Basis Set: 6-31G*
  Basis Set:
  @DF-RHF Final Energy:  -286.02963412819889
    Total Energy =                       -286.0296341281987225
  @DF-RHF Final Energy:  -286.02966122359436
    Total Energy =                       -286.0296612235945304
  @DF-RHF Final Energy:  -286.02967906848960
    Total Energy =                       -286.0296790684897132
  Basis Set: 6-31G*
  Basis Set:
  @DF-RHF Final Energy:  -286.02968723718402
    Total Energy =                       -286.0296872371841914
  Basis Set: 6-31G*
  Basis Set:
  Basis Set: 6-31G*
  Basis Set:
  @DF-RHF Final Energy:  -286.02969189895771
    Total Energy =                       -286.0296918989576511
  Basis Set: 6-31G*
  Basis Set:
  Basis Set: 6-31G*
  Basis Set:
  @DF-RHF Final Energy:  -286.02969296302774
    Total Energy =                       -286.0296929630277418
  Basis Set: 6-31G*
  Basis Set:
  Charge       = 0
  Multiplicity = 1
  Basis Set: 6-31G*
  Basis Set:

    Orbital Energies (a.u.)
    -----------------------

    Doubly Occupied:

       1A    -20.516488     2A    -15.583297     3A    -11.341530
       4A    -11.266169     5A    -11.247592     6A    -11.228431
       7A     -1.385841     8A     -1.243364     9A     -1.014135
      10A     -0.972157    11A     -0.918055    12A     -0.737495
      13A     -0.680937    14A     -0.658906    15A     -0.651269
      16A     -0.589666    17A     -0.576721    18A     -0.568283
      19A     -0.561618    20A     -0.545781    21A     -0.529236
      22A     -0.502687    23A     -0.411674    24A     -0.368169

  @DF-RHF Final Energy:  -286.02969299406027

   => Energetics <=

    Nuclear Repulsion Energy =            252.5182461576652884
    One-Electron Energy =                -888.8968744168605554
    Two-Electron Energy =                 350.3489352651353101
    DFT Exchange-Correlation Energy =       0.0000000000000000
    Empirical Dispersion Energy =           0.0000000000000000
    PCM Polarization Energy =               0.0000000000000000
    EFP Energy =                            0.0000000000000000
    Total Energy =                       -286.0296929940599284
    Molecular point group: c1
  Basis Set: 6-31G*
  Basis Set:

  -Total Gradient:
     Atom            X                  Y                   Z
    ------   -----------------  -----------------  -----------------
       1       -0.000005896705    -0.000007234541     0.000001092546
       2        0.000052105568    -0.000296914420    -0.001605969410
       3        0.000014976874     0.000069986044     0.000768925268
       4       -0.000146426307     0.000581068802     0.001607625820
       5       -0.000000784222     0.000000081002    -0.000003022420
       6       -0.000001814803    -0.000001717636    -0.000000845709
       7        0.000000624711    -0.000001807583    -0.000002066789
       8        0.000098728864    -0.000348129848    -0.000760240274
       9       -0.000004088227    -0.000001092549    -0.000002398039
      10        0.000002401600     0.000007624601    -0.000003308529
      11       -0.000003523209     0.000000313279    -0.000000133051
      12       -0.000001755516    -0.000000884920    -0.000000592335
      13       -0.000004144928     0.000002999664    -0.000000974157
      14        0.000000191046    -0.000001851205     0.000001532477
      15       -0.000000594746    -0.000002440685     0.000000374603

  **** Optimization is complete! (in 11 steps) ****
    Final optimized geometry and variables:
    Molecular point group: c1

    Geometry (in Angstrom), charge = 0, multiplicity = 1:

    O           -0.900096453515    -1.432711561776     0.263127125338
    C           -0.656687737018    -0.265688081846     0.115574191161
    C           -1.783533440579     0.747078848302     0.041129709828
    N            0.624492869753     0.203518936610     0.056393515626
    H           -1.827280958352     1.221251856698    -0.933784861327
    H           -2.707567088412     0.216512243314     0.214126214057
    H           -1.669960872282     1.524116918646     0.788633416500
    C            0.966092523482     1.503973751271    -0.480153277836
    C            1.698615145283    -0.771679577414     0.044331970341
    H            1.897279652430     1.835304795411    -0.037412338234
    H            0.212999714831     2.239113409287    -0.243241208514
    H            1.097703647031     1.478635242404    -1.560635510744
    H            2.584900452117    -0.327599629749     0.482033857073
    H            1.409785215549    -1.633729117692     0.620922618596
    H            1.937479273700    -1.094335591540    -0.966808730234

  Mulliken Charges: (a.u.)
   Center  Symbol    Alpha    Beta     Spin     Total
       1     O     4.30245  4.30245  0.00000 -0.60489
       2     C     2.62555  2.62555  0.00000  0.74890
       3     C     3.29815  3.29815  0.00000 -0.59630
       4     N     3.82138  3.82138  0.00000 -0.64277
       5     H     0.40749  0.40749  0.00000  0.18502
       6     H     0.39072  0.39072  0.00000  0.21855
       7     H     0.40630  0.40630  0.00000  0.18739
       8     C     3.14358  3.14358  0.00000 -0.28717
       9     C     3.14359  3.14359  0.00000 -0.28717
      10     H     0.41002  0.41002  0.00000  0.17996
      11     H     0.40723  0.40723  0.00000  0.18555
      12     H     0.41718  0.41718  0.00000  0.16565
      13     H     0.41872  0.41872  0.00000  0.16256
      14     H     0.38815  0.38815  0.00000  0.22370
      15     H     0.41949  0.41949  0.00000  0.16102

   Total alpha = 24.00000, Total beta = 24.00000, Total charge = -0.00000
