  ==> Input File <==

--------------------------------------------------------------------------
set {
	reference rhf
	basis 6-31G*
}

set_num_threads( 4 )
memory 2 gb

molecule MOL {
0 1

O	 0.749854	 1.307668	 -0.000040
C	 0.576249	 0.131685	 -0.000108
C	 -0.766779	 -0.556801	 -0.000461
O	 1.568443	 -0.749345	 -0.000005
C	 -1.945214	 0.412366	 0.000161
H	 -0.796911	 -1.211249	 -0.867467
H	 -0.796854	 -1.212390	 0.865687
C	 -3.287791	 -0.317055	 0.000105
H	 -1.876087	 1.060580	 -0.866812
H	 -1.875822	 1.059691	 0.867761
H	 -3.394745	 -0.949193	 -0.877058
H	 -4.111778	 0.388953	 0.000015
H	 -3.394954	 -0.949187	 0.877259
C	 1.762617	 -1.498726	 -1.185725
H	 0.882356	 -2.081893	 -1.415066
H	 2.601203	 -2.148588	 -0.989973
H	 1.981867	 -0.844445	 -2.017203

	symmetry c1
}
set optking {
	frozen_dihedral = ("
		14 4 2 1
	")
}

ee = optimize('scf')
oeprop('DIPOLE', 'QUADRUPOLE', 'MULLIKEN_CHARGES')
f=open( 'psi4out.xyz', 'w' )
f.write( "17  " )
f.write( str(ee) + "\n" )
f.write( MOL.save_string_xyz() )
f.close()
--------------------------------------------------------------------------

    Molecular point group: c1
  Charge       = 0
  Multiplicity = 1
  Basis Set: 6-31G*
  Basis Set:
  @DF-RHF Final Energy:  -344.88249374811778
    Total Energy =                       -344.8824937481181792
    Molecular point group: c1
  Basis Set: 6-31G*
  Basis Set:
  Basis Set: 6-31G*
  Basis Set:
  @DF-RHF Final Energy:  -344.88153048000601
    Total Energy =                       -344.8815304800060630
  Basis Set: 6-31G*
  Basis Set:
  Basis Set: 6-31G*
  Basis Set:
  @DF-RHF Final Energy:  -344.88442713099852
    Total Energy =                       -344.8844271309986880
  Basis Set: 6-31G*
  Basis Set:
  Basis Set: 6-31G*
  Basis Set:
  @DF-RHF Final Energy:  -344.88564740649980
    Total Energy =                       -344.8856474064996860
  Basis Set: 6-31G*
  Basis Set:
  Basis Set: 6-31G*
  Basis Set:
  @DF-RHF Final Energy:  -344.88570804589193
    Total Energy =                       -344.8857080458917608
  Basis Set: 6-31G*
  Basis Set:
  Basis Set: 6-31G*
  Basis Set:
  @DF-RHF Final Energy:  -344.88572066895165
    Total Energy =                       -344.8857206689515351
  Basis Set: 6-31G*
  Basis Set:
  Charge       = 0
  Multiplicity = 1
  Basis Set: 6-31G*
  Basis Set:

    Orbital Energies (a.u.)
    -----------------------

    Doubly Occupied:

       1A    -20.587408     2A    -20.555789     3A    -11.375402
       4A    -11.294129     5A    -11.241830     6A    -11.225563
       7A    -11.217753     8A     -1.459019     9A     -1.368045
      10A     -1.081598    11A     -0.989632    12A     -0.958216
      13A     -0.835965    14A     -0.765754    15A     -0.700017
      16A     -0.677817    17A     -0.675818    18A     -0.638192
      19A     -0.616542    20A     -0.579615    21A     -0.566495
      22A     -0.544123    23A     -0.518446    24A     -0.494082
      25A     -0.490002    26A     -0.482200    27A     -0.454775
      28A     -0.435270

  @DF-RHF Final Energy:  -344.88572165769290

   => Energetics <=

    Nuclear Repulsion Energy =            312.6842221414153755
    One-Electron Energy =               -1089.4808889879923299
    Two-Electron Energy =                 431.9109451888838862
    DFT Exchange-Correlation Energy =       0.0000000000000000
    Empirical Dispersion Energy =           0.0000000000000000
    PCM Polarization Energy =               0.0000000000000000
    EFP Energy =                            0.0000000000000000
    Total Energy =                       -344.8857216576930682
    Molecular point group: c1
  Basis Set: 6-31G*
  Basis Set:

  -Total Gradient:
     Atom            X                  Y                   Z
    ------   -----------------  -----------------  -----------------
       1        0.000071573927     0.000012557575    -0.000602706614
       2        0.000138690118     0.000110701609     0.000833417445
       3       -0.000006453363     0.000034199119    -0.000036635727
       4       -0.000492575469    -0.000540158986    -0.000094079632
       5        0.000002366555    -0.000021796671    -0.000010225885
       6       -0.000009830981    -0.000025117473     0.000015844967
       7        0.000000701338    -0.000012118264     0.000012448487
       8        0.000000886561     0.000003229986     0.000011234714
       9        0.000000091478     0.000004890285    -0.000005816849
      10       -0.000003862537     0.000000001798    -0.000007996568
      11       -0.000001227455     0.000006530633    -0.000000913232
      12       -0.000002457473    -0.000000688217     0.000005870476
      13        0.000001458499    -0.000005548419    -0.000005093519
      14        0.000308715402     0.000454341588    -0.000120570595
      15       -0.000011580233     0.000000218402     0.000019604245
      16       -0.000001370374    -0.000007689655     0.000010761637
      17        0.000004873999    -0.000013553314    -0.000025143351

  **** Optimization is complete! (in 7 steps) ****
    Final optimized geometry and variables:
    Molecular point group: c1

    Geometry (in Angstrom), charge = 0, multiplicity = 1:

    O            0.900635963342     1.462220036295     0.161196808113
    C            0.721312256355     0.294863942419     0.140348776260
    C           -0.642199214025    -0.359705966311     0.148829175942
    O            1.763522570301    -0.565680821596     0.176984894261
    C           -1.797378328272     0.635743726747     0.211926659028
    H           -0.731538847515    -0.987484553424    -0.734430010680
    H           -0.662729254303    -1.040271656237     0.996449518247
    C           -3.156638350214    -0.061700943475     0.230907474731
    H           -1.737330667518     1.307711425770    -0.637434697546
    H           -1.686179095439     1.254630373972     1.095424403952
    H           -3.306807513815    -0.662339729098    -0.662101674791
    H           -3.962428542431     0.663260916691     0.279064781932
    H           -3.252415090283    -0.718885341843     1.090693336080
    C            2.066718569529    -1.309333359750    -0.982151260131
    H            1.295707296768    -2.037647938195    -1.205767205394
    H            2.990605438511    -1.827075976929    -0.777107108913
    H            2.207565515330    -0.653583663618    -1.833616078054

  Mulliken Charges: (a.u.)
   Center  Symbol    Alpha    Beta     Spin     Total
       1     O     4.25070  4.25070  0.00000 -0.50141
       2     C     2.61266  2.61266  0.00000  0.77469
       3     C     3.21728  3.21728  0.00000 -0.43455
       4     O     4.31350  4.31350  0.00000 -0.62701
       5     C     3.15105  3.15105  0.00000 -0.30210
       6     H     0.40777  0.40777  0.00000  0.18446
       7     H     0.39919  0.39919  0.00000  0.20163
       8     C     3.24294  3.24294  0.00000 -0.48587
       9     H     0.41088  0.41088  0.00000  0.17824
      10     H     0.40881  0.40881  0.00000  0.18237
      11     H     0.42237  0.42237  0.00000  0.15525
      12     H     0.41418  0.41418  0.00000  0.17164
      13     H     0.42075  0.42075  0.00000  0.15850
      14     C     3.09280  3.09280  0.00000 -0.18560
      15     H     0.42102  0.42102  0.00000  0.15796
      16     H     0.40084  0.40084  0.00000  0.19833
      17     H     0.41326  0.41326  0.00000  0.17348

   Total alpha = 28.00000, Total beta = 28.00000, Total charge = -0.00000
