  ==> Input File <==

--------------------------------------------------------------------------
set {
	reference rhf
	basis 6-31G*
}

set_num_threads( 1 )
memory 2 gb

molecule MOL {
0 1

H	 -3.101736	 2.021735	 -0.178062
C	 -3.175922	 1.055328	 -0.692043
C	 -2.145596	 0.825118	 -1.768167
O	 -4.023837	 0.280602	 -0.387758
C	 -0.712604	 1.061565	 -1.271295
H	 -2.272879	 -0.179560	 -2.154340
H	 -2.364550	 1.523262	 -2.575204
C	 -0.252658	 0.041456	 -0.226725
H	 -0.042853	 1.030146	 -2.125538
H	 -0.633596	 2.067452	 -0.861776
C	 1.180775	 0.282413	 0.250794
H	 -0.332121	 -0.958930	 -0.647155
H	 -0.923987	 0.061887	 0.629685
C	 2.148627	 -0.814315	 -0.201312
H	 1.516199	 1.249228	 -0.115937
H	 1.192670	 0.346017	 1.338083
C	 3.580890	 -0.659131	 0.322722
H	 2.166869	 -0.852443	 -1.289387
H	 1.762857	 -1.776509	 0.128956
C	 4.324889	 0.564933	 -0.213704
H	 4.142010	 -1.551473	 0.056605
H	 3.564836	 -0.624694	 1.410140
H	 4.342616	 0.565491	 -1.300421
H	 3.866655	 1.493402	 0.110242
H	 5.353900	 0.572371	 0.132816

	symmetry c1
}
set optking {
	frozen_dihedral = ("
		6 3 5 8,
		6 3 2 4,
		3 5 8 12,
		8 11 14 18,
		20 17 14 18
	")
}

ee = energy('scf')
oeprop('DIPOLE', 'QUADRUPOLE', 'MULLIKEN_CHARGES')
f=open( 'psi4out.xyz', 'w' )
f.write( "25  " )
f.write( str(ee) + "\n" )
f.write( MOL.save_string_xyz() )
f.close()
--------------------------------------------------------------------------

    Molecular point group: c1

    Geometry (in Angstrom), charge = 0, multiplicity = 1:

       Center              X                  Y                   Z               Mass
    ------------   -----------------  -----------------  -----------------  -----------------
           H         -3.206321271229     1.726675809513     0.284772718795     1.007825032070
           C         -3.280507271229     0.760268809513    -0.229208281205    12.000000000000
           C         -2.250181271229     0.530058809513    -1.305332281205    12.000000000000
           O         -4.128422271229    -0.014457190487     0.075076718795    15.994914619560
           C         -0.817189271229     0.766505809513    -0.808460281205    12.000000000000
           H         -2.377464271229    -0.474619190487    -1.691505281205     1.007825032070
           H         -2.469135271229     1.228202809513    -2.112369281205     1.007825032070
           C         -0.357243271229    -0.253603190487     0.236109718795    12.000000000000
           H         -0.147438271229     0.735086809513    -1.662703281205     1.007825032070
           H         -0.738181271229     1.772392809513    -0.398941281205     1.007825032070
           C          1.076189728771    -0.012646190487     0.713628718795    12.000000000000
           H         -0.436706271229    -1.253989190487    -0.184320281205     1.007825032070
           H         -1.028572271229    -0.233172190487     1.092519718795     1.007825032070
           C          2.044041728771    -1.109374190487     0.261522718795    12.000000000000
           H          1.411613728771     0.954168809513     0.346897718795     1.007825032070
           H          1.088084728771     0.050957809513     1.800917718795     1.007825032070
           C          3.476304728771    -0.954190190487     0.785556718795    12.000000000000
           H          2.062283728771    -1.147502190487    -0.826552281205     1.007825032070
           H          1.658271728771    -2.071568190487     0.591790718795     1.007825032070
           C          4.220303728771     0.269873809513     0.249130718795    12.000000000000
           H          4.037424728771    -1.846532190487     0.519439718795     1.007825032070
           H          3.460250728771    -0.919753190487     1.872974718795     1.007825032070
           H          4.238030728771     0.270431809513    -0.837586281205     1.007825032070
           H          3.762069728771     1.198342809513     0.573076718795     1.007825032070
           H          5.249314728771     0.277311809513     0.595650718795     1.007825032070

  Charge       = 0
  Multiplicity = 1
  Basis Set: 6-31G*
  Basis Set:

    Orbital Energies (a.u.)
    -----------------------

    Doubly Occupied:

       1A    -20.561815     2A    -11.326021     3A    -11.235578
       4A    -11.234263     5A    -11.222396     6A    -11.218666
       7A    -11.218197     8A    -11.217778     9A    -11.211296
      10A     -1.401811    11A     -1.104575    12A     -1.069451
      13A     -1.013404    14A     -0.941791    15A     -0.877020
      16A     -0.821608    17A     -0.788021    18A     -0.782081
      19A     -0.665813    20A     -0.651371    21A     -0.635942
      22A     -0.623251    23A     -0.609203    24A     -0.597128
      25A     -0.568425    26A     -0.559880    27A     -0.525755
      28A     -0.523060    29A     -0.520978    30A     -0.499891
      31A     -0.486414    32A     -0.478639    33A     -0.460553
      34A     -0.456010    35A     -0.442329    36A     -0.409357

  @DF-RHF Final Energy:  -387.11653566957142

   => Energetics <=

    Nuclear Repulsion Energy =            440.9816897170071002
    One-Electron Energy =               -1398.2766627534194868
    Two-Electron Energy =                 570.1784373668397166
    DFT Exchange-Correlation Energy =       0.0000000000000000
    Empirical Dispersion Energy =           0.0000000000000000
    PCM Polarization Energy =               0.0000000000000000
    EFP Energy =                            0.0000000000000000
    Total Energy =                       -387.1165356695726132

  Mulliken Charges: (a.u.)
   Center  Symbol    Alpha    Beta     Spin     Total
       1     H     0.43268  0.43268  0.00000  0.13464
       2     C     2.83069  2.83069  0.00000  0.33863
       3     C     3.20870  3.20870  0.00000 -0.41739
       4     O     4.23783  4.23783  0.00000 -0.47566
       5     C     3.16910  3.16910  0.00000 -0.33821
       6     H     0.39963  0.39963  0.00000  0.20073
       7     H     0.40689  0.40689  0.00000  0.18623
       8     C     3.15732  3.15732  0.00000 -0.31464
       9     H     0.41259  0.41259  0.00000  0.17482
      10     H     0.41902  0.41902  0.00000  0.16196
      11     C     3.15799  3.15799  0.00000 -0.31599
      12     H     0.41543  0.41543  0.00000  0.16915
      13     H     0.41575  0.41575  0.00000  0.16849
      14     C     3.15497  3.15497  0.00000 -0.30993
      15     H     0.41898  0.41898  0.00000  0.16204
      16     H     0.41917  0.41917  0.00000  0.16167
      17     C     3.15318  3.15318  0.00000 -0.30635
      18     H     0.42459  0.42459  0.00000  0.15083
      19     H     0.41983  0.41983  0.00000  0.16033
      20     C     3.24131  3.24131  0.00000 -0.48262
      21     H     0.42034  0.42034  0.00000  0.15932
      22     H     0.42253  0.42253  0.00000  0.15493
      23     H     0.42257  0.42257  0.00000  0.15485
      24     H     0.42044  0.42044  0.00000  0.15912
      25     H     0.41848  0.41848  0.00000  0.16305

   Total alpha = 36.00000, Total beta = 36.00000, Total charge = -0.00000
