                              Psi4 1.0.54 Driver

  ==> Input File <==

--------------------------------------------------------------------------
set {
	reference rhf
	basis cc-pvtz
}

set_num_threads( 4 )
memory 2 gb

molecule MOL {
0 1

H	 3.101846	 -1.569123	 -1.290269
O	 2.451229	 -1.536975	 -0.605170
C	 1.692071	 -0.461595	 -0.796668
C	 0.626018	 -0.337582	 0.258241
O	 1.869768	 0.279844	 -1.700290
C	 -0.267326	 0.883135	 0.076490
H	 0.061703	 -1.262320	 0.241939
H	 1.131068	 -0.314799	 1.218887
C	 -1.726822	 0.642622	 0.463839
H	 -0.210803	 1.217591	 -0.953497
H	 0.129920	 1.693110	 0.675679
C	 -2.480891	 -0.340606	 -0.429852
H	 -2.243098	 1.597649	 0.438609
H	 -1.776542	 0.301208	 1.495542
C	 -3.955933	 -0.460128	 -0.060472
H	 -2.393755	 -0.020485	 -1.464726
H	 -2.024244	 -1.323637	 -0.374360
H	 -4.467673	 -1.160944	 -0.709827
H	 -4.458917	 0.497287	 -0.144505
H	 -4.076458	 -0.806900	 0.960497

	symmetry c1
}
set optking {
	frozen_dihedral = ("
		7 4 6 10
	")
}

ee,wfn = optimize('scf', return_wfn=True)
oeprop( wfn, 'DIPOLE', 'QUADRUPOLE', 'MULLIKEN_CHARGES')
f=open( 'psi4out.xyz', 'w' )
f.write( "20  " )
f.write( str(ee) + "\n" )
f.write( MOL.save_string_xyz() )
f.close()
--------------------------------------------------------------------------

    Molecular point group: c1
  Charge       = 0
  Multiplicity = 1
  Basis Set: CC-PVTZ
  Basis Set:
  @DF-RHF Final Energy:  -384.09143302838362
    Total Energy =                       -384.0914330283837899
    Molecular point group: c1
  Basis Set: CC-PVTZ
  Basis Set:
  Basis Set: CC-PVTZ
  Basis Set:
  @DF-RHF Final Energy:  -384.06849603600551
    Total Energy =                       -384.0684960360052855
  Basis Set: CC-PVTZ
  Basis Set:
  Basis Set: CC-PVTZ
  Basis Set:
  @DF-RHF Final Energy:  -384.09155420230456
    Total Energy =                       -384.0915542023043940
  Basis Set: CC-PVTZ
  Basis Set:
  Basis Set: CC-PVTZ
  Basis Set:
  @DF-RHF Final Energy:  -384.09196749375337
    Total Energy =                       -384.0919674937529180
  Basis Set: CC-PVTZ
  Basis Set:
  @DF-RHF Final Energy:  -384.09097677917532
    Total Energy =                       -384.0909767791757758
  @DF-RHF Final Energy:  -384.09196637776921
    Total Energy =                       -384.0919663777692676
  Basis Set: CC-PVTZ
  Basis Set:
  @DF-RHF Final Energy:  -384.09198700809338
    Total Energy =                       -384.0919870080936107
  Basis Set: CC-PVTZ
  Basis Set:
  Basis Set: CC-PVTZ
  Basis Set:
  @DF-RHF Final Energy:  -384.09199499075328
    Total Energy =                       -384.0919949907531077
  Basis Set: CC-PVTZ
  Basis Set:
  Basis Set: CC-PVTZ
  Basis Set:
  @DF-RHF Final Energy:  -384.09199662976096
    Total Energy =                       -384.0919966297608994
  Basis Set: CC-PVTZ
  Basis Set:
  Charge       = 0
  Multiplicity = 1
  Basis Set: CC-PVTZ
  Basis Set:

    Orbital Energies (a.u.)
    -----------------------

    Doubly Occupied:

       1A    -20.604053     2A    -20.541035     3A    -11.374185
       4A    -11.238578     5A    -11.219969     6A    -11.218407
       7A    -11.217108     8A    -11.209734     9A     -1.477887
      10A     -1.369321    11A     -1.095960    12A     -1.041129
      13A     -0.962448    14A     -0.870761    15A     -0.815573
      16A     -0.779799    17A     -0.704278    18A     -0.694774
      19A     -0.664288    20A     -0.635357    21A     -0.606333
      22A     -0.595988    23A     -0.577498    24A     -0.558042
      25A     -0.533228    26A     -0.513597    27A     -0.496308
      28A     -0.484642    29A     -0.472297    30A     -0.467523
      31A     -0.455306    32A     -0.447762

  @DF-RHF Final Energy:  -384.09199667650910

   => Energetics <=

    Nuclear Repulsion Energy =            378.4310342781996042
    One-Electron Energy =               -1273.1597278795093189
    Two-Electron Energy =                 510.6366969248007308
    DFT Exchange-Correlation Energy =       0.0000000000000000
    Empirical Dispersion Energy =           0.0000000000000000
    PCM Polarization Energy =               0.0000000000000000
    EFP Energy =                            0.0000000000000000
    Total Energy =                       -384.0919966765089839
    Molecular point group: c1
  Basis Set: CC-PVTZ
  Basis Set:

  -Total Gradient:
     Atom            X                  Y                   Z
    ------   -----------------  -----------------  -----------------
       1        0.000015856802    -0.000002015327    -0.000018093306
       2        0.000009528791    -0.000035961166     0.000025307982
       3       -0.000033138604     0.000005020442     0.000018048143
       4        0.000555214925     0.000815952586    -0.003733387013
       5       -0.000003937728     0.000034649412    -0.000023997525
       6       -0.002985896366    -0.002204562486    -0.000040853747
       7        0.000022186892    -0.000322425879     0.003078785039
       8       -0.000003734152    -0.000006493736    -0.000000575215
       9        0.000006009394    -0.000010912300     0.000005962207
      10        0.002417889309     0.001718498059     0.000695706125
      11       -0.000000735960    -0.000002070625     0.000003233733
      12       -0.000002314255     0.000015322666    -0.000009606850
      13        0.000006475956     0.000001299861    -0.000007564750
      14        0.000000218888     0.000001710448     0.000007434887
      15        0.000001048177    -0.000007545599     0.000003459336
      16       -0.000006401635     0.000001517136    -0.000005362961
      17       -0.000000729025    -0.000001403803     0.000000872591
      18        0.000001556430    -0.000001952302    -0.000000610071
      19        0.000001366502     0.000001697782    -0.000002105851
      20       -0.000000464341    -0.000000325167     0.000003347240

  **** Optimization is complete! (in 10 steps) ****
    Final optimized geometry and variables:
    Molecular point group: c1

    Geometry (in Angstrom), charge = 0, multiplicity = 1:

    H            3.198565284405    -1.205346011226    -1.469902918354
    O            2.610107299742    -1.283465695707    -0.734170595381
    C            1.837888887003    -0.200953161297    -0.696972572466
    C            0.871051078630    -0.253195508856     0.454900964649
    O            1.938296249683     0.668593337182    -1.491817320161
    C           -0.036768018050     0.972789511522     0.588625907220
    H            0.306424916868    -1.173255214342     0.362084364460
    H            1.467828552752    -0.391608931198     1.350304602006
    C           -1.425150466030     0.659761901187     1.147717452624
    H           -0.113738110631     1.470304762267    -0.369098357015
    H            0.450972676706     1.687241214715     1.242528003935
    C           -2.357247007024    -0.049361653703     0.166812339950
    H           -1.890595026628     1.592786949595     1.450732794423
    H           -1.328962619650     0.064385558181     2.053321053243
    C           -3.730919689993    -0.341639833914     0.761881521990
    H           -2.471356049806     0.568098567541    -0.719450504029
    H           -1.912558241121    -0.981107437107    -0.169046445149
    H           -4.373910448749    -0.833636347265     0.041354972548
    H           -4.223948202908     0.572539808974     1.075103592651
    H           -3.652501042329    -0.987384236340     1.630275948575

  Mulliken Charges: (a.u.)
   Center  Symbol    Alpha    Beta     Spin     Total
       1     H     0.38257  0.38257  0.00000  0.23485
       2     O     4.16036  4.16036  0.00000 -0.32071
       3     C     2.80064  2.80064  0.00000  0.39873
       4     C     3.11901  3.11901  0.00000 -0.23803
       5     O     4.19055  4.19055  0.00000 -0.38111
       6     C     3.09950  3.09950  0.00000 -0.19900
       7     H     0.43633  0.43633  0.00000  0.12734
       8     H     0.43182  0.43182  0.00000  0.13636
       9     C     3.09862  3.09862  0.00000 -0.19723
      10     H     0.43721  0.43721  0.00000  0.12559
      11     H     0.44573  0.44573  0.00000  0.10853
      12     C     3.08501  3.08501  0.00000 -0.17002
      13     H     0.44581  0.44581  0.00000  0.10837
      14     H     0.45446  0.45446  0.00000  0.09109
      15     C     3.14993  3.14993  0.00000 -0.29986
      16     H     0.45054  0.45054  0.00000  0.09893
      17     H     0.45529  0.45529  0.00000  0.08942
      18     H     0.44745  0.44745  0.00000  0.10511
      19     H     0.45391  0.45391  0.00000  0.09219
      20     H     0.45528  0.45528  0.00000  0.08945

   Total alpha = 32.00000, Total beta = 32.00000, Total charge = -0.00000

*** Psi4 exiting successfully. Buy a developer a beer!
