  ==> Input File <==

--------------------------------------------------------------------------
set {
	reference rhf
	basis 6-31G*
}

set_num_threads( 4 )
memory 2 gb

molecule MOL {
0 1

H	 3.089270	 -1.380733	 0.000000
O	 2.178328	 -1.639175	 0.000000
C	 1.368216	 -0.558384	 0.000000
C	 1.846078	 0.729823	 0.203658
C	 0.017106	 -0.769521	 -0.212960
H	 2.897907	 0.891951	 0.369208
C	 0.973439	 1.805036	 0.194246
H	 -0.353314	 -1.764044	 -0.370400
C	 -0.849767	 0.312388	 -0.220850
H	 1.354956	 2.797314	 0.353014
C	 -0.378392	 1.603263	 -0.017825
C	 -2.302523	 0.092638	 -0.449062
H	 -1.057994	 2.436982	 -0.025540
O	 -2.803094	 -0.970593	 -0.632131
H	 -2.913099	 1.000574	 -0.439189

	symmetry c1
}
set optking {
	frozen_dihedral = ("
		4 3 2 1
	")
}

ee = optimize('scf')
oeprop('DIPOLE', 'QUADRUPOLE', 'MULLIKEN_CHARGES')
f=open( 'psi4out.xyz', 'w' )
f.write( "15  " )
f.write( str(ee) + "\n" )
f.write( MOL.save_string_xyz() )
f.close()
--------------------------------------------------------------------------

    Molecular point group: c1
  Charge       = 0
  Multiplicity = 1
  Basis Set: 6-31G*
  Basis Set:
  @DF-RHF Final Energy:  -418.28604668837824
    Total Energy =                       -418.2860466883786330
    Molecular point group: c1
  Basis Set: 6-31G*
  Basis Set:
  Basis Set: 6-31G*
  Basis Set:
  @DF-RHF Final Energy:  -418.28605081610885
    Total Energy =                       -418.2860508161086273
  Basis Set: 6-31G*
  Basis Set:
  Basis Set: 6-31G*
  Basis Set:
  @DF-RHF Final Energy:  -418.28606472083277
    Total Energy =                       -418.2860647208329965
  Basis Set: 6-31G*
  Basis Set:
  Basis Set: 6-31G*
  Basis Set:
  @DF-RHF Final Energy:  -418.28601299948463
    Total Energy =                       -418.2860129994851377
  Basis Set: 6-31G*
  Basis Set:
  Basis Set: 6-31G*
  Basis Set:
  @DF-RHF Final Energy:  -418.28606514381073
    Total Energy =                       -418.2860651438102195
  Basis Set: 6-31G*
  Basis Set:
  Charge       = 0
  Multiplicity = 1
  Basis Set: 6-31G*
  Basis Set:

    Orbital Energies (a.u.)
    -----------------------

    Doubly Occupied:

       1A    -20.601279     2A    -20.564381     3A    -11.332421
       4A    -11.312578     5A    -11.253243     6A    -11.251790
       7A    -11.250041     8A    -11.246422     9A    -11.239583
      10A     -1.420913    11A     -1.404935    12A     -1.169641
      13A     -1.048730    14A     -1.027153    15A     -0.900004
      16A     -0.845784    17A     -0.813144    18A     -0.735965
      19A     -0.702095    20A     -0.685678    21A     -0.639562
      22A     -0.635751    23A     -0.611426    24A     -0.602581
      25A     -0.572575    26A     -0.550398    27A     -0.542875
      28A     -0.512946    29A     -0.486273    30A     -0.423518
      31A     -0.353514    32A     -0.326230

  @DF-RHF Final Energy:  -418.28606522518766

   => Energetics <=

    Nuclear Repulsion Energy =            403.1483302835540030
    One-Electron Energy =               -1368.7419357150706674
    Two-Electron Energy =                 547.3075402063286674
    DFT Exchange-Correlation Energy =       0.0000000000000000
    Empirical Dispersion Energy =           0.0000000000000000
    PCM Polarization Energy =               0.0000000000000000
    EFP Energy =                            0.0000000000000000
    Total Energy =                       -418.2860652251879401
    Molecular point group: c1
  Basis Set: 6-31G*
  Basis Set:

  -Total Gradient:
     Atom            X                  Y                   Z
    ------   -----------------  -----------------  -----------------
       1        0.000005296621     0.000005080434    -0.000813466823
       2       -0.000088373859    -0.000026876477     0.001353387383
       3        0.000211732633     0.000113853340    -0.001135655875
       4       -0.000085867231    -0.000107382689     0.000577124651
       5       -0.000047402168     0.000022804092    -0.000003348533
       6        0.000000324439     0.000003820932    -0.000003067829
       7       -0.000057014911     0.000009725648     0.000052931451
       8        0.000002967039    -0.000003889183    -0.000001271652
       9        0.000012110113    -0.000053709366     0.000014008882
      10        0.000004235885    -0.000001037742    -0.000002935347
      11        0.000044339415     0.000039111325    -0.000044949127
      12       -0.000007488543    -0.000007735216     0.000008007595
      13       -0.000001835497    -0.000001816000     0.000001430215
      14        0.000005351027     0.000005678127    -0.000001790739
      15        0.000001625045     0.000002372775    -0.000000404254

  **** Optimization is complete! (in 6 steps) ****
    Final optimized geometry and variables:
    Molecular point group: c1

    Geometry (in Angstrom), charge = 0, multiplicity = 1:

    H            3.080186896227    -1.388696123993     0.147696484484
    O            2.169150646367    -1.646567483000     0.136566746909
    C            1.359548368624    -0.564746047210     0.125833364397
    C            1.837001417737     0.722911843609     0.334735651018
    C            0.008223194028    -0.776160890912    -0.083563931027
    H            2.888240764860     0.883928067958     0.504900155179
    C            0.964506496660     1.798126861990     0.326094847057
    H           -0.362161327654    -1.770436835099    -0.242538640699
    C           -0.859505466495     0.305393854588    -0.086469254400
    H            1.345778446297     2.790146334327     0.486641134159
    C           -0.387732746666     1.596069968046     0.116162438909
    C           -2.312531719850     0.085479455169    -0.311969329632
    H           -1.067516046047     2.429676221430     0.110674587138
    O           -2.812971406822    -0.977584013025    -0.496962644495
    H           -2.923951777987     0.992750884579    -0.298306022475

  Mulliken Charges: (a.u.)
   Center  Symbol    Alpha    Beta     Spin     Total
       1     H     0.27073  0.27073  0.00000  0.45855
       2     O     4.37619  4.37619  0.00000 -0.75239
       3     C     2.79531  2.79531  0.00000  0.40938
       4     C     3.13369  3.13369  0.00000 -0.26737
       5     C     3.11336  3.11336  0.00000 -0.22672
       6     H     0.39873  0.39873  0.00000  0.20255
       7     C     3.09516  3.09516  0.00000 -0.19031
       8     H     0.37025  0.37025  0.00000  0.25951
       9     C     3.04595  3.04595  0.00000 -0.09190
      10     H     0.39299  0.39299  0.00000  0.21403
      11     C     3.11512  3.11512  0.00000 -0.23024
      12     C     2.83263  2.83263  0.00000  0.33474
      13     H     0.39323  0.39323  0.00000  0.21355
      14     O     4.24489  4.24489  0.00000 -0.48977
      15     H     0.42180  0.42180  0.00000  0.15640

   Total alpha = 32.00000, Total beta = 32.00000, Total charge = -0.00000
