                              Psi4 1.0.54 Driver

  ==> Input File <==

--------------------------------------------------------------------------
set {
	reference rhf
	basis cc-pvtz
}

set_num_threads( 4 )
memory 2 gb

molecule MOL {
0 1

O	 -1.510770	 1.240811	 -0.054933
C	 -1.081510	 0.147522	 0.122720
C	 0.327029	 -0.064006	 0.641890
C	 -1.903028	 -1.084121	 -0.174656
C	 1.349460	 -0.017068	 -0.500215
H	 0.399029	 -1.014606	 1.159950
H	 0.538021	 0.726928	 1.350471
C	 2.747988	 -0.419367	 -0.046322
H	 1.030032	 -0.672394	 -1.305418
H	 1.369026	 0.987513	 -0.906122
H	 3.451995	 -0.366771	 -0.868294
H	 2.760532	 -1.434162	 0.336804
H	 3.105831	 0.236225	 0.739820
H	 -1.341891	 -1.779207	 -0.789259
H	 -2.820449	 -0.808163	 -0.671328
H	 -2.133314	 -1.593056	 0.755831

	symmetry c1
}
set optking {
	frozen_dihedral = ("
		9 5 3 2
	")
}

ee,wfn = optimize('scf', return_wfn=True)
oeprop( wfn, 'DIPOLE', 'QUADRUPOLE', 'MULLIKEN_CHARGES')
f=open( 'psi4out.xyz', 'w' )
f.write( "16  " )
f.write( str(ee) + "\n" )
f.write( MOL.save_string_xyz() )
f.close()
--------------------------------------------------------------------------

    Molecular point group: c1
  Charge       = 0
  Multiplicity = 1
  Basis Set: CC-PVTZ
  Basis Set:
  @DF-RHF Final Energy:  -270.12915127002680
    Total Energy =                       -270.1291512700271369
    Molecular point group: c1
  Basis Set: CC-PVTZ
  Basis Set:
  Basis Set: CC-PVTZ
  Basis Set:
  @DF-RHF Final Energy:  -270.12918671844147
    Total Energy =                       -270.1291867184417015
  Basis Set: CC-PVTZ
  Basis Set:
  Basis Set: CC-PVTZ
  Basis Set:
  @DF-RHF Final Energy:  -270.12907981211674
    Total Energy =                       -270.1290798121167995
  Basis Set: CC-PVTZ
  Basis Set:
  Basis Set: CC-PVTZ
  Basis Set:
  @DF-RHF Final Energy:  -270.12919696682343
    Total Energy =                       -270.1291969668237130
  Basis Set: CC-PVTZ
  Basis Set:
  Basis Set: CC-PVTZ
  Basis Set:
  @DF-RHF Final Energy:  -270.12919896414371
    Total Energy =                       -270.1291989641437681
  Basis Set: CC-PVTZ
  Basis Set:
  Charge       = 0
  Multiplicity = 1
  Basis Set: CC-PVTZ
  Basis Set:

    Orbital Energies (a.u.)
    -----------------------

    Doubly Occupied:

       1A    -20.537335     2A    -11.319798     3A    -11.231797
       4A    -11.228538     5A    -11.227388     6A    -11.218107
       7A     -1.397361     8A     -1.084194     9A     -1.014184
      10A     -0.950902    11A     -0.830065    12A     -0.736787
      13A     -0.660043    14A     -0.652287    15A     -0.614166
      16A     -0.608587    17A     -0.577867    18A     -0.560541
      19A     -0.536023    20A     -0.521451    21A     -0.505823
      22A     -0.484427    23A     -0.474786    24A     -0.400500

  @DF-RHF Final Energy:  -270.12919951435117

   => Energetics <=

    Nuclear Repulsion Energy =            237.5971631583155670
    One-Electron Energy =                -836.7068144002643066
    Two-Electron Energy =                 328.9804517275974831
    DFT Exchange-Correlation Energy =       0.0000000000000000
    Empirical Dispersion Energy =           0.0000000000000000
    PCM Polarization Energy =               0.0000000000000000
    EFP Energy =                            0.0000000000000000
    Total Energy =                       -270.1291995143512850
    Molecular point group: c1
  Basis Set: CC-PVTZ
  Basis Set:

  -Total Gradient:
     Atom            X                  Y                   Z
    ------   -----------------  -----------------  -----------------
       1       -0.000003587473     0.000008253994    -0.000014614019
       2       -0.000110586765    -0.001196333850    -0.000202396367
       3       -0.000045286811     0.001880168601     0.000035832725
       4       -0.000040477283     0.000011678223     0.000076759632
       5        0.001059890258    -0.001970083889     0.000891586979
       6        0.000013754784    -0.000006267000     0.000029456231
       7        0.000010546090    -0.000006643172    -0.000016310373
       8       -0.000052756286    -0.000020189887    -0.000028505587
       9       -0.000854688573     0.001272297130    -0.000709744635
      10       -0.000000321268     0.000035032178    -0.000020130707
      11       -0.000005383957    -0.000004329813     0.000001658286
      12        0.000008417371     0.000000822960     0.000008252277
      13       -0.000011083595     0.000004436128    -0.000006109942
      14        0.000015047935     0.000006929965    -0.000015330633
      15        0.000004202149    -0.000000415184    -0.000009544449
      16        0.000012313424    -0.000015356385    -0.000020859417

  **** Optimization is complete! (in 6 steps) ****
    Final optimized geometry and variables:
    Molecular point group: c1

    Geometry (in Angstrom), charge = 0, multiplicity = 1:

    O           -1.511208420448     1.279762594976    -0.031981163901
    C           -1.075903493148     0.186131824038     0.128402353346
    C            0.329669108829    -0.029833743555     0.651931968206
    C           -1.889159324669    -1.044755011326    -0.195220177422
    C            1.353820468845     0.008517863382    -0.490049324294
    H            0.390277423081    -0.984341111094     1.164910925400
    H            0.547013173226     0.754246091307     1.365590483697
    C            2.755959275882    -0.376444805663    -0.034970447796
    H            1.034313071279    -0.647667317421    -1.294504823314
    H            1.363454165504     1.009295552680    -0.906494076959
    H            3.460585853640    -0.314731846922    -0.855732550746
    H            2.780486797122    -1.390790940107     0.348510267307
    H            3.104518637067     0.283613614992     0.751791115959
    H           -1.316244754227    -1.737197852028    -0.801470356743
    H           -2.796493637238    -0.765771261834    -0.708471412294
    H           -2.139198381187    -1.557868474430     0.727901314224

  Mulliken Charges: (a.u.)
   Center  Symbol    Alpha    Beta     Spin     Total
       1     O     4.17678  4.17678  0.00000 -0.35355
       2     C     2.85803  2.85803  0.00000  0.28395
       3     C     3.09800  3.09800  0.00000 -0.19599
       4     C     3.15503  3.15503  0.00000 -0.31005
       5     C     3.09111  3.09111  0.00000 -0.18222
       6     H     0.45117  0.45117  0.00000  0.09766
       7     H     0.43859  0.43859  0.00000  0.12281
       8     C     3.14929  3.14929  0.00000 -0.29857
       9     H     0.45228  0.45228  0.00000  0.09544
      10     H     0.44160  0.44160  0.00000  0.11679
      11     H     0.44607  0.44607  0.00000  0.10786
      12     H     0.45496  0.45496  0.00000  0.09008
      13     H     0.45193  0.45193  0.00000  0.09613
      14     H     0.45091  0.45091  0.00000  0.09817
      15     H     0.43603  0.43603  0.00000  0.12795
      16     H     0.44824  0.44824  0.00000  0.10353

   Total alpha = 24.00000, Total beta = 24.00000, Total charge =  0.00000

*** Psi4 exiting successfully. Buy a developer a beer!
