  ==> Input File <==

--------------------------------------------------------------------------
set {
	reference rhf
	basis cc-pvtz
}

set_num_threads( 4 )
memory 2 gb

molecule MOL {
0 1

H	 -2.823222	 1.440929	 1.866634
O	 -2.134898	 0.865248	 1.589151
C	 -2.302264	 0.528872	 0.237390
C	 -1.175688	 -0.398187	 -0.171891
H	 -3.260809	 0.037772	 0.083166
H	 -2.289294	 1.423368	 -0.381914
C	 0.196029	 0.106276	 0.266738
H	 -1.201873	 -0.515469	 -1.250677
H	 -1.365975	 -1.378728	 0.252664
C	 1.330220	 -0.826136	 -0.155230
H	 0.359542	 1.097229	 -0.145561
H	 0.212134	 0.218135	 1.348778
C	 2.719700	 -0.407669	 0.328325
H	 1.339388	 -0.911200	 -1.239363
H	 1.119001	 -1.821953	 0.224128
C	 3.241564	 0.893452	 -0.276737
H	 3.418299	 -1.204729	 0.093035
H	 2.711776	 -0.323368	 1.411960
H	 3.254204	 0.841071	 -1.360784
H	 2.634460	 1.745075	 0.005842
H	 4.254264	 1.092401	 0.054971

	symmetry c1
}
set optking {
	frozen_dihedral = ("
		2 3 4 8
	")
}

ee = optimize('scf')
oeprop('DIPOLE', 'QUADRUPOLE', 'MULLIKEN_CHARGES')
f=open( 'psi4out.xyz', 'w' )
f.write( "21  " )
f.write( str(ee) + "\n" )
f.write( MOL.save_string_xyz() )
f.close()
--------------------------------------------------------------------------

    Molecular point group: c1
  Charge       = 0
  Multiplicity = 1
  Basis Set: CC-PVTZ
  Basis Set:
  @DF-RHF Final Energy:  -310.33141208617263
    Total Energy =                       -310.3314120861724632
    Molecular point group: c1
  Basis Set: CC-PVTZ
  Basis Set:
  Basis Set: CC-PVTZ
  Basis Set:
  @DF-RHF Final Energy:  -310.33177451249173
    Total Energy =                       -310.3317745124919611
  Basis Set: CC-PVTZ
  Basis Set:
  Basis Set: CC-PVTZ
  Basis Set:
  @DF-RHF Final Energy:  -310.33190115475730
    Total Energy =                       -310.3319011547575315
  Basis Set: CC-PVTZ
  Basis Set:
  Basis Set: CC-PVTZ
  Basis Set:
  @DF-RHF Final Energy:  -310.33190439081136
    Total Energy =                       -310.3319043908113031
  Basis Set: CC-PVTZ
  Basis Set:
  Charge       = 0
  Multiplicity = 1
  Basis Set: CC-PVTZ
  Basis Set:

    Orbital Energies (a.u.)
    -----------------------

    Doubly Occupied:

       1A    -20.546242     2A    -11.266143     3A    -11.210762
       4A    -11.208477     5A    -11.206244     6A    -11.202827
       7A    -11.201995     8A     -1.364419     9A     -1.081580
      10A     -1.030578    11A     -0.953922    12A     -0.875859
      13A     -0.801357    14A     -0.772949    15A     -0.705375
      16A     -0.651068    17A     -0.619798    18A     -0.604815
      19A     -0.586007    20A     -0.568640    21A     -0.532647
      22A     -0.526939    23A     -0.501888    24A     -0.491593
      25A     -0.478654    26A     -0.455185    27A     -0.453638
      28A     -0.439403    29A     -0.431005

  @DF-RHF Final Energy:  -310.33190436581606

   => Energetics <=

    Nuclear Repulsion Energy =            317.9689231306657575
    One-Electron Energy =               -1051.0616316554392142
    Two-Electron Energy =                 422.7608041589576260
    DFT Exchange-Correlation Energy =       0.0000000000000000
    Empirical Dispersion Energy =           0.0000000000000000
    PCM Polarization Energy =               0.0000000000000000
    EFP Energy =                            0.0000000000000000
    Total Energy =                       -310.3319043658158307
    Molecular point group: c1
  Basis Set: CC-PVTZ
  Basis Set:

  -Total Gradient:
     Atom            X                  Y                   Z
    ------   -----------------  -----------------  -----------------
       1       -0.000005461895     0.000026605257     0.000036804209
       2        0.001670153739     0.002364520702    -0.000862948807
       3       -0.001660690936    -0.002502124554     0.000964254128
       4       -0.002375923883    -0.002959536339     0.000154859951
       5       -0.000012318439     0.000019282393     0.000059145129
       6       -0.000021966282     0.000017245562     0.000020517534
       7       -0.000054367986    -0.000008832058    -0.000072024003
       8        0.002422841958     0.003003945214    -0.000335143091
       9       -0.000001363037     0.000007642898    -0.000014780434
      10        0.000020156139     0.000029102694    -0.000026538602
      11       -0.000002558441    -0.000024829740     0.000001839196
      12       -0.000012605729     0.000007949486     0.000047427481
      13       -0.000005022471    -0.000000929634     0.000033513795
      14       -0.000007302281     0.000016362742     0.000003974751
      15        0.000001633009     0.000009261347    -0.000011099609
      16        0.000014413949     0.000007233112    -0.000007864795
      17       -0.000002958094    -0.000006681716     0.000014233537
      18        0.000000879397     0.000009794454     0.000007638485
      19       -0.000001090873     0.000006032269    -0.000007805228
      20        0.000032927176    -0.000013833049    -0.000000104108
      21        0.000000624978    -0.000008211040    -0.000005899519

  **** Optimization is complete! (in 5 steps) ****
    Final optimized geometry and variables:
    Molecular point group: c1

    Geometry (in Angstrom), charge = 0, multiplicity = 1:

    H           -3.136675399888     1.306554750296     1.539918317603
    O           -2.417444281883     0.752112785819     1.300887862828
    C           -2.519270810513     0.388994846520    -0.051218008695
    C           -1.382547185813    -0.549837487212    -0.417434395763
    H           -3.472073974079    -0.095530854581    -0.247656084629
    H           -2.467994040660     1.278250149624    -0.676749636919
    C           -0.004234460681    -0.039483460685     0.000876808120
    H           -1.389961491250    -0.663950587262    -1.498362005125
    H           -1.561103614475    -1.526803254999     0.019946665356
    C            1.120867461093    -0.967356094773    -0.453692701952
    H            0.141742702948     0.954161262334    -0.412437419096
    H            0.027172982797     0.069005428385     1.078141319840
    C            2.517332955002    -0.560554475087     0.019931877555
    H            1.118875946361    -1.036523532420    -1.539639062623
    H            0.913478655026    -1.969283613933    -0.087246423360
    C            3.034538165206     0.749242049215    -0.570054136653
    H            3.211979425427    -1.354956407202    -0.236036929001
    H            2.520982826457    -0.492891136816     1.104486549063
    H            3.033069312808     0.715062952424    -1.655066148934
    H            2.432600222736     1.596535150247    -0.264968424996
    H            4.052043791832     0.940515234815    -0.248388471948

  Mulliken Charges: (a.u.)
   Center  Symbol    Alpha    Beta     Spin     Total
       1     H     0.39612  0.39612  0.00000  0.20777
       2     O     4.19724  4.19724  0.00000 -0.39448
       3     C     2.97415  2.97415  0.00000  0.05170
       4     C     3.09202  3.09202  0.00000 -0.18405
       5     H     0.46555  0.46555  0.00000  0.06891
       6     H     0.47348  0.47348  0.00000  0.05303
       7     C     3.09009  3.09009  0.00000 -0.18019
       8     H     0.45586  0.45586  0.00000  0.08828
       9     H     0.45241  0.45241  0.00000  0.09517
      10     C     3.09477  3.09477  0.00000 -0.18955
      11     H     0.45694  0.45694  0.00000  0.08612
      12     H     0.44237  0.44237  0.00000  0.11527
      13     C     3.08936  3.08936  0.00000 -0.17871
      14     H     0.45625  0.45625  0.00000  0.08750
      15     H     0.45058  0.45058  0.00000  0.09884
      16     C     3.15259  3.15259  0.00000 -0.30518
      17     H     0.44975  0.44975  0.00000  0.10049
      18     H     0.45435  0.45435  0.00000  0.09130
      19     H     0.45609  0.45609  0.00000  0.08782
      20     H     0.45293  0.45293  0.00000  0.09415
      21     H     0.44709  0.44709  0.00000  0.10581

   Total alpha = 29.00000, Total beta = 29.00000, Total charge = -0.00000
