  ==> Input File <==

--------------------------------------------------------------------------
set {
	reference rhf
	basis 6-31G*
}

set_num_threads( 4 )
memory 2 gb

molecule MOL {
0 1

H	 -1.836216	 1.387520	 -0.000064
C	 -1.301823	 0.443321	 -0.000031
O	 -0.003969	 0.658512	 0.000451
O	 -1.829879	 -0.616434	 -0.000857
C	 0.509653	 1.569020	 0.972230
C	 2.007924	 1.647286	 0.773789
H	 0.253317	 1.207353	 1.958539
H	 0.035104	 2.530859	 0.834515
H	 2.465231	 0.673637	 0.907619
H	 2.439584	 2.331942	 1.496387
H	 2.246131	 2.003536	 -0.221817

	symmetry c1
}
set optking {
	frozen_dihedral = ("
		5 3 2 4
	")
}

ee = optimize('scf')
oeprop('DIPOLE', 'QUADRUPOLE', 'MULLIKEN_CHARGES')
f=open( 'psi4out.xyz', 'w' )
f.write( "11  " )
f.write( str(ee) + "\n" )
f.write( MOL.save_string_xyz() )
f.close()
--------------------------------------------------------------------------

    Molecular point group: c1
  Charge       = 0
  Multiplicity = 1
  Basis Set: 6-31G*
  Basis Set:
  @DF-RHF Final Energy:  -266.81251709058881
    Total Energy =                       -266.8125170905886989
    Molecular point group: c1
  Basis Set: 6-31G*
  Basis Set:
  Basis Set: 6-31G*
  Basis Set:
  @DF-RHF Final Energy:  -266.81332215131840
    Total Energy =                       -266.8133221513186868
  Basis Set: 6-31G*
  Basis Set:
  Basis Set: 6-31G*
  Basis Set:
  @DF-RHF Final Energy:  -266.81153162087872
    Total Energy =                       -266.8115316208784407
  Basis Set: 6-31G*
  Basis Set:
  Basis Set: 6-31G*
  Basis Set:
  @DF-RHF Final Energy:  -266.81378861781644
    Total Energy =                       -266.8137886178165559
  Basis Set: 6-31G*
  Basis Set:
  Basis Set: 6-31G*
  Basis Set:
  @DF-RHF Final Energy:  -266.81379415468007
    Total Energy =                       -266.8137941546801812
  Basis Set: 6-31G*
  Basis Set:
  Basis Set: 6-31G*
  Basis Set:
  @DF-RHF Final Energy:  -266.81381768907619
    Total Energy =                       -266.8138176890761315
  Basis Set: 6-31G*
  Basis Set:
  Charge       = 0
  Multiplicity = 1
  Basis Set: 6-31G*
  Basis Set:

    Orbital Energies (a.u.)
    -----------------------

    Doubly Occupied:

       1A    -20.602874     2A    -20.564475     3A    -11.380830
       4A    -11.305882     5A    -11.232164     6A     -1.470049
       7A     -1.381645     8A     -1.052866     9A     -0.887497
      10A     -0.841754    11A     -0.741022    12A     -0.690885
      13A     -0.658370    14A     -0.625173    15A     -0.568088
      16A     -0.549037    17A     -0.537657    18A     -0.510249
      19A     -0.463207    20A     -0.451850

  @DF-RHF Final Energy:  -266.81381832180875

   => Energetics <=

    Nuclear Repulsion Energy =            176.4249436551033625
    One-Electron Energy =                -713.4463743402423006
    Two-Electron Energy =                 270.2076123633302132
    DFT Exchange-Correlation Energy =       0.0000000000000000
    Empirical Dispersion Energy =           0.0000000000000000
    PCM Polarization Energy =               0.0000000000000000
    EFP Energy =                            0.0000000000000000
    Total Energy =                       -266.8138183218087534
    Molecular point group: c1
  Basis Set: 6-31G*
  Basis Set:

  -Total Gradient:
     Atom            X                  Y                   Z
    ------   -----------------  -----------------  -----------------
       1       -0.000015987410    -0.000016485945     0.000003196993
       2        0.000770509259    -0.002361318629    -0.007066351736
       3       -0.000299667966     0.004937775614    -0.001893943896
       4       -0.000515558968     0.000549411046     0.005757249213
       5        0.000050178123    -0.003122873105     0.003183916726
       6        0.000006723602     0.000006750225     0.000015495733
       7        0.000002631709    -0.000005878478    -0.000010938339
       8        0.000002539985     0.000012734738     0.000003423056
       9       -0.000000243278     0.000001082825    -0.000000974318
      10        0.000008401282    -0.000000000645     0.000002317339
      11       -0.000009526338    -0.000001197642     0.000006609229

  **** Optimization is complete! (in 7 steps) ****
    Final optimized geometry and variables:
    Molecular point group: c1

    Geometry (in Angstrom), charge = 0, multiplicity = 1:

    H           -1.681082824303     0.692779185548    -0.507632031434
    C           -1.177643047687    -0.267628581744    -0.392632939207
    O            0.146278934775    -0.161037837047    -0.297687238793
    O           -1.759237323391    -1.289864822691    -0.344447576440
    C            0.649788740645     0.786641173645     0.631511733630
    C            2.137751748635     0.930767151563     0.395391892551
    H            0.446115657993     0.432667411158     1.635390355019
    H            0.141573335859     1.737971425998     0.496633996870
    H            2.633465487942    -0.024217614428     0.520420098304
    H            2.560061711497     1.636298502963     1.103226427927
    H            2.329913718040     1.289100158418    -0.609045752070

  Mulliken Charges: (a.u.)
   Center  Symbol    Alpha    Beta     Spin     Total
       1     H     0.42993  0.42993  0.00000  0.14015
       2     C     2.72809  2.72809  0.00000  0.54381
       3     O     4.29187  4.29187  0.00000 -0.58373
       4     O     4.23390  4.23390  0.00000 -0.46779
       5     C     3.00769  3.00769  0.00000 -0.01538
       6     C     3.24688  3.24688  0.00000 -0.49375
       7     H     0.41127  0.41127  0.00000  0.17747
       8     H     0.42101  0.42101  0.00000  0.15798
       9     H     0.40462  0.40462  0.00000  0.19075
      10     H     0.41573  0.41573  0.00000  0.16854
      11     H     0.40902  0.40902  0.00000  0.18195

   Total alpha = 20.00000, Total beta = 20.00000, Total charge = -0.00000
