                              Psi4 1.0.54 Driver

  ==> Input File <==

--------------------------------------------------------------------------
set {
	reference rhf
	basis cc-pvtz
}

set_num_threads( 4 )
memory 2 gb

molecule MOL {
0 1

H	 -2.545750	 -1.342596	 0.687578
O	 -2.658848	 -0.704215	 -0.000460
C	 -1.605397	 0.107680	 0.001145
C	 -0.310616	 -0.658853	 0.000791
O	 -1.718351	 1.284629	 -0.000627
C	 0.926581	 0.227233	 0.000178
H	 -0.327628	 -1.313681	 -0.864448
H	 -0.327041	 -1.313334	 0.866298
C	 2.220156	 -0.582071	 -0.000088
H	 0.899945	 0.878221	 -0.866390
H	 0.900542	 0.878581	 0.866486
C	 3.466689	 0.296012	 -0.000457
H	 2.239073	 -1.234095	 -0.869382
H	 2.239505	 -1.233985	 0.869270
H	 3.493549	 0.935857	 -0.875887
H	 4.368821	 -0.304526	 -0.001199
H	 3.494559	 0.935166	 0.875458

	symmetry c1
}
set optking {
	frozen_dihedral = ("
		1 2 3 5
	")
}

ee,wfn = optimize('scf', return_wfn=True)
oeprop( wfn, 'DIPOLE', 'QUADRUPOLE', 'MULLIKEN_CHARGES')
f=open( 'psi4out.xyz', 'w' )
f.write( "17  " )
f.write( str(ee) + "\n" )
f.write( MOL.save_string_xyz() )
f.close()
--------------------------------------------------------------------------

    Molecular point group: c1
  Charge       = 0
  Multiplicity = 1
  Basis Set: CC-PVTZ
  Basis Set:
  @DF-RHF Final Energy:  -345.03141192430729
    Total Energy =                       -345.0314119243075766
    Molecular point group: c1
  Basis Set: CC-PVTZ
  Basis Set:
  Basis Set: CC-PVTZ
  Basis Set:
  @DF-RHF Final Energy:  -345.03268823582897
    Total Energy =                       -345.0326882358292551
  Basis Set: CC-PVTZ
  Basis Set:
  Basis Set: CC-PVTZ
  Basis Set:
  @DF-RHF Final Energy:  -345.03246123484058
    Total Energy =                       -345.0324612348408664
  Basis Set: CC-PVTZ
  Basis Set:
  Basis Set: CC-PVTZ
  Basis Set:
  @DF-RHF Final Energy:  -345.03285860193353
    Total Energy =                       -345.0328586019335830
  Basis Set: CC-PVTZ
  Basis Set:
  Basis Set: CC-PVTZ
  Basis Set:
  @DF-RHF Final Energy:  -345.03286441319239
    Total Energy =                       -345.0328644131921578
  Basis Set: CC-PVTZ
  Basis Set:
  Charge       = 0
  Multiplicity = 1
  Basis Set: CC-PVTZ
  Basis Set:

    Orbital Energies (a.u.)
    -----------------------

    Doubly Occupied:

       1A    -20.593873     2A    -20.544778     3A    -11.373589
       4A    -11.246723     5A    -11.225239     6A    -11.224563
       7A    -11.213494     8A     -1.466191     9A     -1.372955
      10A     -1.095988    11A     -1.019925    12A     -0.909099
      13A     -0.830573    14A     -0.803822    15A     -0.715787
      16A     -0.676447    17A     -0.663300    18A     -0.640885
      19A     -0.600729    20A     -0.586251    21A     -0.551060
      22A     -0.543641    23A     -0.515381    24A     -0.495801
      25A     -0.484323    26A     -0.478136    27A     -0.476017
      28A     -0.444487

  @DF-RHF Final Energy:  -345.03286501814370

   => Energetics <=

    Nuclear Repulsion Energy =            304.3516170508380014
    One-Electron Energy =               -1073.1828521787538193
    Two-Electron Energy =                 423.7983701097718949
    DFT Exchange-Correlation Energy =       0.0000000000000000
    Empirical Dispersion Energy =           0.0000000000000000
    PCM Polarization Energy =               0.0000000000000000
    EFP Energy =                            0.0000000000000000
    Total Energy =                       -345.0328650181438661
    Molecular point group: c1
  Basis Set: CC-PVTZ
  Basis Set:

  -Total Gradient:
     Atom            X                  Y                   Z
    ------   -----------------  -----------------  -----------------
       1       -0.003015387866     0.004397106742     0.004174362242
       2        0.003819938512    -0.005485169756    -0.002693396323
       3       -0.000785663353     0.000975191382    -0.007327088795
       4       -0.000051223410     0.000003685224    -0.000065897002
       5        0.000022158038     0.000104892199     0.005870281114
       6        0.000024364935     0.000014231416     0.000010931177
       7        0.000014950003    -0.000003161091     0.000026291888
       8       -0.000008388563     0.000006709255     0.000025004793
       9        0.000007125392    -0.000011731581    -0.000009380864
      10       -0.000001151792    -0.000001763721    -0.000006764804
      11       -0.000004101935    -0.000009612878    -0.000010796568
      12       -0.000009621461     0.000008595535     0.000008688723
      13       -0.000002738837     0.000001445878    -0.000004082010
      14       -0.000004153445    -0.000001426292     0.000000376485
      15        0.000001180074    -0.000000676704    -0.000002988568
      16       -0.000010447784    -0.000003219634     0.000002065217
      17        0.000003161483     0.000004904027     0.000002393294

  **** Optimization is complete! (in 6 steps) ****
    Final optimized geometry and variables:
    Molecular point group: c1

    Geometry (in Angstrom), charge = 0, multiplicity = 1:

    H           -2.674006951717    -1.317827228563     0.690964459357
    O           -2.712887381127    -0.674580746595     0.004041883870
    C           -1.613254214356     0.107347432387    -0.016514038180
    C           -0.308438905545    -0.652236321618    -0.006453336914
    O           -1.712045568888     1.276862146037    -0.047953462497
    C            0.926424865863     0.237164543909     0.000922283572
    H           -0.315990828137    -1.306925909556    -0.872369651356
    H           -0.312484564880    -1.309727934534     0.860501752844
    C            2.223913043140    -0.565840045407     0.006778134138
    H            0.898924475775     0.887375196572    -0.865668254150
    H            0.892238591332     0.888585401963     0.866905317995
    C            3.465702997832     0.318869295023     0.012112083943
    H            2.250224524899    -1.217514795888    -0.862546798247
    H            2.243350731532    -1.217701677847     0.876456198359
    H            3.493348516284     0.957919612916    -0.863731592789
    H            4.370806737493    -0.277043596055     0.016399196731
    H            3.485690898187     0.958877533277     0.887562527503

  Mulliken Charges: (a.u.)
   Center  Symbol    Alpha    Beta     Spin     Total
       1     H     0.38871  0.38871  0.00000  0.22258
       2     O     4.16016  4.16016  0.00000 -0.32032
       3     C     2.80263  2.80263  0.00000  0.39473
       4     C     3.12280  3.12280  0.00000 -0.24560
       5     O     4.16498  4.16498  0.00000 -0.32996
       6     C     3.08498  3.08498  0.00000 -0.16996
       7     H     0.43537  0.43537  0.00000  0.12927
       8     H     0.45195  0.45195  0.00000  0.09611
       9     C     3.08632  3.08632  0.00000 -0.17264
      10     H     0.44296  0.44296  0.00000  0.11408
      11     H     0.44570  0.44570  0.00000  0.10860
      12     C     3.14927  3.14927  0.00000 -0.29854
      13     H     0.45443  0.45443  0.00000  0.09114
      14     H     0.45567  0.45567  0.00000  0.08866
      15     H     0.45284  0.45284  0.00000  0.09433
      16     H     0.44777  0.44777  0.00000  0.10446
      17     H     0.45348  0.45348  0.00000  0.09305

   Total alpha = 28.00000, Total beta = 28.00000, Total charge = -0.00000

*** Psi4 exiting successfully. Buy a developer a beer!
