  ==> Input File <==

--------------------------------------------------------------------------
set {
	reference rhf
	basis 6-31G*
}

set_num_threads( 4 )
memory 2 gb

molecule MOL {
0 1

O	 0.948934	 0.918910	 0.808878
C	 0.576249	 0.131685	 -0.000108
C	 -0.766779	 -0.556801	 -0.000461
O	 1.313879	 -0.252238	 -1.034114
C	 -1.945214	 0.412366	 0.000161
H	 -0.796911	 -1.211249	 -0.867467
H	 -0.796854	 -1.212390	 0.865687
C	 -3.287791	 -0.317055	 0.000105
H	 -1.876087	 1.060580	 -0.866812
H	 -1.875822	 1.059691	 0.867761
H	 -3.394745	 -0.949193	 -0.877058
H	 -4.111778	 0.388953	 0.000015
H	 -3.394954	 -0.949187	 0.877259
C	 2.603122	 0.321462	 -1.152136
H	 2.533504	 1.395053	 -1.252622
H	 3.037758	 -0.109878	 -2.040338
H	 3.205437	 0.083939	 -0.287087

	symmetry c1
}
set optking {
	frozen_dihedral = ("
		1 2 3 6
	")
}

ee = optimize('scf')
oeprop('DIPOLE', 'QUADRUPOLE', 'MULLIKEN_CHARGES')
f=open( 'psi4out.xyz', 'w' )
f.write( "17  " )
f.write( str(ee) + "\n" )
f.write( MOL.save_string_xyz() )
f.close()
--------------------------------------------------------------------------

    Molecular point group: c1
  Charge       = 0
  Multiplicity = 1
  Basis Set: 6-31G*
  Basis Set:
  @DF-RHF Final Energy:  -344.90482127287351
    Total Energy =                       -344.9048212728734484
    Molecular point group: c1
  Basis Set: 6-31G*
  Basis Set:
  Basis Set: 6-31G*
  Basis Set:
  @DF-RHF Final Energy:  -344.90526234392712
    Total Energy =                       -344.9052623439272338
  Basis Set: 6-31G*
  Basis Set:
  Basis Set: 6-31G*
  Basis Set:
  @DF-RHF Final Energy:  -344.90439319877390
    Total Energy =                       -344.9043931987735050
  Basis Set: 6-31G*
  Basis Set:
  Basis Set: 6-31G*
  Basis Set:
  @DF-RHF Final Energy:  -344.90541618714536
    Total Energy =                       -344.9054161871450219
  Basis Set: 6-31G*
  Basis Set:
  Basis Set: 6-31G*
  Basis Set:
  @DF-RHF Final Energy:  -344.90541922994481
    Total Energy =                       -344.9054192299442434
  Basis Set: 6-31G*
  Basis Set:
  Basis Set: 6-31G*
  Basis Set:
  @DF-RHF Final Energy:  -344.90542063369497
    Total Energy =                       -344.9054206336950301
  Basis Set: 6-31G*
  Basis Set:
  Charge       = 0
  Multiplicity = 1
  Basis Set: 6-31G*
  Basis Set:

    Orbital Energies (a.u.)
    -----------------------

    Doubly Occupied:

       1A    -20.606380     2A    -20.542634     3A    -11.371956
       4A    -11.281105     5A    -11.234474     6A    -11.228291
       7A    -11.216815     8A     -1.470044     9A     -1.361784
      10A     -1.081816    11A     -1.000660    12A     -0.941433
      13A     -0.828586    14A     -0.771748    15A     -0.698809
      16A     -0.680697    17A     -0.672762    18A     -0.636335
      19A     -0.594523    20A     -0.581984    21A     -0.560722
      22A     -0.534356    23A     -0.525247    24A     -0.502566
      25A     -0.485011    26A     -0.481956    27A     -0.454550
      28A     -0.434754

  @DF-RHF Final Energy:  -344.90542072302702

   => Energetics <=

    Nuclear Repulsion Energy =            312.8243929826375620
    One-Electron Energy =               -1089.8956317229635715
    Two-Electron Energy =                 432.1658180172989887
    DFT Exchange-Correlation Energy =       0.0000000000000000
    Empirical Dispersion Energy =           0.0000000000000000
    PCM Polarization Energy =               0.0000000000000000
    EFP Energy =                            0.0000000000000000
    Total Energy =                       -344.9054207230269640
    Molecular point group: c1
  Basis Set: 6-31G*
  Basis Set:

  -Total Gradient:
     Atom            X                  Y                   Z
    ------   -----------------  -----------------  -----------------
       1        0.000283418793    -0.000537164889     0.000389053267
       2       -0.000353107649     0.000661772661    -0.000501088350
       3       -0.000178446660     0.000385901305    -0.000261337198
       4       -0.000003323101     0.000001990053     0.000027240727
       5       -0.000015141951     0.000021432513    -0.000003399300
       6        0.000265910476    -0.000516030882     0.000367694006
       7       -0.000011052812    -0.000004630929    -0.000018759721
       8        0.000001370897    -0.000006128189    -0.000005311225
       9       -0.000001139131    -0.000002725021     0.000012566211
      10        0.000010609459    -0.000004678866    -0.000004106723
      11        0.000005761674    -0.000004792413     0.000005588402
      12       -0.000000620648     0.000002325114    -0.000004845747
      13       -0.000006553595     0.000004360691     0.000003212664
      14       -0.000004443584    -0.000004241270    -0.000003792111
      15        0.000002857187     0.000001381291    -0.000001002247
      16        0.000002844428     0.000000918206    -0.000000673517
      17        0.000001056219     0.000000310623    -0.000001039138

  **** Optimization is complete! (in 7 steps) ****
    Final optimized geometry and variables:
    Molecular point group: c1

    Geometry (in Angstrom), charge = 0, multiplicity = 1:

    O            0.957261700459     0.794569287537     1.010066935511
    C            0.619266281714     0.013231211262     0.178660605443
    C           -0.718546061021    -0.687127579371     0.168127748611
    O            1.389556341180    -0.340918268091    -0.839323653379
    C           -1.882517574780     0.310275261532     0.191034436552
    H           -0.779162535462    -1.344305896507    -0.689941905779
    H           -0.754506366722    -1.305549817298     1.060664089163
    C           -3.238708705872    -0.389432945835     0.252656567467
    H           -1.836867291497     0.936516914251    -0.696327812181
    H           -1.762416777068     0.967765373760     1.044292149434
    H           -3.387769678343    -1.039085399966    -0.604961738201
    H           -4.047207037871     0.334195715939     0.264128691735
    H           -3.325861275880    -0.997433644173     1.148536262620
    C            2.672973476070     0.254482263972    -0.909715745114
    H            2.588635333093     1.328198939690    -0.995161915150
    H            3.140460383091    -0.156100910942    -1.791027403942
    H            3.252023924452     0.012436711669    -0.030292977132

  Mulliken Charges: (a.u.)
   Center  Symbol    Alpha    Beta     Spin     Total
       1     O     4.28711  4.28711  0.00000 -0.57422
       2     C     2.60901  2.60901  0.00000  0.78198
       3     C     3.20261  3.20261  0.00000 -0.40521
       4     O     4.30349  4.30349  0.00000 -0.60698
       5     C     3.16127  3.16127  0.00000 -0.32253
       6     H     0.40092  0.40092  0.00000  0.19817
       7     H     0.40138  0.40138  0.00000  0.19724
       8     C     3.24158  3.24158  0.00000 -0.48316
       9     H     0.41637  0.41637  0.00000  0.16726
      10     H     0.40274  0.40274  0.00000  0.19451
      11     H     0.42020  0.42020  0.00000  0.15960
      12     H     0.41513  0.41513  0.00000  0.16975
      13     H     0.41928  0.41928  0.00000  0.16144
      14     C     3.09367  3.09367  0.00000 -0.18735
      15     H     0.40847  0.40847  0.00000  0.18305
      16     H     0.40834  0.40834  0.00000  0.18331
      17     H     0.40843  0.40843  0.00000  0.18313

   Total alpha = 28.00000, Total beta = 28.00000, Total charge = -0.00000
