  ==> Input File <==

--------------------------------------------------------------------------
set {
	reference rhf
	basis cc-pvtz
}

set_num_threads( 4 )
memory 2 gb

molecule MOL {
0 1

H	 -2.498963	 -0.741158	 -0.729149
O	 -2.346257	 -0.289210	 0.080372
C	 -1.183935	 0.486039	 -0.009831
C	 0.062853	 -0.375310	 0.027457
H	 -1.178881	 1.094526	 -0.908634
H	 -1.184406	 1.155156	 0.838676
O	 1.172093	 0.457955	 -0.054438
H	 0.052476	 -1.081302	 -0.804627
H	 0.076323	 -0.955658	 0.947560
C	 0.984794	 1.726258	 0.481797
H	 0.742597	 1.678046	 1.541179
H	 1.906306	 2.276475	 0.360294
H	 0.187264	 2.260012	 -0.029645

	symmetry c1
}
set optking {
	frozen_dihedral = ("
		10 7 4 8
	")
}

ee = optimize('scf')
oeprop('DIPOLE', 'QUADRUPOLE', 'MULLIKEN_CHARGES')
f=open( 'psi4out.xyz', 'w' )
f.write( "13  " )
f.write( str(ee) + "\n" )
f.write( MOL.save_string_xyz() )
f.close()
--------------------------------------------------------------------------

    Molecular point group: c1
  Charge       = 0
  Multiplicity = 1
  Basis Set: CC-PVTZ
  Basis Set:
  @DF-RHF Final Energy:  -268.04262529063817
    Total Energy =                       -268.0426252906379432
    Molecular point group: c1
  Basis Set: CC-PVTZ
  Basis Set:
  Basis Set: CC-PVTZ
  Basis Set:
  @DF-RHF Final Energy:  -268.04277233316520
    Total Energy =                       -268.0427723331651464
  Basis Set: CC-PVTZ
  Basis Set:
  Basis Set: CC-PVTZ
  Basis Set:
  @DF-RHF Final Energy:  -268.04992406559938
    Total Energy =                       -268.0499240655992708
  Basis Set: CC-PVTZ
  Basis Set:
  Basis Set: CC-PVTZ
  Basis Set:
  @DF-RHF Final Energy:  -268.05275991151927
    Total Energy =                       -268.0527599115193880
  Basis Set: CC-PVTZ
  Basis Set:
  @DF-RHF Final Energy:  -268.05323883171758
    Total Energy =                       -268.0532388317177492
  Basis Set: CC-PVTZ
  Basis Set:
  @DF-RHF Final Energy:  -268.05352261258321
    Total Energy =                       -268.0535226125831514
  Basis Set: CC-PVTZ
  Basis Set:
  Basis Set: CC-PVTZ
  Basis Set:
  @DF-RHF Final Energy:  -268.05356290025020
    Total Energy =                       -268.0535629002498581
  Basis Set: CC-PVTZ
  Basis Set:
  Basis Set: CC-PVTZ
  Basis Set:
  @DF-RHF Final Energy:  -268.05356618888260
    Total Energy =                       -268.0535661888824279
  Basis Set: CC-PVTZ
  Basis Set:
  Charge       = 0
  Multiplicity = 1
  Basis Set: CC-PVTZ
  Basis Set:

    Orbital Energies (a.u.)
    -----------------------

    Doubly Occupied:

       1A    -20.557733     2A    -20.551838     3A    -11.274345
       4A    -11.270364     5A    -11.267828     6A     -1.385871
       7A     -1.372330     8A     -1.013819     9A     -0.938978
      10A     -0.829224    11A     -0.715781    12A     -0.676804
      13A     -0.662606    14A     -0.639094    15A     -0.599206
      16A     -0.561765    17A     -0.550479    18A     -0.519693
      19A     -0.483068    20A     -0.440820    21A     -0.412212

  @DF-RHF Final Energy:  -268.05356663533166

   => Energetics <=

    Nuclear Repulsion Energy =            193.1197861264776066
    One-Electron Energy =                -748.8989915068518712
    Two-Electron Energy =                 287.7256387450426018
    DFT Exchange-Correlation Energy =       0.0000000000000000
    Empirical Dispersion Energy =           0.0000000000000000
    PCM Polarization Energy =               0.0000000000000000
    EFP Energy =                            0.0000000000000000
    Total Energy =                       -268.0535666353316628
    Molecular point group: c1
  Basis Set: CC-PVTZ
  Basis Set:

  -Total Gradient:
     Atom            X                  Y                   Z
    ------   -----------------  -----------------  -----------------
       1        0.000002989130     0.000008999664     0.000001686147
       2        0.000009489839     0.000003017458     0.000016650656
       3       -0.000000918270    -0.000002629162    -0.000045543993
       4        0.002608460037    -0.003720380845     0.001465843521
       5       -0.000009277645     0.000006284171     0.000000643509
       6        0.000004122696    -0.000011244973    -0.000000564218
       7        0.001589679448    -0.001698100085     0.005449212290
       8       -0.002766481365     0.003724365258    -0.002824982714
       9        0.000010934269    -0.000008817213     0.000006908134
      10       -0.001447162278     0.001693079482    -0.004073909877
      11       -0.000003184112     0.000002315558     0.000000573041
      12       -0.000001301782     0.000010255571     0.000002075742
      13        0.000002650035    -0.000007144882     0.000001407762

  **** Optimization is complete! (in 9 steps) ****
    Final optimized geometry and variables:
    Molecular point group: c1

    Geometry (in Angstrom), charge = 0, multiplicity = 1:

    H           -2.098143827734    -1.345971394430    -0.867339955296
    O           -2.076951995598    -0.846709308632    -0.071071406387
    C           -1.014508112366     0.064211923514    -0.098168420251
    C            0.314341703824    -0.683772474872    -0.052429602115
    H           -1.062207843683     0.694332497762    -0.982108295181
    H           -1.144511159145     0.698529580116     0.766431000575
    O            1.466010638943     0.103660888626    -0.140904474662
    H            0.330562690293    -1.333472925654    -0.920557628656
    H            0.339849485411    -1.296366801014     0.844103190950
    C            1.449602605323     1.388549315147     0.395085756586
    H            1.192422224570     1.388224333681     1.451795139329
    H            2.449209055582     1.784141304512     0.289943964502
    H            0.765493649631     2.047083577361    -0.129129923489

  Mulliken Charges: (a.u.)
   Center  Symbol    Alpha    Beta     Spin     Total
       1     H     0.39326  0.39326  0.00000  0.21349
       2     O     4.20064  4.20064  0.00000 -0.40129
       3     C     2.99092  2.99092  0.00000  0.01817
       4     C     2.97299  2.97299  0.00000  0.05403
       5     H     0.46503  0.46503  0.00000  0.06993
       6     H     0.45030  0.45030  0.00000  0.09941
       7     O     4.17895  4.17895  0.00000 -0.35790
       8     H     0.46758  0.46758  0.00000  0.06483
       9     H     0.46260  0.46260  0.00000  0.07480
      10     C     3.03640  3.03640  0.00000 -0.07280
      11     H     0.47016  0.47016  0.00000  0.05967
      12     H     0.44177  0.44177  0.00000  0.11647
      13     H     0.46941  0.46941  0.00000  0.06118

   Total alpha = 21.00000, Total beta = 21.00000, Total charge = -0.00000
