                              Psi4 1.0.54 Driver

  ==> Input File <==

--------------------------------------------------------------------------
set {
	reference rhf
	basis cc-pvtz
}

set_num_threads( 4 )
memory 2 gb

molecule MOL {
0 1

H	 2.239939	 -3.436249	 -1.286393
C	 2.354848	 -2.528995	 -0.705191
C	 1.097634	 -1.669306	 -0.775899
H	 2.574385	 -2.818243	 0.317148
H	 3.218877	 -1.997849	 -1.090359
C	 1.215950	 -0.382441	 0.027187
H	 0.242753	 -2.228206	 -0.411789
H	 0.887232	 -1.424277	 -1.814296
N	 0.000002	 0.398953	 -0.040851
H	 1.401453	 -0.626035	 1.069022
H	 2.088311	 0.180811	 -0.317510
C	 -1.215959	 -0.382435	 0.027143
H	 -0.000012	 1.086078	 0.683841
C	 -2.451944	 0.502410	 -0.038737
H	 -1.221867	 -1.069392	 -0.813828
H	 -1.259993	 -0.999709	 0.929424
C	 -3.752217	 -0.292550	 0.005776
H	 -2.407325	 1.093801	 -0.946480
H	 -2.431979	 1.206234	 0.790023
H	 -3.817783	 -0.982946	 -0.828547
H	 -4.612613	 0.364348	 -0.042306
H	 -3.830160	 -0.871666	 0.919868

	symmetry c1
}
set optking {
	frozen_dihedral = ("
		10 6 9 12
	")
}

ee,wfn = optimize('scf', return_wfn=True)
oeprop( wfn, 'DIPOLE', 'QUADRUPOLE', 'MULLIKEN_CHARGES')
f=open( 'psi4out.xyz', 'w' )
f.write( "22  " )
f.write( str(ee) + "\n" )
f.write( MOL.save_string_xyz() )
f.close()
--------------------------------------------------------------------------

    Molecular point group: c1
  Charge       = 0
  Multiplicity = 1
  Basis Set: CC-PVTZ
  Basis Set:
  @DF-RHF Final Energy:  -290.47881890382655
    Total Energy =                       -290.4788189038267774
    Molecular point group: c1
  Basis Set: CC-PVTZ
  Basis Set:
  Basis Set: CC-PVTZ
  Basis Set:
  @DF-RHF Final Energy:  -290.31184624298578
    Total Energy =                       -290.3118462429857800
  Basis Set: CC-PVTZ
  Basis Set:
  Basis Set: CC-PVTZ
  Basis Set:
  @DF-RHF Final Energy:  -290.42808528281682
    Total Energy =                       -290.4280852828167667
  Basis Set: CC-PVTZ
  Basis Set:
  Basis Set: CC-PVTZ
  Basis Set:
  @DF-RHF Final Energy:  -290.48050642155800
    Total Energy =                       -290.4805064215579478
  Basis Set: CC-PVTZ
  Basis Set:
  @DF-RHF Final Energy:  -290.48439921154375
    Total Energy =                       -290.4843992115435185
  Basis Set: CC-PVTZ
  Basis Set:
  @DF-RHF Final Energy:  -290.48468924694242
    Total Energy =                       -290.4846892469423665
  Basis Set: CC-PVTZ
  Basis Set:
  Basis Set: CC-PVTZ
  Basis Set:
  @DF-RHF Final Energy:  -290.48472246124993
    Total Energy =                       -290.4847224612503283
  Basis Set: CC-PVTZ
  Basis Set:
  Basis Set: CC-PVTZ
  Basis Set:
  @DF-RHF Final Energy:  -290.48472728250704
    Total Energy =                       -290.4847272825068671
  Basis Set: CC-PVTZ
  Basis Set:
  Charge       = 0
  Multiplicity = 1
  Basis Set: CC-PVTZ
  Basis Set:

    Orbital Energies (a.u.)
    -----------------------

    Doubly Occupied:

       1A    -15.525371     2A    -11.236611     3A    -11.235030
       4A    -11.212253     5A    -11.211864     6A    -11.207591
       7A    -11.207408     8A     -1.202443     9A     -1.058410
      10A     -1.028790    11A     -0.929845    12A     -0.875409
      13A     -0.813751    14A     -0.781167    15A     -0.661113
      16A     -0.637566    17A     -0.622572    18A     -0.612260
      19A     -0.570957    20A     -0.554745    21A     -0.550733
      22A     -0.527693    23A     -0.504475    24A     -0.487147
      25A     -0.478824    26A     -0.472628    27A     -0.462142
      28A     -0.461629    29A     -0.353342

  @DF-RHF Final Energy:  -290.48472788493774

   => Energetics <=

    Nuclear Repulsion Energy =            318.5210780692272579
    One-Electron Energy =               -1023.0440725175041052
    Two-Electron Energy =                 414.0382665633391071
    DFT Exchange-Correlation Energy =       0.0000000000000000
    Empirical Dispersion Energy =           0.0000000000000000
    PCM Polarization Energy =               0.0000000000000000
    EFP Energy =                            0.0000000000000000
    Total Energy =                       -290.4847278849377972
    Molecular point group: c1
  Basis Set: CC-PVTZ
  Basis Set:

  -Total Gradient:
     Atom            X                  Y                   Z
    ------   -----------------  -----------------  -----------------
       1        0.000008480874     0.000017332326     0.000015758476
       2       -0.000043134184    -0.000001874351    -0.000004806453
       3        0.000060332197     0.000011424443    -0.000005216572
       4        0.000009621912    -0.000008266063    -0.000002579928
       5       -0.000028572168    -0.000000662197     0.000005451641
       6       -0.005299729117    -0.005718603782    -0.000473568634
       7        0.000022040698     0.000004934890    -0.000005854260
       8        0.000007959754     0.000003586626    -0.000006072665
       9        0.001097480795     0.004415137855     0.005230441286
      10        0.004148325390     0.003593562633    -0.001029212480
      11       -0.000005619449    -0.000010375136     0.000018295756
      12        0.000011518462    -0.002291333848    -0.003741274527
      13       -0.000015825600    -0.000005585725     0.000004216535
      14        0.000011464723    -0.000020856458     0.000011317754
      15       -0.000002950586     0.000014774544     0.000006563035
      16        0.000011364402     0.000014095087    -0.000032478521
      17       -0.000009011187     0.000015064127    -0.000002134064
      18       -0.000015108398    -0.000004771796     0.000037512686
      19        0.000009013609    -0.000008874107    -0.000006388323
      20       -0.000006823441    -0.000001370720     0.000007152321
      21        0.000012455937    -0.000026702257     0.000020019866
      22        0.000016715379     0.000009363905    -0.000047142929

  **** Optimization is complete! (in 9 steps) ****
    Final optimized geometry and variables:
    Molecular point group: c1

    Geometry (in Angstrom), charge = 0, multiplicity = 1:

    H            2.122610346103    -3.562466316615     0.436496727240
    C            2.355140745971    -2.521336178481     0.626333009545
    C            1.227761404394    -1.612871499472     0.146698428907
    H            2.522793077352    -2.410538845240     1.692534682971
    H            3.286630238346    -2.292806903033     0.119932238187
    C            1.527649890814    -0.146296066775     0.419761358346
    H            0.305241076805    -1.907459262341     0.633928944474
    H            1.077166252703    -1.747316576777    -0.919805936302
    N            0.580662900191     0.784604794379    -0.169980387438
    H            1.650120764116     0.017331650399     1.494231923648
    H            2.498689437067     0.080446783423    -0.011369056602
    C           -0.830791340273     0.504394431778    -0.016447858068
    H            0.784696215340     1.710265779980     0.136901112178
    C           -1.670026076118     1.642154556311    -0.580270562334
    H           -1.069774881890    -0.404814258901    -0.553800958089
    H           -1.116240429538     0.334834670522     1.026814845276
    C           -3.168238027021     1.377313865346    -0.483008744975
    H           -1.386902436159     1.801642178659    -1.614949108012
    H           -1.432157640955     2.560581540953    -0.048629453142
    H           -3.444455432895     0.483740635106    -1.032706698520
    H           -3.737455014534     2.203968887170    -0.891344057656
    H           -3.478890965281     1.240209669076     0.547278732822

  Mulliken Charges: (a.u.)
   Center  Symbol    Alpha    Beta     Spin     Total
       1     H     0.44768  0.44768  0.00000  0.10464
       2     C     3.15231  3.15231  0.00000 -0.30461
       3     C     3.09094  3.09094  0.00000 -0.18187
       4     H     0.45577  0.45577  0.00000  0.08845
       5     H     0.45382  0.45382  0.00000  0.09235
       6     C     3.02760  3.02760  0.00000 -0.05521
       7     H     0.45179  0.45179  0.00000  0.09642
       8     H     0.44903  0.44903  0.00000  0.10194
       9     N     3.64270  3.64270  0.00000 -0.28539
      10     H     0.46955  0.46955  0.00000  0.06090
      11     H     0.45763  0.45763  0.00000  0.08475
      12     C     3.02211  3.02211  0.00000 -0.04423
      13     H     0.44278  0.44278  0.00000  0.11445
      14     C     3.08417  3.08417  0.00000 -0.16835
      15     H     0.45693  0.45693  0.00000  0.08614
      16     H     0.47548  0.47548  0.00000  0.04904
      17     C     3.15321  3.15321  0.00000 -0.30641
      18     H     0.44902  0.44902  0.00000  0.10195
      19     H     0.45904  0.45904  0.00000  0.08192
      20     H     0.45487  0.45487  0.00000  0.09025
      21     H     0.44768  0.44768  0.00000  0.10465
      22     H     0.45589  0.45589  0.00000  0.08822

   Total alpha = 29.00000, Total beta = 29.00000, Total charge = -0.00000

*** Psi4 exiting successfully. Buy a developer a beer!
