                              Psi4 1.0.54 Driver

  ==> Input File <==

--------------------------------------------------------------------------
set {
	reference rhf
	basis cc-pvtz
}

set_num_threads( 4 )
memory 2 gb

molecule MOL {
0 1

H	 2.614283	 2.028610	 0.296620
O	 3.358864	 1.662087	 -0.142800
C	 3.565468	 0.338079	 0.273842
C	 2.533667	 -0.637565	 -0.272227
H	 4.548038	 0.064914	 -0.086598
H	 3.593945	 0.282242	 1.360360
C	 1.114816	 -0.402372	 0.240993
H	 2.544552	 -0.580764	 -1.356576
H	 2.850574	 -1.642962	 -0.005497
C	 1.077787	 0.458508	 1.502877
H	 0.643061	 -1.358452	 0.441897
H	 0.525692	 0.079994	 -0.537173
C	 -0.323897	 0.788010	 2.019564
H	 1.642900	 -0.036172	 2.289113
H	 1.596618	 1.391210	 1.299532
C	 -1.114396	 -0.406283	 2.551089
H	 -0.230050	 1.521752	 2.815393
H	 -0.892630	 1.272554	 1.229048
C	 -2.464230	 -0.012380	 3.145394
H	 -0.525018	 -0.916347	 3.309995
H	 -1.278961	 -1.128640	 1.757288
C	 -3.257718	 -1.202859	 3.673628
H	 -2.307540	 0.700986	 3.949841
H	 -3.051021	 0.504841	 2.390926
H	 -2.710841	 -1.722773	 4.453276
H	 -4.207777	 -0.888332	 4.090243
H	 -3.463904	 -1.917781	 2.883865

	symmetry c1
}
set optking {
	frozen_dihedral = ("
		10 7 4 8
	")
}

ee,wfn = optimize('scf', return_wfn=True)
oeprop( wfn, 'DIPOLE', 'QUADRUPOLE', 'MULLIKEN_CHARGES')
f=open( 'psi4out.xyz', 'w' )
f.write( "27  " )
f.write( str(ee) + "\n" )
f.write( MOL.save_string_xyz() )
f.close()
--------------------------------------------------------------------------

    Molecular point group: c1
  Charge       = 0
  Multiplicity = 1
  Basis Set: CC-PVTZ
  Basis Set:
  @DF-RHF Final Energy:  -388.41118912714444
    Total Energy =                       -388.4111891271451213
    Molecular point group: c1
  Basis Set: CC-PVTZ
  Basis Set:
  Basis Set: CC-PVTZ
  Basis Set:
  @DF-RHF Final Energy:  -388.35635906441848
    Total Energy =                       -388.3563590644180294
  Basis Set: CC-PVTZ
  Basis Set:
  Basis Set: CC-PVTZ
  Basis Set:
  @DF-RHF Final Energy:  -388.41434939157466
    Total Energy =                       -388.4143493915744330
  Basis Set: CC-PVTZ
  Basis Set:
  Basis Set: CC-PVTZ
  Basis Set:
  @DF-RHF Final Energy:  -388.41853748751925
    Total Energy =                       -388.4185374875195293
  Basis Set: CC-PVTZ
  Basis Set:
  @DF-RHF Final Energy:  -388.41875922565038
    Total Energy =                       -388.4187592256500920
  Basis Set: CC-PVTZ
  Basis Set:
  @DF-RHF Final Energy:  -388.41878272955699
    Total Energy =                       -388.4187827295568241
  Basis Set: CC-PVTZ
  Basis Set:
  Basis Set: CC-PVTZ
  Basis Set:
  @DF-RHF Final Energy:  -388.41878560776468
    Total Energy =                       -388.4187856077644483
  Basis Set: CC-PVTZ
  Basis Set:
  Basis Set: CC-PVTZ
  Basis Set:
  @DF-RHF Final Energy:  -388.41879918278926
    Total Energy =                       -388.4187991827894848
  Basis Set: CC-PVTZ
  Basis Set:
  Charge       = 0
  Multiplicity = 1
  Basis Set: CC-PVTZ
  Basis Set:

    Orbital Energies (a.u.)
    -----------------------

    Doubly Occupied:

       1A    -20.543645     2A    -11.263027     3A    -11.220830
       4A    -11.217430     5A    -11.216535     6A    -11.215268
       7A    -11.214051     8A    -11.213711     9A    -11.208318
      10A     -1.361512    11A     -1.097291    12A     -1.060694
      13A     -1.012588    14A     -0.948977    15A     -0.894583
      16A     -0.830103    17A     -0.800129    18A     -0.774317
      19A     -0.690915    20A     -0.653537    21A     -0.645276
      22A     -0.612685    23A     -0.603205    24A     -0.581633
      25A     -0.572845    26A     -0.567740    27A     -0.543676
      28A     -0.529003    29A     -0.521793    30A     -0.496346
      31A     -0.482506    32A     -0.471928    33A     -0.465567
      34A     -0.462468    35A     -0.454999    36A     -0.441557
      37A     -0.424857

  @DF-RHF Final Energy:  -388.41879996537375

   => Energetics <=

    Nuclear Repulsion Energy =            464.8570781198985742
    One-Electron Energy =               -1447.9206599591204849
    Two-Electron Energy =                 594.6447818738483875
    DFT Exchange-Correlation Energy =       0.0000000000000000
    Empirical Dispersion Energy =           0.0000000000000000
    PCM Polarization Energy =               0.0000000000000000
    EFP Energy =                            0.0000000000000000
    Total Energy =                       -388.4187999653735233
    Molecular point group: c1
  Basis Set: CC-PVTZ
  Basis Set:

  -Total Gradient:
     Atom            X                  Y                   Z
    ------   -----------------  -----------------  -----------------
       1        0.000060447357     0.000007840971    -0.000005755426
       2       -0.000101581098    -0.000015684098     0.000005529089
       3        0.000001847440    -0.000037228544     0.000001091923
       4       -0.000394671507    -0.006556160635    -0.000607698864
       5        0.000011349127    -0.000039596453     0.000025611628
       6       -0.000020722937     0.000023612772     0.000015037414
       7        0.002277842546    -0.003550049922     0.004638557285
       8       -0.000290201231     0.006664390972    -0.000771840664
       9       -0.000004527848     0.000032273954     0.000018144511
      10       -0.001558360953     0.003492802493    -0.003334563489
      11        0.000005524640    -0.000011262707     0.000013387751
      12        0.000010771795     0.000007632122     0.000020127432
      13       -0.000020835175     0.000016538031    -0.000042118531
      14       -0.000025379307    -0.000003122270     0.000002944309
      15       -0.000006272977    -0.000026523164     0.000003386764
      16        0.000036051385     0.000007546924     0.000049596309
      17        0.000012380401    -0.000004420203    -0.000001058678
      18        0.000006143741     0.000016318939     0.000025609585
      19       -0.000024350170    -0.000023686932    -0.000035858636
      20       -0.000015507535     0.000005778853    -0.000011172425
      21        0.000007357103    -0.000015834587    -0.000002770644
      22        0.000027121891    -0.000002622088     0.000007715411
      23        0.000014121098     0.000001703912    -0.000003631831
      24        0.000006912094     0.000008296439     0.000014219118
      25       -0.000002437066     0.000001937619    -0.000011672304
      26       -0.000002251027    -0.000001860941    -0.000020267814
      27       -0.000010771787     0.000001378549     0.000007450777

  **** Optimization is complete! (in 9 steps) ****
    Final optimized geometry and variables:
    Molecular point group: c1

    Geometry (in Angstrom), charge = 0, multiplicity = 1:

    H            1.533187339775     2.218999605341    -2.047519820507
    O            2.342148053862     1.901837754658    -2.402274605045
    C            2.818105148447     0.815721930131    -1.649474684812
    C            1.950708111228    -0.432224853755    -1.777628091465
    H            3.797988455521     0.595685166902    -2.051228803506
    H            2.957481933850     1.102107358457    -0.611815167567
    C            0.563707100912    -0.412641205326    -1.089435910744
    H            1.807414221301    -0.559590580719    -2.844559906762
    H            2.529879566926    -1.273239710372    -1.411380416074
    C            0.360176807662     0.589434612132     0.049949538729
    H            0.350572221055    -1.412235342557    -0.733051471626
    H           -0.192775443622    -0.203782290699    -1.840646812442
    C           -1.044149820136     0.559867146838     0.659602192930
    H            1.089234208210     0.415588477395     0.837427798954
    H            0.542698306794     1.598068752503    -0.305252975453
    C           -1.382795467433    -0.705086019244     1.446366876940
    H           -1.144477874127     1.414165367504     1.323268313111
    H           -1.780179899885     0.701864477629    -0.128280122290
    C           -2.755155655182    -0.642787115966     2.112057017501
    H           -0.623356052985    -0.865762414961     2.208460228225
    H           -1.349451434234    -1.572426137447     0.794787912281
    C           -3.099247823278    -1.905160704163     2.895388127270
    H           -2.792771428016     0.215197517691     2.777641399449
    H           -3.514100970875    -0.472240476001     1.353332668969
    H           -2.376357035502    -2.085656006369     3.684075218042
    H           -4.077559525113    -1.827447588707     3.355585852287
    H           -3.106384762274    -2.777049843369     2.249704753983

  Mulliken Charges: (a.u.)
   Center  Symbol    Alpha    Beta     Spin     Total
       1     H     0.39183  0.39183  0.00000  0.21634
       2     O     4.20912  4.20912  0.00000 -0.41823
       3     C     2.98267  2.98267  0.00000  0.03466
       4     C     3.09776  3.09776  0.00000 -0.19553
       5     H     0.44355  0.44355  0.00000  0.11289
       6     H     0.46698  0.46698  0.00000  0.06605
       7     C     3.10862  3.10862  0.00000 -0.21724
       8     H     0.44782  0.44782  0.00000  0.10435
       9     H     0.45276  0.45276  0.00000  0.09448
      10     C     3.10906  3.10906  0.00000 -0.21812
      11     H     0.44523  0.44523  0.00000  0.10954
      12     H     0.44838  0.44838  0.00000  0.10323
      13     C     3.09850  3.09850  0.00000 -0.19701
      14     H     0.44940  0.44940  0.00000  0.10121
      15     H     0.45116  0.45116  0.00000  0.09768
      16     C     3.08759  3.08759  0.00000 -0.17518
      17     H     0.44770  0.44770  0.00000  0.10461
      18     H     0.45277  0.45277  0.00000  0.09447
      19     C     3.08473  3.08473  0.00000 -0.16946
      20     H     0.45499  0.45499  0.00000  0.09002
      21     H     0.45312  0.45312  0.00000  0.09377
      22     C     3.14973  3.14973  0.00000 -0.29946
      23     H     0.45385  0.45385  0.00000  0.09230
      24     H     0.45418  0.45418  0.00000  0.09164
      25     H     0.45514  0.45514  0.00000  0.08973
      26     H     0.44808  0.44808  0.00000  0.10384
      27     H     0.45529  0.45529  0.00000  0.08942

   Total alpha = 37.00000, Total beta = 37.00000, Total charge =  0.00000

*** Psi4 exiting successfully. Buy a developer a beer!
