                              Psi4 1.0.54 Driver

  ==> Input File <==

--------------------------------------------------------------------------
set {
	reference rhf
	basis cc-pvtz
}

set_num_threads( 4 )
memory 2 gb

molecule MOL {
0 1

H	 -3.436473	 1.252944	 -1.023892
O	 -3.458596	 0.315260	 -0.960865
C	 -3.176635	 -0.080824	 0.355601
C	 -1.763371	 0.265266	 0.799691
H	 -3.321825	 -1.153438	 0.379502
H	 -3.895468	 0.357385	 1.043382
C	 -0.673390	 -0.426948	 -0.013392
H	 -1.631049	 1.344913	 0.747560
H	 -1.664587	 -0.001624	 1.849167
C	 0.737842	 -0.043159	 0.423759
H	 -0.806103	 -0.190518	 -1.063345
H	 -0.797221	 -1.503753	 0.074146
C	 1.824000	 -0.743224	 -0.390623
H	 0.850588	 1.033777	 0.343840
H	 0.868587	 -0.286314	 1.476203
C	 1.504455	 -2.186623	 -0.783483
H	 2.758323	 -0.722651	 0.165674
H	 2.000243	 -0.171145	 -1.297422
C	 1.419530	 -3.162971	 0.387276
H	 2.271540	 -2.533087	 -1.469281
H	 0.570464	 -2.208509	 -1.339002
H	 2.338252	 -3.158265	 0.965208
H	 1.258707	 -4.174849	 0.033042
H	 0.605056	 -2.921034	 1.059364

	symmetry c1
}
set optking {
	frozen_dihedral = ("
		17 13 10 7
	")
}

ee,wfn = optimize('scf', return_wfn=True)
oeprop( wfn, 'DIPOLE', 'QUADRUPOLE', 'MULLIKEN_CHARGES')
f=open( 'psi4out.xyz', 'w' )
f.write( "24  " )
f.write( str(ee) + "\n" )
f.write( MOL.save_string_xyz() )
f.close()
--------------------------------------------------------------------------

    Molecular point group: c1
  Charge       = 0
  Multiplicity = 1
  Basis Set: CC-PVTZ
  Basis Set:
  @DF-RHF Final Energy:  -349.37393626178095
    Total Energy =                       -349.3739362617806137
    Molecular point group: c1
  Basis Set: CC-PVTZ
  Basis Set:
  Basis Set: CC-PVTZ
  Basis Set:
  @DF-RHF Final Energy:  -349.33499693377240
    Total Energy =                       -349.3349969337725156
  Basis Set: CC-PVTZ
  Basis Set:
  Basis Set: CC-PVTZ
  Basis Set:
  @DF-RHF Final Energy:  -349.37366209268663
    Total Energy =                       -349.3736620926865726
  Basis Set: CC-PVTZ
  Basis Set:
  Basis Set: CC-PVTZ
  Basis Set:
  @DF-RHF Final Energy:  -349.37593491376697
    Total Energy =                       -349.3759349137670824
  Basis Set: CC-PVTZ
  Basis Set:
  @DF-RHF Final Energy:  -349.37606273936058
    Total Energy =                       -349.3760627393605205
  Basis Set: CC-PVTZ
  Basis Set:
  @DF-RHF Final Energy:  -349.37613420584347
    Total Energy =                       -349.3761342058433002
  Basis Set: CC-PVTZ
  Basis Set:
  Basis Set: CC-PVTZ
  Basis Set:
  @DF-RHF Final Energy:  -349.37613956168860
    Total Energy =                       -349.3761395616887739
  Basis Set: CC-PVTZ
  Basis Set:
  Basis Set: CC-PVTZ
  Basis Set:
  @DF-RHF Final Energy:  -349.37614158693282
    Total Energy =                       -349.3761415869328175
  Basis Set: CC-PVTZ
  Basis Set:
  Charge       = 0
  Multiplicity = 1
  Basis Set: CC-PVTZ
  Basis Set:

    Orbital Energies (a.u.)
    -----------------------

    Doubly Occupied:

       1A    -20.546393     2A    -11.265641     3A    -11.215322
       4A    -11.211007     5A    -11.210409     6A    -11.209850
       7A    -11.208879     8A    -11.204950     9A     -1.364259
      10A     -1.089462    11A     -1.047031    12A     -0.984310
      13A     -0.918488    14A     -0.853418    15A     -0.811535
      16A     -0.760138    17A     -0.683005    18A     -0.654374
      19A     -0.622707    20A     -0.620610    21A     -0.612469
      22A     -0.576507    23A     -0.554243    24A     -0.545326
      25A     -0.521473    26A     -0.511818    27A     -0.495039
      28A     -0.478519    29A     -0.469641    30A     -0.461836
      31A     -0.449265    32A     -0.443957    33A     -0.422913

  @DF-RHF Final Energy:  -349.37614171444375

   => Energetics <=

    Nuclear Repulsion Energy =            393.7819930745448573
    One-Electron Energy =               -1254.2666750072573905
    Two-Electron Energy =                 511.1085402182690700
    DFT Exchange-Correlation Energy =       0.0000000000000000
    Empirical Dispersion Energy =           0.0000000000000000
    PCM Polarization Energy =               0.0000000000000000
    EFP Energy =                            0.0000000000000000
    Total Energy =                       -349.3761417144434631
    Molecular point group: c1
  Basis Set: CC-PVTZ
  Basis Set:

  -Total Gradient:
     Atom            X                  Y                   Z
    ------   -----------------  -----------------  -----------------
       1       -0.000003311017    -0.000009737084     0.000001243552
       2        0.000000473585     0.000025433241     0.000005699506
       3       -0.000002112771    -0.000027131432     0.000005457357
       4        0.000004891789     0.000011688099    -0.000000617331
       5       -0.000001075335     0.000008164108     0.000001742596
       6        0.000008762197    -0.000007162531    -0.000006267847
       7       -0.000539357359    -0.002646747252     0.003807237739
       8        0.000000031128    -0.000008687829     0.000002633864
       9       -0.000003626417     0.000004318571    -0.000010440776
      10        0.000304806211     0.002818499253    -0.004680242130
      11       -0.000000828188    -0.000001753350     0.000010483284
      12        0.000006957217     0.000012366282    -0.000003179470
      13        0.002354259377     0.004297618143    -0.002899967190
      14       -0.000005952677    -0.000003756429    -0.000000143838
      15        0.000009532483    -0.000000799305     0.000001264063
      16        0.000001065800    -0.000000853014     0.000013588106
      17       -0.002122353841    -0.004469101352     0.003762785046
      18       -0.000004610770     0.000007078391     0.000003311294
      19       -0.000004452980     0.000005324318    -0.000016037849
      20        0.000011903667    -0.000006428319    -0.000004801823
      21       -0.000013766038    -0.000004253451    -0.000003965413
      22        0.000017146826     0.000004236155     0.000006024808
      23       -0.000003644171    -0.000016047272    -0.000002713272
      24       -0.000014738720     0.000007732062     0.000006905719

  **** Optimization is complete! (in 9 steps) ****
    Final optimized geometry and variables:
    Molecular point group: c1

    Geometry (in Angstrom), charge = 0, multiplicity = 1:

    H           -2.667701187156     1.862624446335    -1.801596939690
    O           -2.824514065385     1.010899046124    -1.436014821067
    C           -2.649267151044     1.050063953220    -0.044262246820
    C           -1.219010022577     1.354471389613     0.375139834523
    H           -2.943774129040     0.073332632678     0.318308731241
    H           -3.324939908843     1.776244875204     0.400635268044
    C           -0.205701747794     0.306787692515    -0.078541411441
    H           -0.936989659633     2.331875076079    -0.012948684496
    H           -1.196955256965     1.441504967775     1.458947208691
    C            1.218984807326     0.647839950301     0.355794096352
    H           -0.254344207554     0.210789189414    -1.158235137252
    H           -0.498214246707    -0.655808174918     0.325713465837
    C            2.324006730547    -0.298164941952    -0.144200005765
    H            1.461796451539     1.655185530415     0.030739251319
    H            1.241970032374     0.677111581594     1.442273301331
    C            1.999294480460    -1.796298896024    -0.134884123446
    H            3.191433894862    -0.170338413279     0.497518655242
    H            2.614486900809    -0.013713284204    -1.150187373736
    C            1.801152895360    -2.382322670343     1.261169756528
    H            2.822771408356    -2.317930635263    -0.613315013324
    H            1.125500753498    -1.998303172886    -0.744355225744
    H            2.686349870495    -2.235273697128     1.871771125758
    H            1.609952372123    -3.448221374307     1.210462453579
    H            0.966844812613    -1.925429183553     1.780437923252

  Mulliken Charges: (a.u.)
   Center  Symbol    Alpha    Beta     Spin     Total
       1     H     0.39516  0.39516  0.00000  0.20968
       2     O     4.20392  4.20392  0.00000 -0.40784
       3     C     2.97727  2.97727  0.00000  0.04546
       4     C     3.10479  3.10479  0.00000 -0.20959
       5     H     0.45897  0.45897  0.00000  0.08205
       6     H     0.46013  0.46013  0.00000  0.07974
       7     C     3.09042  3.09042  0.00000 -0.18083
       8     H     0.45783  0.45783  0.00000  0.08435
       9     H     0.45312  0.45312  0.00000  0.09375
      10     C     3.10687  3.10687  0.00000 -0.21375
      11     H     0.44471  0.44471  0.00000  0.11058
      12     H     0.45157  0.45157  0.00000  0.09685
      13     C     3.09702  3.09702  0.00000 -0.19404
      14     H     0.44563  0.44563  0.00000  0.10873
      15     H     0.45224  0.45224  0.00000  0.09553
      16     C     3.10050  3.10050  0.00000 -0.20100
      17     H     0.45157  0.45157  0.00000  0.09686
      18     H     0.44739  0.44739  0.00000  0.10522
      19     C     3.15070  3.15070  0.00000 -0.30141
      20     H     0.44436  0.44436  0.00000  0.11128
      21     H     0.44932  0.44932  0.00000  0.10135
      22     H     0.45417  0.45417  0.00000  0.09167
      23     H     0.44668  0.44668  0.00000  0.10664
      24     H     0.45564  0.45564  0.00000  0.08872

   Total alpha = 33.00000, Total beta = 33.00000, Total charge =  0.00000

*** Psi4 exiting successfully. Buy a developer a beer!
