  ==> Input File <==

--------------------------------------------------------------------------
set {
	reference rhf
	basis 6-31G*
}

set_num_threads( 4 )
memory 2 gb

molecule MOL {
0 1

H	 3.276176	 0.174363	 -0.109463
N	 2.434251	 -0.367735	 -0.081097
C	 1.267428	 0.496480	 0.024474
H	 2.501951	 -0.965776	 0.720575
C	 -0.016086	 -0.325158	 -0.029487
H	 1.288818	 1.183521	 -0.816092
H	 1.267576	 1.109062	 0.929528
C	 -1.282277	 0.529072	 0.046735
H	 -0.012495	 -0.908639	 -0.945788
H	 -0.015903	 -1.041248	 0.791956
C	 -2.560074	 -0.281753	 -0.166567
H	 -1.229419	 1.319102	 -0.699621
H	 -1.328832	 1.025742	 1.013745
H	 -2.560091	 -0.763018	 -1.140274
H	 -3.441243	 0.349726	 -0.109158
H	 -2.660707	 -1.059386	 0.585352

	symmetry c1
}
set optking {
	frozen_dihedral = ("
		12 8 5 9
	")
}

ee = optimize('scf')
oeprop('DIPOLE', 'QUADRUPOLE', 'MULLIKEN_CHARGES')
f=open( 'psi4out.xyz', 'w' )
f.write( "16  " )
f.write( str(ee) + "\n" )
f.write( MOL.save_string_xyz() )
f.close()
--------------------------------------------------------------------------

    Molecular point group: c1
  Charge       = 0
  Multiplicity = 1
  Basis Set: 6-31G*
  Basis Set:
  @DF-RHF Final Energy:  -212.31687108829453
    Total Energy =                       -212.3168710882945334
    Molecular point group: c1
  Basis Set: 6-31G*
  Basis Set:
  Basis Set: 6-31G*
  Basis Set:
  @DF-RHF Final Energy:  -212.31688666108653
    Total Energy =                       -212.3168866610864711
  Basis Set: 6-31G*
  Basis Set:
  Basis Set: 6-31G*
  Basis Set:
  @DF-RHF Final Energy:  -212.31689608456784
    Total Energy =                       -212.3168960845680431
  Basis Set: 6-31G*
  Basis Set:
  Charge       = 0
  Multiplicity = 1
  Basis Set: 6-31G*
  Basis Set:

    Orbital Energies (a.u.)
    -----------------------

    Doubly Occupied:

       1A    -15.532683     2A    -11.240019     3A    -11.215068
       4A    -11.209647     5A    -11.207968     6A     -1.176805
       7A     -1.059462     8A     -0.958737     9A     -0.843882
      10A     -0.792113    11A     -0.664249    12A     -0.635918
      13A     -0.607288    14A     -0.574414    15A     -0.564150
      16A     -0.526733    17A     -0.499169    18A     -0.470923
      19A     -0.464313    20A     -0.461619    21A     -0.381215

  @DF-RHF Final Energy:  -212.31689657456877

   => Energetics <=

    Nuclear Repulsion Energy =            186.2546025328380779
    One-Electron Energy =                -654.9702466733385791
    Two-Electron Energy =                 256.3987475659317283
    DFT Exchange-Correlation Energy =       0.0000000000000000
    Empirical Dispersion Energy =           0.0000000000000000
    PCM Polarization Energy =               0.0000000000000000
    EFP Energy =                            0.0000000000000000
    Total Energy =                       -212.3168965745687728
    Molecular point group: c1
  Basis Set: 6-31G*
  Basis Set:

  -Total Gradient:
     Atom            X                  Y                   Z
    ------   -----------------  -----------------  -----------------
       1        0.000004377715     0.000000947632    -0.000002333537
       2       -0.000007245448    -0.000005660384    -0.000002330730
       3       -0.000006323426     0.000012315114    -0.000022671168
       4       -0.000002750614    -0.000000082068     0.000001076194
       5        0.000820224082     0.001262246276    -0.000458392542
       6        0.000003181973     0.000010932716     0.000000126546
       7       -0.000014512126    -0.000019962645    -0.000004360154
       8       -0.000786167361    -0.001092136450    -0.000837520949
       9       -0.000539656772    -0.000868129833     0.000562175433
      10       -0.000007280593    -0.000023635418     0.000003873669
      11        0.000006076018     0.000001008314    -0.000014580186
      12        0.000505915609     0.000694307485     0.000770215783
      13        0.000007125947     0.000014663450     0.000004268623
      14       -0.000009044940     0.000003920596    -0.000005789202
      15        0.000006574784     0.000003542747     0.000010627867
      16        0.000019505154     0.000005722467    -0.000004385647

  **** Optimization is complete! (in 4 steps) ****
    Final optimized geometry and variables:
    Molecular point group: c1

    Geometry (in Angstrom), charge = 0, multiplicity = 1:

    H            3.277165351864     0.167707636023    -0.055734053027
    N            2.434299800941    -0.373225648727    -0.033488232991
    C            1.267453814706     0.492844593873     0.054359084153
    H            2.492468517788    -0.966957057282     0.772063463027
    C           -0.015950139196    -0.327131942492    -0.011533237971
    H            1.299666860932     1.176285207784    -0.788679192033
    H            1.257203179740     1.109325730285     0.956794899023
    C           -1.283460944327     0.525110758278     0.071398957213
    H           -0.012465825131    -0.909066622359    -0.928846787791
    H           -0.019484086002    -1.049958557563     0.804212604832
    C           -2.562432956227    -0.287137201154    -0.125411749350
    H           -1.237038227953     1.318337839276    -0.672143718024
    H           -1.319625425853     1.023713345711     1.038021952516
    H           -2.579573949445    -0.759428637354    -1.103296469559
    H           -3.444118448769     0.341132421444    -0.045006081304
    H           -2.646252091333    -1.071985940057     0.621111670367

  Mulliken Charges: (a.u.)
   Center  Symbol    Alpha    Beta     Spin     Total
       1     H     0.33246  0.33246  0.00000  0.33507
       2     N     3.92177  3.92177  0.00000 -0.84355
       3     C     3.06046  3.06046  0.00000 -0.12092
       4     H     0.33530  0.33530  0.00000  0.32940
       5     C     3.15028  3.15028  0.00000 -0.30056
       6     H     0.42073  0.42073  0.00000  0.15855
       7     H     0.43478  0.43478  0.00000  0.13044
       8     C     3.15566  3.15566  0.00000 -0.31132
       9     H     0.41358  0.41358  0.00000  0.17285
      10     H     0.42786  0.42786  0.00000  0.14428
      11     C     3.23866  3.23866  0.00000 -0.47732
      12     H     0.42290  0.42290  0.00000  0.15419
      13     H     0.42367  0.42367  0.00000  0.15265
      14     H     0.42042  0.42042  0.00000  0.15915
      15     H     0.41963  0.41963  0.00000  0.16075
      16     H     0.42183  0.42183  0.00000  0.15634

   Total alpha = 21.00000, Total beta = 21.00000, Total charge = -0.00000
