  ==> Input File <==

--------------------------------------------------------------------------
set {
	reference rhf
	basis 6-31G*
}

set_num_threads( 4 )
memory 2 gb

molecule MOL {
0 1

H	 -3.892951	 0.981613	 -0.358725
C	 -3.196921	 0.361773	 0.172313
C	 -2.076860	 -0.007332	 -0.404944
H	 -3.439953	 0.057760	 1.173024
O	 -1.180634	 -0.819263	 0.215062
H	 -1.811520	 0.292194	 -1.403480
C	 0.051604	 -1.018856	 -0.387932
C	 1.043764	 0.054862	 -0.001873
H	 -0.017620	 -1.041351	 -1.469781
H	 0.437898	 -1.966374	 -0.042284
F	 0.439840	 0.963142	 0.750530
F	 2.053379	 -0.438025	 0.696389
F	 1.544562	 0.667614	 -1.054549

	symmetry c1
}
set optking {
	frozen_dihedral = ("
		11 8 7 9
	")
}

ee = optimize('scf')
oeprop('DIPOLE', 'QUADRUPOLE', 'MULLIKEN_CHARGES')
f=open( 'psi4out.xyz', 'w' )
f.write( "13  " )
f.write( str(ee) + "\n" )
f.write( MOL.save_string_xyz() )
f.close()
--------------------------------------------------------------------------

    Molecular point group: c1
  Charge       = 0
  Multiplicity = 1
  Basis Set: 6-31G*
  Basis Set:
  @DF-RHF Final Energy:  -527.52764180680708
    Total Energy =                       -527.5276418068071962
    Molecular point group: c1
  Basis Set: 6-31G*
  Basis Set:
  Basis Set: 6-31G*
  Basis Set:
  @DF-RHF Final Energy:  -527.52880206261739
    Total Energy =                       -527.5288020626177286
  Basis Set: 6-31G*
  Basis Set:
  Basis Set: 6-31G*
  Basis Set:
  @DF-RHF Final Energy:  -527.52916449620375
    Total Energy =                       -527.5291644962038617
  Basis Set: 6-31G*
  Basis Set:
  Basis Set: 6-31G*
  Basis Set:
  @DF-RHF Final Energy:  -527.52919677166119
    Total Energy =                       -527.5291967716610770
  Basis Set: 6-31G*
  Basis Set:
  @DF-RHF Final Energy:  -527.52920123788101
    Total Energy =                       -527.5292012378813524
  Basis Set: 6-31G*
  Basis Set:
  @DF-RHF Final Energy:  -527.52920438705337
    Total Energy =                       -527.5292043870532552
  Basis Set: 6-31G*
  Basis Set:
  Basis Set: 6-31G*
  Basis Set:
  @DF-RHF Final Energy:  -527.52920986227696
    Total Energy =                       -527.5292098622768435
  Basis Set: 6-31G*
  Basis Set:
  Basis Set: 6-31G*
  Basis Set:
  @DF-RHF Final Energy:  -527.52921243901756
    Total Energy =                       -527.5292124390177833
  Basis Set: 6-31G*
  Basis Set:
  Charge       = 0
  Multiplicity = 1
  Basis Set: 6-31G*
  Basis Set:

    Orbital Energies (a.u.)
    -----------------------

    Doubly Occupied:

       1A    -26.343487     2A    -26.342227     3A    -26.341330
       4A    -20.607383     5A    -11.504983     6A    -11.318638
       7A    -11.299565     8A    -11.216444     9A     -1.742141
      10A     -1.639775    11A     -1.637141    12A     -1.437876
      13A     -1.080146    14A     -1.015034    15A     -0.925628
      16A     -0.837259    17A     -0.829539    18A     -0.821551
      19A     -0.789362    20A     -0.724818    21A     -0.715656
      22A     -0.695021    23A     -0.674401    24A     -0.660387
      25A     -0.654780    26A     -0.642194    27A     -0.626471
      28A     -0.584450    29A     -0.562082    30A     -0.524951
      31A     -0.511606    32A     -0.351793

  @DF-RHF Final Energy:  -527.52921277814210

   => Energetics <=

    Nuclear Repulsion Energy =            412.6503810070893223
    One-Electron Energy =               -1549.0429515578566679
    Two-Electron Energy =                 608.8633577726252497
    DFT Exchange-Correlation Energy =       0.0000000000000000
    Empirical Dispersion Energy =           0.0000000000000000
    PCM Polarization Energy =               0.0000000000000000
    EFP Energy =                            0.0000000000000000
    Total Energy =                       -527.5292127781419822
    Molecular point group: c1
  Basis Set: 6-31G*
  Basis Set:

  -Total Gradient:
     Atom            X                  Y                   Z
    ------   -----------------  -----------------  -----------------
       1       -0.000015420792    -0.000026577713    -0.000019149373
       2       -0.000010199411     0.000011645633    -0.000000928674
       3        0.000093801401     0.000083907063     0.000094057735
       4       -0.000000637417    -0.000004882943    -0.000003202400
       5       -0.000068360870    -0.000035580591    -0.000040235596
       6       -0.000019505645    -0.000027205288    -0.000022730531
       7       -0.000423927066     0.000378694740     0.000130565704
       8       -0.000056553001     0.000119142904    -0.000492183041
       9        0.000389320651    -0.000368122430     0.000011045724
      10       -0.000005570813    -0.000006932032    -0.000000745864
      11        0.000135562540    -0.000224083191     0.000368758054
      12       -0.000030480850     0.000036821298     0.000009344681
      13        0.000011971280     0.000063172553    -0.000034596418

  **** Optimization is complete! (in 9 steps) ****
    Final optimized geometry and variables:
    Molecular point group: c1

    Geometry (in Angstrom), charge = 0, multiplicity = 1:

    H           -3.891962815871     0.996809782576    -0.343052548489
    C           -3.244437859300     0.304782314321     0.159383795868
    C           -2.054799566649     0.045553962327    -0.332108082604
    H           -3.590755721395    -0.158044061561     1.064385788316
    O           -1.204369830803    -0.831825156432     0.261203320353
    H           -1.689360584895     0.503174290455    -1.235285367135
    C            0.026108259513    -1.040801719956    -0.339328714454
    C            1.049773963526     0.057844958602    -0.018541809554
    H           -0.058141776938    -1.118296942289    -1.416765850285
    H            0.410009780740    -1.972551999892     0.045914766743
    F            0.532842115565     1.038375214654     0.689607742186
    F            2.076410280681    -0.430397159779     0.658663634208
    F            1.540216570842     0.584701777426    -1.133055143232

  Mulliken Charges: (a.u.)
   Center  Symbol    Alpha    Beta     Spin     Total
       1     H     0.40691  0.40691  0.00000  0.18619
       2     C     3.23579  3.23579  0.00000 -0.47158
       3     C     2.89604  2.89604  0.00000  0.20792
       4     H     0.40197  0.40197  0.00000  0.19606
       5     O     4.29785  4.29785  0.00000 -0.59569
       6     H     0.40702  0.40702  0.00000  0.18596
       7     C     3.08414  3.08414  0.00000 -0.16827
       8     C     2.44654  2.44654  0.00000  1.10692
       9     H     0.39997  0.39997  0.00000  0.20006
      10     H     0.38436  0.38436  0.00000  0.23129
      11     F     4.67230  4.67230  0.00000 -0.34459
      12     F     4.68225  4.68225  0.00000 -0.36449
      13     F     4.68488  4.68488  0.00000 -0.36976

   Total alpha = 32.00000, Total beta = 32.00000, Total charge = -0.00000
