                              Psi4 1.0.54 Driver

  ==> Input File <==

--------------------------------------------------------------------------
set {
	reference rhf
	basis cc-pvtz
}

set_num_threads( 4 )
memory 2 gb

molecule MOL {
0 1

O	 1.719562	 1.540537	 1.264555
C	 0.788060	 1.331617	 0.541110
C	 -0.265871	 2.400240	 0.335909
N	 0.622280	 0.144970	 -0.099307
H	 -1.245489	 2.051274	 0.637430
H	 0.012272	 3.247390	 0.940448
H	 -0.321769	 2.705168	 -0.701814
C	 1.664396	 -0.854993	 0.000772
C	 -0.350697	 -0.079953	 -1.141650
H	 2.462727	 -0.615153	 -0.690869
H	 1.261798	 -1.821849	 -0.240651
H	 2.081615	 -0.891605	 1.003877
H	 -0.685581	 -1.108417	 -1.099820
H	 -1.216051	 0.549024	 -1.021454
H	 0.066484	 0.094240	 -2.130923

	symmetry c1
}
set optking {
	frozen_dihedral = ("
		2 4 8 10
	")
}

ee,wfn = optimize('scf', return_wfn=True)
oeprop( wfn, 'DIPOLE', 'QUADRUPOLE', 'MULLIKEN_CHARGES')
f=open( 'psi4out.xyz', 'w' )
f.write( "15  " )
f.write( str(ee) + "\n" )
f.write( MOL.save_string_xyz() )
f.close()
--------------------------------------------------------------------------

    Molecular point group: c1
  Charge       = 0
  Multiplicity = 1
  Basis Set: CC-PVTZ
  Basis Set:
  @DF-RHF Final Energy:  -286.13490089725752
    Total Energy =                       -286.1349008972574666
    Molecular point group: c1
  Basis Set: CC-PVTZ
  Basis Set:
  Basis Set: CC-PVTZ
  Basis Set:
  @DF-RHF Final Energy:  -286.13536232327056
    Total Energy =                       -286.1353623232706695
  Basis Set: CC-PVTZ
  Basis Set:
  Basis Set: CC-PVTZ
  Basis Set:
  @DF-RHF Final Energy:  -286.13525298265631
    Total Energy =                       -286.1352529826565387
  Basis Set: CC-PVTZ
  Basis Set:
  Basis Set: CC-PVTZ
  Basis Set:
  @DF-RHF Final Energy:  -286.13547608116244
    Total Energy =                       -286.1354760811622100
  Basis Set: CC-PVTZ
  Basis Set:
  Basis Set: CC-PVTZ
  Basis Set:
  @DF-RHF Final Energy:  -286.13548481802627
    Total Energy =                       -286.1354848180263843
  Basis Set: CC-PVTZ
  Basis Set:
  Basis Set: CC-PVTZ
  Basis Set:
  @DF-RHF Final Energy:  -286.13549002893296
    Total Energy =                       -286.1354900289330203
  Basis Set: CC-PVTZ
  Basis Set:
  Charge       = 0
  Multiplicity = 1
  Basis Set: CC-PVTZ
  Basis Set:

    Orbital Energies (a.u.)
    -----------------------

    Doubly Occupied:

       1A    -20.504930     2A    -15.577820     3A    -11.334259
       4A    -11.263984     5A    -11.246659     6A    -11.226611
       7A     -1.388369     8A     -1.245351     9A     -1.014872
      10A     -0.973258    11A     -0.919732    12A     -0.738652
      13A     -0.682684    14A     -0.661096    15A     -0.653793
      16A     -0.589766    17A     -0.578164    18A     -0.569052
      19A     -0.563105    20A     -0.547504    21A     -0.530484
      22A     -0.504878    23A     -0.414827    24A     -0.371309

  @DF-RHF Final Energy:  -286.13549083642255

   => Energetics <=

    Nuclear Repulsion Energy =            253.0502743437583035
    One-Electron Energy =                -890.1692078419094969
    Two-Electron Energy =                 350.9834426617286454
    DFT Exchange-Correlation Energy =       0.0000000000000000
    Empirical Dispersion Energy =           0.0000000000000000
    PCM Polarization Energy =               0.0000000000000000
    EFP Energy =                            0.0000000000000000
    Total Energy =                       -286.1354908364224912
    Molecular point group: c1
  Basis Set: CC-PVTZ
  Basis Set:

  -Total Gradient:
     Atom            X                  Y                   Z
    ------   -----------------  -----------------  -----------------
       1       -0.000016224135     0.000047066173    -0.000010732029
       2        0.000181912089     0.000129329927    -0.000304765560
       3        0.000040513956     0.000029875084     0.000013669007
       4       -0.000239872460    -0.000137841083     0.000575529606
       5        0.000001136196    -0.000002167121     0.000003124499
       6       -0.000005279255     0.000015648708     0.000003591112
       7       -0.000001526490     0.000004949887     0.000012044950
       8       -0.000197993012    -0.000296381426    -0.000589743351
       9        0.000018500805    -0.000015937179     0.000040487579
      10        0.000253372820     0.000262183224     0.000338493367
      11       -0.000000479228    -0.000005877133    -0.000013271869
      12       -0.000030439593     0.000013718464    -0.000020934918
      13       -0.000019373347    -0.000010579022    -0.000015431309
      14        0.000018960409    -0.000024423059    -0.000016198233
      15       -0.000003208753    -0.000009565442    -0.000015862853

  **** Optimization is complete! (in 7 steps) ****
    Final optimized geometry and variables:
    Molecular point group: c1

    Geometry (in Angstrom), charge = 0, multiplicity = 1:

    O            1.055465432012     0.769018670036     1.095364343249
    C            0.100896589781     0.586376281308     0.395687907060
    C           -0.922916902854     1.685413143555     0.203125042840
    N           -0.111410097454    -0.604587410104    -0.223895686477
    H           -1.916350186078     1.356026210327     0.479611093272
    H           -0.631613045348     2.511559561915     0.830318096344
    H           -0.952137507851     2.016011978491    -0.828036113341
    C            0.928168679208    -1.608801211751    -0.118415123251
    C           -1.058484415895    -0.790313221102    -1.298295065626
    H            1.739378270587    -1.425348532314    -0.817540660278
    H            0.501622127493    -2.580033376290    -0.329220732903
    H            1.337626682598    -1.608972696516     0.876985241975
    H           -1.450531912663    -1.798189400179    -1.260865853816
    H           -1.891303753325    -0.113796091392    -1.211668014600
    H           -0.600419902575    -0.645755709534    -2.274362673470

  Mulliken Charges: (a.u.)
   Center  Symbol    Alpha    Beta     Spin     Total
       1     O     4.21909  4.21909  0.00000 -0.43818
       2     C     2.84492  2.84492  0.00000  0.31016
       3     C     3.16063  3.16063  0.00000 -0.32126
       4     N     3.56439  3.56439  0.00000 -0.12879
       5     H     0.44883  0.44883  0.00000  0.10234
       6     H     0.42872  0.42872  0.00000  0.14256
       7     H     0.44893  0.44893  0.00000  0.10213
       8     C     3.09399  3.09399  0.00000 -0.18798
       9     C     3.09593  3.09593  0.00000 -0.19185
      10     H     0.45568  0.45568  0.00000  0.08864
      11     H     0.45760  0.45760  0.00000  0.08479
      12     H     0.43143  0.43143  0.00000  0.13714
      13     H     0.44866  0.44866  0.00000  0.10268
      14     H     0.44547  0.44547  0.00000  0.10906
      15     H     0.45573  0.45573  0.00000  0.08854

   Total alpha = 24.00000, Total beta = 24.00000, Total charge =  0.00000

*** Psi4 exiting successfully. Buy a developer a beer!
