  ==> Input File <==

--------------------------------------------------------------------------
set {
	reference rhf
	basis 6-31G*
}

set_num_threads( 1 )
memory 2 gb

molecule MOL {
0 1

H	 -2.172150	 0.880146	 0.502514
C	 -2.018062	 -0.000025	 -0.114509
O	 -0.774054	 0.001095	 -0.743181
H	 -2.760490	 0.003458	 -0.901350
H	 -2.173624	 -0.884374	 0.496163
C	 -0.697410	 -0.174801	 -2.146647
C	 0.800199	 -0.107902	 -2.437685
C	 -1.249990	 -1.541663	 -2.563219
C	 -1.424240	 0.953299	 -2.885719
H	 1.321147	 -0.888608	 -1.894967
H	 1.200104	 0.847992	 -2.118756
H	 0.998360	 -0.230639	 -3.497557
H	 -0.780264	 -2.329094	 -1.983271
H	 -1.048049	 -1.724606	 -3.613625
H	 -2.323515	 -1.608986	 -2.423335
H	 -1.076682	 1.918505	 -2.532685
H	 -1.230878	 0.890031	 -3.951618
H	 -2.499202	 0.906540	 -2.748232

	symmetry c1
}
set optking {
	frozen_dihedral = ("
		2 3 6 7
	")
}

ee = energy('scf')
oeprop('DIPOLE', 'QUADRUPOLE', 'MULLIKEN_CHARGES')
f=open( 'psi4out.xyz', 'w' )
f.write( "18  " )
f.write( str(ee) + "\n" )
f.write( MOL.save_string_xyz() )
f.close()
--------------------------------------------------------------------------

    Molecular point group: c1

    Geometry (in Angstrom), charge = 0, multiplicity = 1:

       Center              X                  Y                   Z               Mass
    ------------   -----------------  -----------------  -----------------  -----------------
           H         -1.262858921834     1.024007547949     2.302063710156     1.007825032070
           C         -1.108770921834     0.143836547949     1.685040710156    12.000000000000
           O          0.135237078166     0.144956547949     1.056368710156    15.994914619560
           H         -1.851198921834     0.147319547949     0.898199710156     1.007825032070
           H         -1.264332921834    -0.740512452051     2.295712710156     1.007825032070
           C          0.211881078166    -0.030939452051    -0.347097289844    12.000000000000
           C          1.709490078166     0.035959547949    -0.638135289844    12.000000000000
           C         -0.340698921834    -1.397801452051    -0.763669289844    12.000000000000
           C         -0.514948921834     1.097160547949    -1.086169289844    12.000000000000
           H          2.230438078166    -0.744746452051    -0.095417289844     1.007825032070
           H          2.109395078166     0.991853547949    -0.319206289844     1.007825032070
           H          1.907651078166    -0.086777452051    -1.698007289844     1.007825032070
           H          0.129027078166    -2.185232452051    -0.183721289844     1.007825032070
           H         -0.138757921834    -1.580744452051    -1.814075289844     1.007825032070
           H         -1.414223921834    -1.465124452051    -0.623785289844     1.007825032070
           H         -0.167390921834     2.062366547949    -0.733135289844     1.007825032070
           H         -0.321586921834     1.033892547949    -2.152068289844     1.007825032070
           H         -1.589910921834     1.050401547949    -0.948682289844     1.007825032070

  Charge       = 0
  Multiplicity = 1
  Basis Set: 6-31G*
  Basis Set:

    Orbital Energies (a.u.)
    -----------------------

    Doubly Occupied:

       1A    -20.543696     2A    -11.282694     3A    -11.260670
       4A    -11.209296     5A    -11.209000     6A    -11.203537
       7A     -1.369118     8A     -1.072988     9A     -0.947060
      10A     -0.940191    11A     -0.911468    12A     -0.753118
      13A     -0.655372    14A     -0.643643    15A     -0.642310
      16A     -0.589944    17A     -0.573779    18A     -0.548189
      19A     -0.539067    20A     -0.525036    21A     -0.515577
      22A     -0.490292    23A     -0.487167    24A     -0.435193
      25A     -0.402054

  @DF-RHF Final Energy:  -271.17066048851751

   => Energetics <=

    Nuclear Repulsion Energy =            272.5088817097553715
    One-Electron Energy =                -907.8578967280933512
    Two-Electron Energy =                 364.1783545298209219
    DFT Exchange-Correlation Energy =       0.0000000000000000
    Empirical Dispersion Energy =           0.0000000000000000
    PCM Polarization Energy =               0.0000000000000000
    EFP Energy =                            0.0000000000000000
    Total Energy =                       -271.1706604885170009

  Mulliken Charges: (a.u.)
   Center  Symbol    Alpha    Beta     Spin     Total
       1     H     0.41974  0.41974  0.00000  0.16051
       2     C     3.07259  3.07259  0.00000 -0.14518
       3     O     4.32192  4.32192  0.00000 -0.64383
       4     H     0.43310  0.43310  0.00000  0.13380
       5     H     0.42329  0.42329  0.00000  0.15342
       6     C     2.84599  2.84599  0.00000  0.30802
       7     C     3.23244  3.23244  0.00000 -0.46489
       8     C     3.24552  3.24552  0.00000 -0.49103
       9     C     3.24639  3.24639  0.00000 -0.49278
      10     H     0.41382  0.41382  0.00000  0.17236
      11     H     0.41389  0.41389  0.00000  0.17223
      12     H     0.42524  0.42524  0.00000  0.14952
      13     H     0.41302  0.41302  0.00000  0.17397
      14     H     0.41992  0.41992  0.00000  0.16016
      15     H     0.42073  0.42073  0.00000  0.15854
      16     H     0.41291  0.41291  0.00000  0.17418
      17     H     0.41955  0.41955  0.00000  0.16091
      18     H     0.41995  0.41995  0.00000  0.16009

   Total alpha = 25.00000, Total beta = 25.00000, Total charge =  0.00000
