  ==> Input File <==

--------------------------------------------------------------------------
set {
	reference rhf
	basis 6-31G*
}

set_num_threads( 1 )
memory 2 gb

molecule MOL {
0 1

H	 -5.529539	 -1.682728	 3.092826
O	 -5.313744	 -1.869179	 3.994901
C	 -4.361320	 -2.900608	 4.050533
C	 -2.969471	 -2.457817	 3.613018
H	 -4.334814	 -3.221288	 5.084040
H	 -4.687678	 -3.753114	 3.455971
C	 -2.885675	 -2.027124	 2.146611
H	 -2.651207	 -1.638756	 4.252716
H	 -2.280753	 -3.282783	 3.787562
C	 -1.465551	 -1.640376	 1.724126
H	 -3.554561	 -1.186880	 1.982456
H	 -3.239153	 -2.838496	 1.510161
C	 -1.309753	 -1.282496	 0.241564
H	 -1.125741	 -0.804960	 2.333599
H	 -0.799244	 -2.470334	 1.949746
C	 -2.037799	 -0.007733	 -0.193645
H	 -0.249297	 -1.166198	 0.027731
H	 -1.650404	 -2.118351	 -0.367649
C	 -3.489788	 0.042957	 0.286558
H	 -2.017067	 0.064384	 -1.280144
H	 -1.513726	 0.868678	 0.179924
C	 -4.216917	 1.317354	 -0.141063
H	 -4.025645	 -0.823308	 -0.095450
H	 -3.513059	 -0.038752	 1.371301
H	 -4.239342	 1.411634	 -1.223113
H	 -5.243387	 1.322503	 0.212445
H	 -3.726170	 2.201406	 0.256408

	symmetry c1
}
set optking {
	frozen_dihedral = ("
		14 10 7 4,
		14 10 13 16,
		10 7 4 8,
		8 4 3 2,
		20 16 19 22,
		4 3 2 1
	")
}

ee = energy('scf')
oeprop('DIPOLE', 'QUADRUPOLE', 'MULLIKEN_CHARGES')
f=open( 'psi4out.xyz', 'w' )
f.write( "27  " )
f.write( str(ee) + "\n" )
f.write( MOL.save_string_xyz() )
f.close()
--------------------------------------------------------------------------

    Molecular point group: c1

    Geometry (in Angstrom), charge = 0, multiplicity = 1:

       Center              X                  Y                   Z               Mass
    ------------   -----------------  -----------------  -----------------  -----------------
           H         -2.358738971519    -0.478795137270     1.314923850604     1.007825032070
           O         -2.142943971519    -0.665246137270     2.216998850604    15.994914619560
           C         -1.190519971519    -1.696675137270     2.272630850604    12.000000000000
           C          0.201329028481    -1.253884137270     1.835115850604    12.000000000000
           H         -1.164013971519    -2.017355137270     3.306137850604     1.007825032070
           H         -1.516877971519    -2.549181137270     1.678068850604     1.007825032070
           C          0.285125028481    -0.823191137270     0.368708850604    12.000000000000
           H          0.519593028481    -0.434823137270     2.474813850604     1.007825032070
           H          0.890047028481    -2.078850137270     2.009659850604     1.007825032070
           C          1.705249028481    -0.436443137270    -0.053776149396    12.000000000000
           H         -0.383760971519     0.017052862730     0.204553850604     1.007825032070
           H         -0.068352971519    -1.634563137270    -0.267741149396     1.007825032070
           C          1.861047028481    -0.078563137270    -1.536338149396    12.000000000000
           H          2.045059028481     0.398972862730     0.555696850604     1.007825032070
           H          2.371556028481    -1.266401137270     0.171843850604     1.007825032070
           C          1.133001028481     1.196199862730    -1.971547149396    12.000000000000
           H          2.921503028481     0.037734862730    -1.750171149396     1.007825032070
           H          1.520396028481    -0.914418137270    -2.145551149396     1.007825032070
           C         -0.318987971519     1.246889862730    -1.491344149396    12.000000000000
           H          1.153733028481     1.268316862730    -3.058046149396     1.007825032070
           H          1.657074028481     2.072610862730    -1.597978149396     1.007825032070
           C         -1.046116971519     2.521286862730    -1.918965149396    12.000000000000
           H         -0.854844971519     0.380624862730    -1.873352149396     1.007825032070
           H         -0.342258971519     1.165180862730    -0.406601149396     1.007825032070
           H         -1.068541971519     2.615566862730    -3.001015149396     1.007825032070
           H         -2.072586971519     2.526435862730    -1.565457149396     1.007825032070
           H         -0.555369971519     3.405338862730    -1.521494149396     1.007825032070

  Charge       = 0
  Multiplicity = 1
  Basis Set: 6-31G*
  Basis Set:

    Orbital Energies (a.u.)
    -----------------------

    Doubly Occupied:

       1A    -20.552417     2A    -11.266059     3A    -11.217523
       4A    -11.216509     5A    -11.215888     6A    -11.214129
       7A    -11.212516     8A    -11.210550     9A    -11.209093
      10A     -1.358960    11A     -1.102513    12A     -1.056044
      13A     -1.010758    14A     -0.952123    15A     -0.893291
      16A     -0.836049    17A     -0.786140    18A     -0.781100
      19A     -0.693640    20A     -0.670440    21A     -0.624234
      22A     -0.616465    23A     -0.601536    24A     -0.586905
      25A     -0.577475    26A     -0.568030    27A     -0.538585
      28A     -0.521542    29A     -0.507855    30A     -0.506732
      31A     -0.498557    32A     -0.474804    33A     -0.460990
      34A     -0.458872    35A     -0.445952    36A     -0.425393
      37A     -0.417770

  @DF-RHF Final Energy:  -388.24840425189609

   => Energetics <=

    Nuclear Repulsion Energy =            482.6701643099439707
    One-Electron Energy =               -1483.2622302527129250
    Two-Electron Energy =                 612.3436616908738870
    DFT Exchange-Correlation Energy =       0.0000000000000000
    Empirical Dispersion Energy =           0.0000000000000000
    PCM Polarization Energy =               0.0000000000000000
    EFP Energy =                            0.0000000000000000
    Total Energy =                       -388.2484042518950673

  Mulliken Charges: (a.u.)
   Center  Symbol    Alpha    Beta     Spin     Total
       1     H     0.27938  0.27938  0.00000  0.44124
       2     O     4.37106  4.37106  0.00000 -0.74211
       3     C     2.99749  2.99749  0.00000  0.00501
       4     C     3.15894  3.15894  0.00000 -0.31788
       5     H     0.41456  0.41456  0.00000  0.17088
       6     H     0.43213  0.43213  0.00000  0.13574
       7     C     3.16100  3.16100  0.00000 -0.32201
       8     H     0.41703  0.41703  0.00000  0.16594
       9     H     0.42554  0.42554  0.00000  0.14893
      10     C     3.15662  3.15662  0.00000 -0.31324
      11     H     0.42725  0.42725  0.00000  0.14551
      12     H     0.42625  0.42625  0.00000  0.14750
      13     C     3.15521  3.15521  0.00000 -0.31043
      14     H     0.42214  0.42214  0.00000  0.15572
      15     H     0.41938  0.41938  0.00000  0.16124
      16     C     3.14821  3.14821  0.00000 -0.29643
      17     H     0.41938  0.41938  0.00000  0.16125
      18     H     0.42374  0.42374  0.00000  0.15251
      19     C     3.16325  3.16325  0.00000 -0.32651
      20     H     0.42112  0.42112  0.00000  0.15777
      21     H     0.42269  0.42269  0.00000  0.15463
      22     C     3.23596  3.23596  0.00000 -0.47192
      23     H     0.42394  0.42394  0.00000  0.15212
      24     H     0.41302  0.41302  0.00000  0.17396
      25     H     0.42238  0.42238  0.00000  0.15524
      26     H     0.42114  0.42114  0.00000  0.15771
      27     H     0.42119  0.42119  0.00000  0.15763

   Total alpha = 37.00000, Total beta = 37.00000, Total charge =  0.00000
