  ==> Input File <==

--------------------------------------------------------------------------
set {
	reference rhf
	basis 6-31G*
}

set_num_threads( 4 )
memory 2 gb

molecule MOL {
0 1

H	 -0.000158	 1.970498	 0.756846
O	 -0.000074	 1.880206	 -0.189275
C	 -0.000015	 0.544847	 -0.545111
C	 -1.278788	 -0.123820	 -0.051541
C	 1.278802	 -0.123718	 -0.051505
H	 -0.000001	 0.490777	 -1.623619
F	 -2.287785	 0.713115	 -0.165603
F	 -1.570459	 -1.209359	 -0.736297
F	 -1.172851	 -0.457068	 1.224908
F	 2.323327	 0.466644	 -0.591854
F	 1.326242	 -1.401483	 -0.363667
F	 1.388946	 -0.015632	 1.262939

	symmetry c1
}
set optking {
	frozen_dihedral = ("
		7 4 3 6
	")
}

ee = optimize('scf')
oeprop('DIPOLE', 'QUADRUPOLE', 'MULLIKEN_CHARGES')
f=open( 'psi4out.xyz', 'w' )
f.write( "12  " )
f.write( str(ee) + "\n" )
f.write( MOL.save_string_xyz() )
f.close()
--------------------------------------------------------------------------

    Molecular point group: c1
  Charge       = 0
  Multiplicity = 1
  Basis Set: 6-31G*
  Basis Set:
  @DF-RHF Final Energy:  -786.27518733773172
    Total Energy =                       -786.2751873377321772
    Molecular point group: c1
  Basis Set: 6-31G*
  Basis Set:
  Basis Set: 6-31G*
  Basis Set:
  @DF-RHF Final Energy:  -786.27615641582611
    Total Energy =                       -786.2761564158258807
  Basis Set: 6-31G*
  Basis Set:
  Basis Set: 6-31G*
  Basis Set:
  @DF-RHF Final Energy:  -786.27650098259790
    Total Energy =                       -786.2765009825976676
  Basis Set: 6-31G*
  Basis Set:
  Basis Set: 6-31G*
  Basis Set:
  @DF-RHF Final Energy:  -786.27657136668972
    Total Energy =                       -786.2765713666894953
  Basis Set: 6-31G*
  Basis Set:
  Basis Set: 6-31G*
  Basis Set:
  @DF-RHF Final Energy:  -786.27658538496939
    Total Energy =                       -786.2765853849689393
  Basis Set: 6-31G*
  Basis Set:
  Charge       = 0
  Multiplicity = 1
  Basis Set: 6-31G*
  Basis Set:

    Orbital Energies (a.u.)
    -----------------------

    Doubly Occupied:

       1A    -26.363304     2A    -26.363230     3A    -26.360465
       4A    -26.359778     5A    -26.358844     6A    -26.357699
       7A    -20.617901     8A    -11.526171     9A    -11.524523
      10A    -11.349111    11A     -1.764597    12A     -1.757920
      13A     -1.661511    14A     -1.658006    15A     -1.656849
      16A     -1.654112    17A     -1.436506    18A     -1.102297
      19A     -0.995897    20A     -0.937656    21A     -0.863655
      22A     -0.862138    23A     -0.851595    24A     -0.844811
      25A     -0.831397    26A     -0.814666    27A     -0.739972
      28A     -0.727973    29A     -0.725951    30A     -0.719039
      31A     -0.688693    32A     -0.686646    33A     -0.683411
      34A     -0.674765    35A     -0.668982    36A     -0.660800
      37A     -0.658276    38A     -0.653619    39A     -0.619630
      40A     -0.550044    41A     -0.505873

  @DF-RHF Final Energy:  -786.27658607241676

   => Energetics <=

    Nuclear Repulsion Energy =            671.1555406450605687
    One-Electron Energy =               -2429.1876246049678230
    Two-Electron Energy =                 971.7554978874904918
    DFT Exchange-Correlation Energy =       0.0000000000000000
    Empirical Dispersion Energy =           0.0000000000000000
    PCM Polarization Energy =               0.0000000000000000
    EFP Energy =                            0.0000000000000000
    Total Energy =                       -786.2765860724166487
    Molecular point group: c1
  Basis Set: 6-31G*
  Basis Set:

  -Total Gradient:
     Atom            X                  Y                   Z
    ------   -----------------  -----------------  -----------------
       1        0.000002199789    -0.000047206521    -0.000021568266
       2       -0.000037663650    -0.000104585780    -0.000042996052
       3       -0.002092147869     0.004281942916     0.000795186705
       4       -0.000285368817    -0.002080344938    -0.003738319457
       5        0.000014844136     0.000003718276     0.000018536130
       6        0.001905622965    -0.003212915208     0.000135407241
       7        0.000493188771     0.001127093120     0.002888450065
       8        0.000041215936    -0.000013755646    -0.000067945816
       9        0.000089011595     0.000011801987     0.000069270510
      10       -0.000048800226     0.000035332584     0.000006784007
      11       -0.000052562099    -0.000025168942     0.000007457171
      12       -0.000029540533     0.000024088147    -0.000050262239

  **** Optimization is complete! (in 6 steps) ****
    Final optimized geometry and variables:
    Molecular point group: c1

    Geometry (in Angstrom), charge = 0, multiplicity = 1:

    H            0.055649933166     1.984485629129     0.814758812235
    O            0.006512510178     1.914855735693    -0.131581632372
    C           -0.003775100830     0.592503740488    -0.520835513809
    C           -1.272657840519    -0.131183433889    -0.066218840524
    C            1.267051661182    -0.104049411794    -0.041936409892
    H            0.015894578411     0.551884215803    -1.599871634858
    F           -2.315684139164     0.659964897483    -0.185776151025
    F           -1.482644970768    -1.213710960528    -0.785962994933
    F           -1.198016229854    -0.492955499720     1.205607086717
    F            2.309859750494     0.369871267077    -0.690620896462
    F            1.216092556099    -1.405279259464    -0.241442557511
    F            1.467040328696     0.109763704959     1.247914475303

  Mulliken Charges: (a.u.)
   Center  Symbol    Alpha    Beta     Spin     Total
       1     H     0.26614  0.26614  0.00000  0.46771
       2     O     4.36042  4.36042  0.00000 -0.72084
       3     C     3.04951  3.04951  0.00000 -0.09902
       4     C     2.44698  2.44698  0.00000  1.10604
       5     C     2.44350  2.44350  0.00000  1.11300
       6     H     0.37507  0.37507  0.00000  0.24987
       7     F     4.67314  4.67314  0.00000 -0.34628
       8     F     4.67477  4.67477  0.00000 -0.34954
       9     F     4.68001  4.68001  0.00000 -0.36003
      10     F     4.67528  4.67528  0.00000 -0.35057
      11     F     4.67452  4.67452  0.00000 -0.34903
      12     F     4.68065  4.68065  0.00000 -0.36130

   Total alpha = 41.00000, Total beta = 41.00000, Total charge = -0.00000
