  ==> Input File <==

--------------------------------------------------------------------------
set {
	reference rhf
	basis cc-pvtz
}

set_num_threads( 4 )
memory 2 gb

molecule MOL {
0 1

H	 -2.816458	 -0.841657	 -0.064679
N	 -1.878861	 -0.711874	 0.250184
C	 -1.341419	 0.551458	 -0.220231
H	 -1.333674	 -1.468530	 -0.105118
C	 0.082190	 0.731516	 0.254705
H	 -1.357065	 0.652078	 -1.304747
H	 -1.939897	 1.357530	 0.189797
O	 0.447615	 2.067738	 0.085342
H	 0.159527	 0.452800	 1.304709
H	 0.743258	 0.085906	 -0.318972
C	 1.764610	 2.352062	 0.422837
H	 1.930436	 3.406530	 0.255550
H	 1.964157	 2.128920	 1.468822
H	 2.463164	 1.785961	 -0.188811

	symmetry c1
}
set optking {
	frozen_dihedral = ("
		8 5 3 6
	")
}

ee = optimize('scf')
oeprop('DIPOLE', 'QUADRUPOLE', 'MULLIKEN_CHARGES')
f=open( 'psi4out.xyz', 'w' )
f.write( "14  " )
f.write( str(ee) + "\n" )
f.write( MOL.save_string_xyz() )
f.close()
--------------------------------------------------------------------------

    Molecular point group: c1
  Charge       = 0
  Multiplicity = 1
  Basis Set: CC-PVTZ
  Basis Set:
  @DF-RHF Final Energy:  -248.22329368383447
    Total Energy =                       -248.2232936838344131
    Molecular point group: c1
  Basis Set: CC-PVTZ
  Basis Set:
  Basis Set: CC-PVTZ
  Basis Set:
  @DF-RHF Final Energy:  -248.22359289357655
    Total Energy =                       -248.2235928935765514
  Basis Set: CC-PVTZ
  Basis Set:
  Basis Set: CC-PVTZ
  Basis Set:
  @DF-RHF Final Energy:  -248.22365900053424
    Total Energy =                       -248.2236590005342691
  Basis Set: CC-PVTZ
  Basis Set:
  Basis Set: CC-PVTZ
  Basis Set:
  @DF-RHF Final Energy:  -248.22367871208840
    Total Energy =                       -248.2236787120880877
  Basis Set: CC-PVTZ
  Basis Set:
  Basis Set: CC-PVTZ
  Basis Set:
  @DF-RHF Final Energy:  -248.22368065958989
    Total Energy =                       -248.2236806595897747
  Basis Set: CC-PVTZ
  Basis Set:
  Charge       = 0
  Multiplicity = 1
  Basis Set: CC-PVTZ
  Basis Set:

    Orbital Energies (a.u.)
    -----------------------

    Doubly Occupied:

       1A    -20.548580     2A    -15.532031     3A    -11.262140
       4A    -11.262062     5A    -11.239919     6A     -1.382803
       7A     -1.181973     8A     -0.999988     9A     -0.900066
      10A     -0.823450    11A     -0.684506    12A     -0.670925
      13A     -0.649444    14A     -0.623429    15A     -0.600222
      16A     -0.555777    17A     -0.518161    18A     -0.499471
      19A     -0.470657    20A     -0.417179    21A     -0.390567

  @DF-RHF Final Energy:  -248.22368084043498

   => Energetics <=

    Nuclear Repulsion Energy =            191.0284575863612702
    One-Electron Energy =                -716.0775825978256535
    Two-Electron Energy =                 276.8254441710294032
    DFT Exchange-Correlation Energy =       0.0000000000000000
    Empirical Dispersion Energy =           0.0000000000000000
    PCM Polarization Energy =               0.0000000000000000
    EFP Energy =                            0.0000000000000000
    Total Energy =                       -248.2236808404350086
    Molecular point group: c1
  Basis Set: CC-PVTZ
  Basis Set:

  -Total Gradient:
     Atom            X                  Y                   Z
    ------   -----------------  -----------------  -----------------
       1        0.000006330166     0.000008675336    -0.000004477793
       2       -0.000000708503    -0.000031172221     0.000026734011
       3       -0.000904780436     0.004422341237     0.001052239223
       4        0.000000724210     0.000002331309    -0.000001967225
       5        0.001307143989    -0.001556110761    -0.003262168628
       6        0.000534006478    -0.003399567951    -0.000279562837
       7       -0.000013265013    -0.000000596129    -0.000003102509
       8       -0.000927160629     0.000589901565     0.002465180274
       9        0.000001492684    -0.000006198474     0.000002904175
      10       -0.000004852545    -0.000006697675     0.000000341141
      11        0.000008932243    -0.000023416101     0.000003474582
      12       -0.000014196393    -0.000006588664    -0.000003148732
      13        0.000002851889     0.000003459075     0.000002590445
      14        0.000003481861     0.000003639459     0.000000963873

  **** Optimization is complete! (in 6 steps) ****
    Final optimized geometry and variables:
    Molecular point group: c1

    Geometry (in Angstrom), charge = 0, multiplicity = 1:

    H           -2.662738458289    -1.788994336619    -0.077484320874
    N           -1.683776003737    -1.716958345463     0.098784322954
    C           -1.165398872243    -0.441938382654    -0.375887788919
    H           -1.247087885878    -2.481478382528    -0.372641832250
    C            0.263011133304    -0.254620022597     0.097645064872
    H           -1.195742546022    -0.358436109911    -1.460381962894
    H           -1.768171121333     0.354302174896     0.039465509693
    O            0.626108649656     1.076550540814    -0.090083620963
    H            0.324432239229    -0.520891075990     1.149991104294
    H            0.937312214465    -0.914706877408    -0.449186478878
    C            1.929337182364     1.375049715057     0.284740315323
    H            2.092411264675     2.428333238314     0.108016313708
    H            2.097829769022     1.166616630889     1.339039642141
    H            2.652218377897     0.806957280917    -0.297035228506

  Mulliken Charges: (a.u.)
   Center  Symbol    Alpha    Beta     Spin     Total
       1     H     0.42793  0.42793  0.00000  0.14413
       2     N     3.69245  3.69245  0.00000 -0.38490
       3     C     3.03137  3.03137  0.00000 -0.06274
       4     H     0.43087  0.43087  0.00000  0.13826
       5     C     2.95880  2.95880  0.00000  0.08240
       6     H     0.46384  0.46384  0.00000  0.07232
       7     H     0.45186  0.45186  0.00000  0.09628
       8     O     4.17340  4.17340  0.00000 -0.34681
       9     H     0.46921  0.46921  0.00000  0.06159
      10     H     0.47829  0.47829  0.00000  0.04342
      11     C     3.03196  3.03196  0.00000 -0.06392
      12     H     0.44711  0.44711  0.00000  0.10578
      13     H     0.47104  0.47104  0.00000  0.05792
      14     H     0.47187  0.47187  0.00000  0.05625

   Total alpha = 21.00000, Total beta = 21.00000, Total charge = -0.00000
