                              Psi4 1.0.54 Driver

  ==> Input File <==

--------------------------------------------------------------------------
set {
	reference rhf
	basis cc-pvtz
}

set_num_threads( 4 )
memory 2 gb

molecule MOL {
0 1

O	 1.489353	 0.849246	 -0.860935
C	 1.121787	 0.124983	 0.000110
C	 -0.170912	 -0.649867	 -0.000147
O	 1.818188	 -0.102380	 1.101795
C	 -1.413045	 0.229353	 0.001137
H	 -0.152877	 -1.303435	 -0.866175
H	 -0.152278	 -1.305116	 0.864586
C	 -2.702562	 -0.586401	 0.000228
H	 -1.390744	 0.882001	 -0.864365
H	 -1.390549	 0.879837	 0.868264
C	 -3.953810	 0.284959	 -0.000782
H	 -2.717793	 -1.238567	 -0.869075
H	 -2.719108	 -1.238472	 0.869576
H	 -3.983727	 0.924403	 -0.876454
H	 -4.852989	 -0.320147	 -0.001515
H	 -3.985140	 0.924399	 0.874841
C	 3.057908	 0.563009	 1.234730
H	 3.727280	 0.285827	 0.433894
H	 3.463173	 0.250534	 2.183407
H	 2.919094	 1.633906	 1.223174

	symmetry c1
}
set optking {
	frozen_dihedral = ("
		1 2 3 6
	")
}

ee,wfn = optimize('scf', return_wfn=True)
oeprop( wfn, 'DIPOLE', 'QUADRUPOLE', 'MULLIKEN_CHARGES')
f=open( 'psi4out.xyz', 'w' )
f.write( "20  " )
f.write( str(ee) + "\n" )
f.write( MOL.save_string_xyz() )
f.close()
--------------------------------------------------------------------------

    Molecular point group: c1
  Charge       = 0
  Multiplicity = 1
  Basis Set: CC-PVTZ
  Basis Set:
  @DF-RHF Final Energy:  -384.08118526052891
    Total Energy =                       -384.0811852605288550
    Molecular point group: c1
  Basis Set: CC-PVTZ
  Basis Set:
  Basis Set: CC-PVTZ
  Basis Set:
  @DF-RHF Final Energy:  -384.08184795698105
    Total Energy =                       -384.0818479569809369
  Basis Set: CC-PVTZ
  Basis Set:
  Basis Set: CC-PVTZ
  Basis Set:
  @DF-RHF Final Energy:  -384.08123847311310
    Total Energy =                       -384.0812384731131033
  Basis Set: CC-PVTZ
  Basis Set:
  Basis Set: CC-PVTZ
  Basis Set:
  @DF-RHF Final Energy:  -384.08188070929947
    Total Energy =                       -384.0818807092996394
  Basis Set: CC-PVTZ
  Basis Set:
  Basis Set: CC-PVTZ
  Basis Set:
  @DF-RHF Final Energy:  -384.08190872482152
    Total Energy =                       -384.0819087248216874
  Basis Set: CC-PVTZ
  Basis Set:
  Charge       = 0
  Multiplicity = 1
  Basis Set: CC-PVTZ
  Basis Set:

    Orbital Energies (a.u.)
    -----------------------

    Doubly Occupied:

       1A    -20.598753     2A    -20.531262     3A    -11.364068
       4A    -11.278521     5A    -11.232332     6A    -11.224094
       7A    -11.220513     8A    -11.210800     9A     -1.472546
      10A     -1.364668    11A     -1.091775    12A     -1.025221
      13A     -0.970249    14A     -0.888333    15A     -0.805927
      16A     -0.774064    17A     -0.697571    18A     -0.683964
      19A     -0.676040    20A     -0.648348    21A     -0.599607
      22A     -0.593407    23A     -0.575664    24A     -0.552652
      25A     -0.535293    26A     -0.524143    27A     -0.505447
      28A     -0.480423    29A     -0.478261    30A     -0.474112
      31A     -0.457858    32A     -0.435740

  @DF-RHF Final Energy:  -384.08191099142095

   => Energetics <=

    Nuclear Repulsion Energy =            382.4347555071894931
    One-Electron Energy =               -1281.0900161930212562
    Two-Electron Energy =                 514.5733496944110357
    DFT Exchange-Correlation Energy =       0.0000000000000000
    Empirical Dispersion Energy =           0.0000000000000000
    PCM Polarization Energy =               0.0000000000000000
    EFP Energy =                            0.0000000000000000
    Total Energy =                       -384.0819109914207274
    Molecular point group: c1
  Basis Set: CC-PVTZ
  Basis Set:

  -Total Gradient:
     Atom            X                  Y                   Z
    ------   -----------------  -----------------  -----------------
       1        0.000045290958    -0.000331971767     0.000102878999
       2       -0.000248842952     0.000482180955    -0.000302089133
       3        0.000145541995    -0.000248986408     0.000151816086
       4        0.000171244906     0.000024905248     0.000162127951
       5        0.000033210130    -0.000044697277    -0.000008287958
       6       -0.000106954698     0.000150151721    -0.000118252067
       7        0.000002932065     0.000003770328    -0.000018968064
       8       -0.000014499594    -0.000003538197    -0.000008588945
       9       -0.000015597368     0.000011993459    -0.000013562349
      10       -0.000007366375    -0.000007921907    -0.000000059778
      11       -0.000003183082     0.000013727799     0.000011595701
      12        0.000017095819     0.000007018220     0.000011164037
      13        0.000008612257     0.000000785638    -0.000000546187
      14       -0.000002562188     0.000002272570    -0.000001044060
      15        0.000005596391     0.000002821382     0.000002180277
      16       -0.000005878043    -0.000003519819    -0.000008936543
      17       -0.000009514172    -0.000086837108     0.000042942625
      18       -0.000037772334     0.000039663242     0.000067700964
      19        0.000011684886     0.000048167703    -0.000063546893
      20        0.000010961404    -0.000059985780    -0.000008524664

  **** Optimization is complete! (in 6 steps) ****
    Final optimized geometry and variables:
    Molecular point group: c1

    Geometry (in Angstrom), charge = 0, multiplicity = 1:

    O            1.472039694794     0.739746789563    -1.035088737132
    C            1.169504566823     0.005357282467    -0.156278184066
    C           -0.107740857214    -0.796030253992    -0.125915819019
    O            1.925132606776    -0.197542823651     0.908903298171
    C           -1.342479143335     0.106448583797    -0.172141874410
    H           -0.094368451348    -1.436479378019    -1.000853402657
    H           -0.120881110980    -1.425376610736     0.752438046779
    C           -2.644162978650    -0.688053607978    -0.208369337056
    H           -1.276305681231     0.747457833398    -1.043036806780
    H           -1.342652735723     0.759080534159     0.696740253812
    C           -3.880522972826     0.203485851053    -0.248771818448
    H           -2.640859238012    -1.340021203732    -1.077472062939
    H           -2.696103267359    -1.337766667007     0.660923294221
    H           -3.873038860794     0.842243964541    -1.125318995263
    H           -4.788299056532    -0.387772212832    -0.277352850852
    H           -3.930051013782     0.843753185213     0.625532210930
    C            3.149742021978     0.505597138739     0.976605350837
    H            3.784895550913     0.244585038349     0.143410397972
    H            3.611782202943     0.210196833264     1.904456763289
    H            2.977601732658     1.571477595963     0.967715915362

  Mulliken Charges: (a.u.)
   Center  Symbol    Alpha    Beta     Spin     Total
       1     O     4.20471  4.20471  0.00000 -0.40943
       2     C     2.81270  2.81270  0.00000  0.37461
       3     C     3.08041  3.08041  0.00000 -0.16083
       4     O     4.14438  4.14438  0.00000 -0.28876
       5     C     3.09287  3.09287  0.00000 -0.18575
       6     H     0.44446  0.44446  0.00000  0.11107
       7     H     0.44003  0.44003  0.00000  0.11994
       8     C     3.08842  3.08842  0.00000 -0.17683
       9     H     0.43965  0.43965  0.00000  0.12071
      10     H     0.45190  0.45190  0.00000  0.09619
      11     C     3.14921  3.14921  0.00000 -0.29842
      12     H     0.45311  0.45311  0.00000  0.09378
      13     H     0.45426  0.45426  0.00000  0.09148
      14     H     0.45309  0.45309  0.00000  0.09381
      15     H     0.44789  0.44789  0.00000  0.10423
      16     H     0.45457  0.45457  0.00000  0.09086
      17     C     3.03499  3.03499  0.00000 -0.06997
      18     H     0.45409  0.45409  0.00000  0.09182
      19     H     0.44518  0.44518  0.00000  0.10964
      20     H     0.45407  0.45407  0.00000  0.09185

   Total alpha = 32.00000, Total beta = 32.00000, Total charge = -0.00000

*** Psi4 exiting successfully. Buy a developer a beer!
