  ==> Input File <==

--------------------------------------------------------------------------
set {
	reference rhf
	basis 6-31G*
}

set_num_threads( 1 )
memory 2 gb

molecule MOL {
0 1

O	 -3.110064	 0.724894	 0.929968
C	 -2.668563	 0.129746	 -0.000350
C	 -3.396089	 -0.042625	 -1.308884
O	 -1.481751	 -0.454642	 0.000584
H	 -3.615734	 0.936896	 -1.716506
H	 -2.817695	 -0.614772	 -2.019199
H	 -4.340818	 -0.537940	 -1.119069
C	 -0.334255	 0.388708	 0.000906
C	 0.891947	 -0.504646	 0.000751
H	 -0.365390	 1.025305	 -0.873475
H	 -0.365484	 1.024911	 0.875569
C	 2.191998	 0.301789	 0.000897
H	 0.855148	 -1.151283	 -0.871571
H	 0.855132	 -1.151660	 0.872805
C	 3.441114	 -0.581407	 0.000108
H	 2.215074	 0.954890	 -0.869742
H	 2.215465	 0.953923	 0.872248
C	 4.739576	 0.224112	 -0.001102
H	 3.419457	 -1.233487	 -0.870178
H	 3.420834	 -1.233096	 0.870717
H	 4.804918	 0.861552	 -0.878265
H	 5.606527	 -0.429058	 -0.001824
H	 4.806469	 0.861674	 0.875853

	symmetry c1
}
set optking {
	frozen_dihedral = ("
		13 9 8 10,
		2 4 8 10,
		16 12 9 13,
		19 15 12 16
	")
}

ee = energy('scf')
oeprop('DIPOLE', 'QUADRUPOLE', 'MULLIKEN_CHARGES')
f=open( 'psi4out.xyz', 'w' )
f.write( "23  " )
f.write( str(ee) + "\n" )
f.write( MOL.save_string_xyz() )
f.close()
--------------------------------------------------------------------------

    Molecular point group: c1

    Geometry (in Angstrom), charge = 0, multiplicity = 1:

       Center              X                  Y                   Z               Mass
    ------------   -----------------  -----------------  -----------------  -----------------
           O         -3.123650386474     0.697370943024     0.973769878723    15.994914619560
           C         -2.682149386474     0.102222943024     0.043451878723    12.000000000000
           C         -3.409675386474    -0.070148056976    -1.265082121277    12.000000000000
           O         -1.495337386474    -0.482165056976     0.044385878723    15.994914619560
           H         -3.629320386474     0.909372943024    -1.672704121277     1.007825032070
           H         -2.831281386474    -0.642295056976    -1.975397121277     1.007825032070
           H         -4.354404386474    -0.565463056976    -1.075267121277     1.007825032070
           C         -0.347841386474     0.361184943024     0.044707878723    12.000000000000
           C          0.878360613526    -0.532169056976     0.044552878723    12.000000000000
           H         -0.378976386474     0.997781943024    -0.829673121277     1.007825032070
           H         -0.379070386474     0.997387943024     0.919370878723     1.007825032070
           C          2.178411613526     0.274265943024     0.044698878723    12.000000000000
           H          0.841561613526    -1.178806056976    -0.827769121277     1.007825032070
           H          0.841545613526    -1.179183056976     0.916606878723     1.007825032070
           C          3.427527613526    -0.608930056976     0.043909878723    12.000000000000
           H          2.201487613526     0.927366943024    -0.825940121277     1.007825032070
           H          2.201878613526     0.926399943024     0.916049878723     1.007825032070
           C          4.725989613526     0.196588943024     0.042699878723    12.000000000000
           H          3.405870613526    -1.261010056976    -0.826376121277     1.007825032070
           H          3.407247613526    -1.260619056976     0.914518878723     1.007825032070
           H          4.791331613526     0.834028943024    -0.834463121277     1.007825032070
           H          5.592940613526    -0.456581056976     0.041977878723     1.007825032070
           H          4.792882613526     0.834150943024     0.919654878723     1.007825032070

  Charge       = 0
  Multiplicity = 1
  Basis Set: 6-31G*
  Basis Set:

    Orbital Energies (a.u.)
    -----------------------

    Doubly Occupied:

       1A    -20.584657     2A    -20.548557     3A    -11.374647
       4A    -11.292279     5A    -11.231597     6A    -11.227593
       7A    -11.226634     8A    -11.223616     9A    -11.214602
      10A     -1.462185    11A     -1.363065    12A     -1.096215
      13A     -1.039819    14A     -1.005403    15A     -0.935732
      16A     -0.844491    17A     -0.805798    18A     -0.775983
      19A     -0.698780    20A     -0.683195    21A     -0.656656
      22A     -0.649569    23A     -0.615415    24A     -0.590524
      25A     -0.583662    26A     -0.573796    27A     -0.557097
      28A     -0.550536    29A     -0.515938    30A     -0.502128
      31A     -0.487999    32A     -0.479466    33A     -0.473658
      34A     -0.471066    35A     -0.449474    36A     -0.432757

  @DF-RHF Final Energy:  -422.96063298327999

   => Energetics <=

    Nuclear Repulsion Energy =            449.5589531067375901
    One-Electron Energy =               -1466.5899434236823708
    Two-Electron Energy =                 594.0703573336654699
    DFT Exchange-Correlation Energy =       0.0000000000000000
    Empirical Dispersion Energy =           0.0000000000000000
    PCM Polarization Energy =               0.0000000000000000
    EFP Energy =                            0.0000000000000000
    Total Energy =                       -422.9606329832793108

  Mulliken Charges: (a.u.)
   Center  Symbol    Alpha    Beta     Spin     Total
       1     O     4.26233  4.26233  0.00000 -0.52466
       2     C     2.62149  2.62149  0.00000  0.75703
       3     C     3.29311  3.29311  0.00000 -0.58623
       4     O     4.31800  4.31800  0.00000 -0.63600
       5     H     0.39886  0.39886  0.00000  0.20228
       6     H     0.40225  0.40225  0.00000  0.19550
       7     H     0.39610  0.39610  0.00000  0.20781
       8     C     2.99654  2.99654  0.00000  0.00692
       9     C     3.16389  3.16389  0.00000 -0.32778
      10     H     0.42202  0.42202  0.00000  0.15596
      11     H     0.40685  0.40685  0.00000  0.18630
      12     C     3.16110  3.16110  0.00000 -0.32220
      13     H     0.41382  0.41382  0.00000  0.17235
      14     H     0.40901  0.40901  0.00000  0.18198
      15     C     3.15168  3.15168  0.00000 -0.30335
      16     H     0.42240  0.42240  0.00000  0.15521
      17     H     0.41986  0.41986  0.00000  0.16027
      18     C     3.23996  3.23996  0.00000 -0.47992
      19     H     0.42133  0.42133  0.00000  0.15734
      20     H     0.42017  0.42017  0.00000  0.15967
      21     H     0.42130  0.42130  0.00000  0.15741
      22     H     0.41747  0.41747  0.00000  0.16506
      23     H     0.42048  0.42048  0.00000  0.15905

   Total alpha = 36.00000, Total beta = 36.00000, Total charge =  0.00000
