                              Psi4 1.0.54 Driver

  ==> Input File <==

--------------------------------------------------------------------------
set {
	reference rhf
	basis cc-pvtz
}

set_num_threads( 4 )
memory 2 gb

molecule MOL {
0 1

H	 -2.123894	 -0.667238	 -0.609809
O	 -2.041679	 -0.058866	 0.103463
C	 -0.959304	 0.780994	 -0.094939
C	 0.354905	 0.037902	 -0.006215
H	 -0.985899	 1.279578	 -1.057596
H	 -0.969809	 1.529522	 0.682889
F	 0.192688	 -1.144195	 0.561344
F	 0.848859	 -0.163067	 -1.210050
F	 1.253298	 0.688518	 0.693471

	symmetry c1
}
set optking {
	frozen_dihedral = ("
		7 4 3 5
	")
}

ee,wfn = optimize('scf', return_wfn=True)
oeprop( wfn, 'DIPOLE', 'QUADRUPOLE', 'MULLIKEN_CHARGES')
f=open( 'psi4out.xyz', 'w' )
f.write( "9  " )
f.write( str(ee) + "\n" )
f.write( MOL.save_string_xyz() )
f.close()
--------------------------------------------------------------------------

    Molecular point group: c1
  Charge       = 0
  Multiplicity = 1
  Basis Set: CC-PVTZ
  Basis Set:
  @DF-RHF Final Energy:  -450.83988299150224
    Total Energy =                       -450.8398829915022930
    Molecular point group: c1
  Basis Set: CC-PVTZ
  Basis Set:
  Basis Set: CC-PVTZ
  Basis Set:
  @DF-RHF Final Energy:  -450.84049480382919
    Total Energy =                       -450.8404948038288467
  Basis Set: CC-PVTZ
  Basis Set:
  Basis Set: CC-PVTZ
  Basis Set:
  @DF-RHF Final Energy:  -450.84089970144265
    Total Energy =                       -450.8408997014425950
  Basis Set: CC-PVTZ
  Basis Set:
  Basis Set: CC-PVTZ
  Basis Set:
  @DF-RHF Final Energy:  -450.84092293197921
    Total Energy =                       -450.8409229319792644
  Basis Set: CC-PVTZ
  Basis Set:
  Basis Set: CC-PVTZ
  Basis Set:
  @DF-RHF Final Energy:  -450.84092527977100
    Total Energy =                       -450.8409252797709996
  Basis Set: CC-PVTZ
  Basis Set:
  Charge       = 0
  Multiplicity = 1
  Basis Set: CC-PVTZ
  Basis Set:

    Orbital Energies (a.u.)
    -----------------------

    Doubly Occupied:

       1A    -26.338107     2A    -26.336593     3A    -26.334613
       4A    -20.582555     5A    -11.494250     6A    -11.310246
       7A     -1.746886     8A     -1.644452     9A     -1.639664
      10A     -1.405398    11A     -1.045339    12A     -0.929385
      13A     -0.835652    14A     -0.834413    15A     -0.810410
      16A     -0.732303    17A     -0.719515    18A     -0.702494
      19A     -0.670606    20A     -0.663650    21A     -0.647049
      22A     -0.631337    23A     -0.614301    24A     -0.530839
      25A     -0.484104

  @DF-RHF Final Energy:  -450.84092557508131

   => Energetics <=

    Nuclear Repulsion Energy =            276.6467269377718594
    One-Electron Energy =               -1175.6069909852965338
    Two-Electron Energy =                 448.1193384724433031
    DFT Exchange-Correlation Energy =       0.0000000000000000
    Empirical Dispersion Energy =           0.0000000000000000
    PCM Polarization Energy =               0.0000000000000000
    EFP Energy =                            0.0000000000000000
    Total Energy =                       -450.8409255750813713
    Molecular point group: c1
  Basis Set: CC-PVTZ
  Basis Set:

  -Total Gradient:
     Atom            X                  Y                   Z
    ------   -----------------  -----------------  -----------------
       1        0.000002617461    -0.000019333963     0.000006189514
       2       -0.000014872021     0.000013115344    -0.000008781645
       3        0.001913635511     0.003480477317     0.000868996659
       4        0.000494634536     0.001262053514     0.003781526587
       5       -0.001737579827    -0.003322888971    -0.001557606140
       6        0.000001970815     0.000006570008     0.000005425919
       7       -0.000642260484    -0.001414048173    -0.003129551808
       8       -0.000034926619    -0.000029036496    -0.000027878682
       9        0.000016780629     0.000023091414     0.000061679597

  **** Optimization is complete! (in 6 steps) ****
    Final optimized geometry and variables:
    Molecular point group: c1

    Geometry (in Angstrom), charge = 0, multiplicity = 1:

    H           -2.168141555044    -0.662008552447    -0.607860114650
    O           -2.073502793891    -0.053627416896     0.103400561869
    C           -0.979633604043     0.774552333910    -0.089914964200
    C            0.359072674968     0.034662668877    -0.002565120782
    H           -1.015503012428     1.252367637227    -1.061149643477
    H           -1.001482243338     1.523961888028     0.684544095029
    F            0.252584334260    -1.134670782437     0.578326492497
    F            0.855433400074    -0.186496025558    -1.209804469759
    F            1.251659883535     0.743029816604     0.655061380260

  Mulliken Charges: (a.u.)
   Center  Symbol    Alpha    Beta     Spin     Total
       1     H     0.38954  0.38954  0.00000  0.22091
       2     O     4.18530  4.18530  0.00000 -0.37061
       3     C     3.00319  3.00319  0.00000 -0.00638
       4     C     2.68276  2.68276  0.00000  0.63448
       5     H     0.46022  0.46022  0.00000  0.07956
       6     H     0.44715  0.44715  0.00000  0.10570
       7     F     4.60535  4.60535  0.00000 -0.21070
       8     F     4.61601  4.61601  0.00000 -0.23203
       9     F     4.61047  4.61047  0.00000 -0.22094

   Total alpha = 25.00000, Total beta = 25.00000, Total charge = -0.00000

*** Psi4 exiting successfully. Buy a developer a beer!
