  ==> Input File <==

--------------------------------------------------------------------------
set {
	reference rhf
	basis cc-pvtz
}

set_num_threads( 4 )
memory 2 gb

molecule MOL {
0 1

H	 -1.317415	 1.740374	 2.689192
O	 -1.001688	 2.378821	 2.076328
C	 -0.546707	 1.748502	 0.911927
C	 0.778218	 1.048391	 1.140425
H	 -1.273587	 1.036852	 0.533339
H	 -0.422331	 2.518731	 0.164291
O	 1.172093	 0.457955	 -0.054438
H	 0.670934	 0.294789	 1.922391
H	 1.516666	 1.770455	 1.482320
C	 2.395478	 -0.199028	 -0.000366
H	 2.505946	 -0.901710	 -0.823354
H	 3.174616	 0.545641	 -0.071768
H	 2.513730	 -0.742241	 0.934223

	symmetry c1
}
set optking {
	frozen_dihedral = ("
		4 7 10 13
	")
}

ee = optimize('scf')
oeprop('DIPOLE', 'QUADRUPOLE', 'MULLIKEN_CHARGES')
f=open( 'psi4out.xyz', 'w' )
f.write( "13  " )
f.write( str(ee) + "\n" )
f.write( MOL.save_string_xyz() )
f.close()
--------------------------------------------------------------------------

    Molecular point group: c1
  Charge       = 0
  Multiplicity = 1
  Basis Set: CC-PVTZ
  Basis Set:
  @DF-RHF Final Energy:  -268.06054164671616
    Total Energy =                       -268.0605416467158193
    Molecular point group: c1
  Basis Set: CC-PVTZ
  Basis Set:
  Basis Set: CC-PVTZ
  Basis Set:
  @DF-RHF Final Energy:  -268.06121536461046
    Total Energy =                       -268.0612153646106322
  Basis Set: CC-PVTZ
  Basis Set:
  Basis Set: CC-PVTZ
  Basis Set:
  @DF-RHF Final Energy:  -268.06137275852916
    Total Energy =                       -268.0613727585293304
  Basis Set: CC-PVTZ
  Basis Set:
  Charge       = 0
  Multiplicity = 1
  Basis Set: CC-PVTZ
  Basis Set:

    Orbital Energies (a.u.)
    -----------------------

    Doubly Occupied:

       1A    -20.555139     2A    -20.552815     3A    -11.269463
       4A    -11.267728     5A    -11.267373     6A     -1.391003
       7A     -1.369106     8A     -1.019650     9A     -0.914068
      10A     -0.842931    11A     -0.711627    12A     -0.675943
      13A     -0.663173    14A     -0.638327    15A     -0.598484
      16A     -0.569911    17A     -0.548576    18A     -0.491030
      19A     -0.484160    20A     -0.441621    21A     -0.422952

  @DF-RHF Final Energy:  -268.06137386473370

   => Energetics <=

    Nuclear Repulsion Energy =            190.4400293062942353
    One-Electron Energy =                -743.6126477680771814
    Two-Electron Energy =                 285.1112445970493354
    DFT Exchange-Correlation Energy =       0.0000000000000000
    Empirical Dispersion Energy =           0.0000000000000000
    PCM Polarization Energy =               0.0000000000000000
    EFP Energy =                            0.0000000000000000
    Total Energy =                       -268.0613738647335822
    Molecular point group: c1
  Basis Set: CC-PVTZ
  Basis Set:

  -Total Gradient:
     Atom            X                  Y                   Z
    ------   -----------------  -----------------  -----------------
       1        0.000006919325    -0.000009906952    -0.000010243662
       2        0.000080393592    -0.000024226886    -0.000037337276
       3       -0.000027271691    -0.000018604930    -0.000084757416
       4       -0.000866438852    -0.001760951343     0.000688009797
       5        0.000000887125    -0.000001131576    -0.000002657483
       6       -0.000021364568     0.000023333097     0.000000119294
       7        0.001599114380     0.002973015408    -0.000516310299
       8        0.000005050731     0.000004699078     0.000018550196
       9        0.000013610300    -0.000014505590    -0.000044715041
      10       -0.001656465868    -0.003232370965    -0.001031567026
      11       -0.000070057500     0.000022891336    -0.000003438449
      12       -0.000026908964     0.000023225466    -0.000004674346
      13        0.000962531989     0.002014533857     0.001029021709

  **** Optimization is complete! (in 4 steps) ****
    Final optimized geometry and variables:
    Molecular point group: c1

    Geometry (in Angstrom), charge = 0, multiplicity = 1:

    H           -1.876325441464     0.644769457379     1.841797585449
    O           -1.558831857084     1.285198437387     1.231914469187
    C           -1.095420435211     0.657915616311     0.069214838370
    C            0.229886056520    -0.038912464919     0.304889849089
    H           -1.817692885794    -0.055714184164    -0.314517034352
    H           -0.969333830034     1.429558790295    -0.676661462537
    O            0.626941592174    -0.632911873693    -0.887295927026
    H            0.121527890820    -0.791164184363     1.087316806023
    H            0.964408709992     0.686719102564     0.648405214285
    C            1.856583123882    -1.281936028561    -0.840428033182
    H            1.903280309417    -1.977706122366    -1.665371052836
    H            2.676368218107    -0.573213743261    -0.931531256355
    H            1.987294163009    -1.822082037372     0.093647041446

  Mulliken Charges: (a.u.)
   Center  Symbol    Alpha    Beta     Spin     Total
       1     H     0.39408  0.39408  0.00000  0.21185
       2     O     4.20212  4.20212  0.00000 -0.40425
       3     C     2.97395  2.97395  0.00000  0.05211
       4     C     2.96511  2.96511  0.00000  0.06978
       5     H     0.46710  0.46710  0.00000  0.06580
       6     H     0.45254  0.45254  0.00000  0.09492
       7     O     4.17668  4.17668  0.00000 -0.35335
       8     H     0.48082  0.48082  0.00000  0.03836
       9     H     0.47063  0.47063  0.00000  0.05873
      10     C     3.03055  3.03055  0.00000 -0.06109
      11     H     0.44769  0.44769  0.00000  0.10462
      12     H     0.46560  0.46560  0.00000  0.06880
      13     H     0.47314  0.47314  0.00000  0.05371

   Total alpha = 21.00000, Total beta = 21.00000, Total charge =  0.00000
