  ==> Input File <==

--------------------------------------------------------------------------
set {
	reference rhf
	basis 6-31G*
}

set_num_threads( 4 )
memory 2 gb

molecule MOL {
0 1

H	 2.465338	 -2.224223	 0.000000
O	 2.784187	 -1.332015	 0.000000
C	 1.765313	 -0.449364	 0.000000
C	 0.762336	 -0.631764	 -0.946949
C	 1.692900	 0.603213	 0.891612
H	 0.841480	 -1.457357	 -1.628850
C	 -0.306905	 0.238429	 -0.997473
H	 2.451356	 0.767461	 1.631404
C	 0.605283	 1.458030	 0.812897
H	 -1.076777	 0.090183	 -1.731760
C	 -0.402540	 1.303915	 -0.112354
N	 0.533555	 2.569902	 1.758455
H	 -1.225770	 1.987272	 -0.139203
O	 1.420007	 2.681579	 2.550771
O	 -0.405748	 3.300948	 1.683987

	symmetry c1
}
set optking {
	frozen_dihedral = ("
		4 3 2 1
	")
}

ee = optimize('scf')
oeprop('DIPOLE', 'QUADRUPOLE', 'MULLIKEN_CHARGES')
f=open( 'psi4out.xyz', 'w' )
f.write( "15  " )
f.write( str(ee) + "\n" )
f.write( MOL.save_string_xyz() )
f.close()
--------------------------------------------------------------------------

    Molecular point group: c1
  Charge       = 0
  Multiplicity = 1
  Basis Set: 6-31G*
  Basis Set:
  @DF-RHF Final Energy:  -509.02276164665295
    Total Energy =                       -509.0227616466531799
    Molecular point group: c1
  Basis Set: 6-31G*
  Basis Set:
  Basis Set: 6-31G*
  Basis Set:
  @DF-RHF Final Energy:  -509.02446914305136
    Total Energy =                       -509.0244691430509647
  Basis Set: 6-31G*
  Basis Set:
  Basis Set: 6-31G*
  Basis Set:
  @DF-RHF Final Energy:  -509.00871197132409
    Total Energy =                       -509.0087119713242600
  Basis Set: 6-31G*
  Basis Set:
  Basis Set: 6-31G*
  Basis Set:
  @DF-RHF Final Energy:  -509.02412552309431
    Total Energy =                       -509.0241255230945399
  Basis Set: 6-31G*
  Basis Set:
  Basis Set: 6-31G*
  Basis Set:
  @DF-RHF Final Energy:  -509.02464731273170
    Total Energy =                       -509.0246473127317586
  Basis Set: 6-31G*
  Basis Set:
  Basis Set: 6-31G*
  Basis Set:
  @DF-RHF Final Energy:  -509.02465874572977
    Total Energy =                       -509.0246587457297665
  Basis Set: 6-31G*
  Basis Set:
  Charge       = 0
  Multiplicity = 1
  Basis Set: 6-31G*
  Basis Set:

    Orbital Energies (a.u.)
    -----------------------

    Doubly Occupied:

       1A    -20.607384     2A    -20.602610     3A    -20.602230
       4A    -15.857163     5A    -11.325189     6A    -11.309040
       7A    -11.268035     8A    -11.266460     9A    -11.265952
      10A    -11.265026    11A     -1.636034    12A     -1.426122
      13A     -1.419290    14A     -1.200199    15A     -1.094299
      16A     -1.047107    17A     -0.963985    18A     -0.864565
      19A     -0.841263    20A     -0.794055    21A     -0.735035
      22A     -0.732305    23A     -0.718383    24A     -0.710901
      25A     -0.679508    26A     -0.640600    27A     -0.624529
      28A     -0.572620    29A     -0.562706    30A     -0.532122
      31A     -0.513659    32A     -0.489327    33A     -0.486883
      34A     -0.452411    35A     -0.377865    36A     -0.350549

  @DF-RHF Final Energy:  -509.02466215507633

   => Energetics <=

    Nuclear Repulsion Energy =            503.0157746440414144
    One-Electron Energy =               -1692.4100495124321242
    Two-Electron Energy =                 680.3696127133141545
    DFT Exchange-Correlation Energy =       0.0000000000000000
    Empirical Dispersion Energy =           0.0000000000000000
    PCM Polarization Energy =               0.0000000000000000
    EFP Energy =                            0.0000000000000000
    Total Energy =                       -509.0246621550766122
    Molecular point group: c1
  Basis Set: 6-31G*
  Basis Set:

  -Total Gradient:
     Atom            X                  Y                   Z
    ------   -----------------  -----------------  -----------------
       1       -0.000124501368     0.000039120849     0.002033489881
       2        0.000558540125     0.000480984481    -0.003061250771
       3       -0.001037220692    -0.001239098577     0.002260035790
       4        0.000529168174     0.000974032381    -0.001076248525
       5        0.000135475575    -0.000244777098    -0.000078401550
       6        0.000001417445     0.000037776588     0.000028462213
       7        0.000060026661    -0.000170175249    -0.000058162648
       8        0.000014920161    -0.000013632918    -0.000000775546
       9       -0.000216864897     0.000051649823    -0.000147296585
      10       -0.000038353881     0.000044933349    -0.000009124882
      11        0.000104389283     0.000066914424     0.000136252167
      12        0.000074833770    -0.000019008208    -0.000029756042
      13       -0.000021087500    -0.000029758841    -0.000045934022
      14       -0.000086141828     0.000030458843    -0.000010232684
      15        0.000045398975    -0.000009419846     0.000058943204

  **** Optimization is complete! (in 7 steps) ****
    Final optimized geometry and variables:
    Molecular point group: c1

    Geometry (in Angstrom), charge = 0, multiplicity = 1:

    H            1.683800678293    -3.207923265353    -0.589201830690
    O            1.946474902882    -2.297583678703    -0.573346332656
    C            0.863888719001    -1.478378350072    -0.621926456683
    C           -0.131122561417    -1.640522663609    -1.575145002773
    C            0.807295589216    -0.423045497835     0.269914226709
    H           -0.062233964011    -2.450875293485    -2.278933608511
    C           -1.199672820840    -0.761315491240    -1.622661649942
    H            1.578401204433    -0.288938506575     0.999918967932
    C           -0.263823492228     0.446190471763     0.187968869790
    H           -1.968859021609    -0.896941120555    -2.360097447931
    C           -1.278300227414     0.300284783709    -0.738631879040
    N           -0.327072253166     1.561360493419     1.130358860138
    H           -2.092368493682     0.994669516042    -0.764738564211
    O            0.556491942590     1.667256184724     1.924799986882
    O           -1.260769938313     2.300444543096     1.049897533047

  Mulliken Charges: (a.u.)
   Center  Symbol    Alpha    Beta     Spin     Total
       1     H     0.26891  0.26891  0.00000  0.46217
       2     O     4.37958  4.37958  0.00000 -0.75916
       3     C     2.80992  2.80992  0.00000  0.38015
       4     C     3.11531  3.11531  0.00000 -0.23062
       5     C     3.10915  3.10915  0.00000 -0.21829
       6     H     0.38920  0.38920  0.00000  0.22160
       7     C     3.10283  3.10283  0.00000 -0.20567
       8     H     0.35782  0.35782  0.00000  0.28436
       9     C     2.91569  2.91569  0.00000  0.16862
      10     H     0.38680  0.38680  0.00000  0.22640
      11     C     3.09353  3.09353  0.00000 -0.18705
      12     N     3.24101  3.24101  0.00000  0.51797
      13     H     0.36455  0.36455  0.00000  0.27091
      14     O     4.23212  4.23212  0.00000 -0.46425
      15     O     4.23358  4.23358  0.00000 -0.46715

   Total alpha = 36.00000, Total beta = 36.00000, Total charge = -0.00000
