                              Psi4 1.0.54 Driver

  ==> Input File <==

--------------------------------------------------------------------------
set {
	reference rhf
	basis cc-pvtz
}

set_num_threads( 4 )
memory 2 gb

molecule MOL {
0 1

H	 -3.941973	 0.934228	 -0.390224
C	 -3.240162	 0.342701	 0.161016
C	 -2.105997	 -0.000418	 -0.398703
H	 -3.485368	 0.047206	 1.162193
O	 -1.189946	 -0.765863	 0.237511
H	 -1.846458	 0.297311	 -1.398265
C	 0.026572	 -0.995256	 -0.379403
C	 1.057223	 0.049888	 -0.004615
H	 -0.054361	 -1.010670	 -1.459674
H	 0.397526	 -1.952058	 -0.044198
F	 1.215001	 0.890123	 -1.007706
F	 0.687812	 0.748691	 1.047391
F	 2.225048	 -0.482789	 0.261653

	symmetry c1
}
set optking {
	frozen_dihedral = ("
		11 8 7 9
	")
}

ee,wfn = optimize('scf', return_wfn=True)
oeprop( wfn, 'DIPOLE', 'QUADRUPOLE', 'MULLIKEN_CHARGES')
f=open( 'psi4out.xyz', 'w' )
f.write( "13  " )
f.write( str(ee) + "\n" )
f.write( MOL.save_string_xyz() )
f.close()
--------------------------------------------------------------------------

    Molecular point group: c1
  Charge       = 0
  Multiplicity = 1
  Basis Set: CC-PVTZ
  Basis Set:
  @DF-RHF Final Energy:  -527.73570990010217
    Total Energy =                       -527.7357099001020515
    Molecular point group: c1
  Basis Set: CC-PVTZ
  Basis Set:
  Basis Set: CC-PVTZ
  Basis Set:
  @DF-RHF Final Energy:  -527.73668523088111
    Total Energy =                       -527.7366852308812213
  Basis Set: CC-PVTZ
  Basis Set:
  Basis Set: CC-PVTZ
  Basis Set:
  @DF-RHF Final Energy:  -527.73694880538676
    Total Energy =                       -527.7369488053866462
  Basis Set: CC-PVTZ
  Basis Set:
  Basis Set: CC-PVTZ
  Basis Set:
  @DF-RHF Final Energy:  -527.73698284280761
    Total Energy =                       -527.7369828428074925
  Basis Set: CC-PVTZ
  Basis Set:
  @DF-RHF Final Energy:  -527.73699593177139
    Total Energy =                       -527.7369959317713892
  Basis Set: CC-PVTZ
  Basis Set:
  @DF-RHF Final Energy:  -527.73700546534542
    Total Energy =                       -527.7370054653451916
  Basis Set: CC-PVTZ
  Basis Set:
  Basis Set: CC-PVTZ
  Basis Set:
  @DF-RHF Final Energy:  -527.73700943437507
    Total Energy =                       -527.7370094343750679
  Basis Set: CC-PVTZ
  Basis Set:
  Basis Set: CC-PVTZ
  Basis Set:
  @DF-RHF Final Energy:  -527.73701153793445
    Total Energy =                       -527.7370115379339950
  Basis Set: CC-PVTZ
  Basis Set:
  Charge       = 0
  Multiplicity = 1
  Basis Set: CC-PVTZ
  Basis Set:

    Orbital Energies (a.u.)
    -----------------------

    Doubly Occupied:

       1A    -26.340091     2A    -26.339019     3A    -26.338430
       4A    -20.602483     5A    -11.498877     6A    -11.319762
       7A    -11.297978     8A    -11.215327     9A     -1.750186
      10A     -1.647149    11A     -1.643237    12A     -1.443363
      13A     -1.084131    14A     -1.019721    15A     -0.932110
      16A     -0.842909    17A     -0.837688    18A     -0.827324
      19A     -0.798506    20A     -0.727217    21A     -0.721431
      22A     -0.700776    23A     -0.680502    24A     -0.668887
      25A     -0.661547    26A     -0.649741    27A     -0.637871
      28A     -0.587327    29A     -0.566178    30A     -0.527088
      31A     -0.516040    32A     -0.358087

  @DF-RHF Final Energy:  -527.73701231345103

   => Energetics <=

    Nuclear Repulsion Energy =            413.9862220639011525
    One-Electron Energy =               -1551.8845046663220728
    Two-Electron Energy =                 610.1612702889703996
    DFT Exchange-Correlation Energy =       0.0000000000000000
    Empirical Dispersion Energy =           0.0000000000000000
    PCM Polarization Energy =               0.0000000000000000
    EFP Energy =                            0.0000000000000000
    Total Energy =                       -527.7370123134505775
    Molecular point group: c1
  Basis Set: CC-PVTZ
  Basis Set:

  -Total Gradient:
     Atom            X                  Y                   Z
    ------   -----------------  -----------------  -----------------
       1        0.000008900880     0.000004084904     0.000001375615
       2       -0.000020443591     0.000000209515    -0.000007125178
       3        0.000046063911    -0.000003011509     0.000016589879
       4       -0.000002397964    -0.000007225196     0.000009267280
       5        0.000064661003    -0.000020177532    -0.000039468805
       6        0.000004247862     0.000013981023    -0.000003452582
       7        0.004731969025    -0.004051174073    -0.000487463657
       8       -0.004046913842     0.003041535334     0.001689851765
       9       -0.003304016434     0.002826366141     0.000081777048
      10        0.000009853711     0.000020964999     0.000011031251
      11        0.002764728905    -0.002003915520    -0.001237185967
      12       -0.000105887843     0.000090064312     0.000039749622
      13       -0.000150765618     0.000088297605    -0.000074946270

  **** Optimization is complete! (in 9 steps) ****
    Final optimized geometry and variables:
    Molecular point group: c1

    Geometry (in Angstrom), charge = 0, multiplicity = 1:

    H           -3.824922430221     1.024521377663    -0.382007633002
    C           -3.164107298880     0.377286298979     0.157310851617
    C           -2.055896327175    -0.032172871209    -0.409668316594
    H           -3.430313663660     0.077323245336     1.151803530924
    O           -1.198815056183    -0.880210448973     0.203088903546
    H           -1.776027943993     0.269270300241    -1.403786163641
    C            0.055448788008    -1.052671356519    -0.357228836936
    C            1.033785457393     0.070661764197     0.006681041624
    H           -0.010654959381    -1.090198724729    -1.437519197318
    H            0.453733132151    -1.978865973870     0.021660605419
    F            1.182470921377     0.923848256435    -0.989735368953
    F            0.663189204578     0.744894162949     1.062127578127
    F            2.228343611017    -0.435329223352     0.246179955570

  Mulliken Charges: (a.u.)
   Center  Symbol    Alpha    Beta     Spin     Total
       1     H     0.42511  0.42511  0.00000  0.14978
       2     C     3.19337  3.19337  0.00000 -0.38673
       3     C     2.96342  2.96342  0.00000  0.07316
       4     H     0.42444  0.42444  0.00000  0.15112
       5     O     4.14047  4.14047  0.00000 -0.28095
       6     H     0.43374  0.43374  0.00000  0.13251
       7     C     3.02843  3.02843  0.00000 -0.05687
       8     C     2.67457  2.67457  0.00000  0.65087
       9     H     0.45528  0.45528  0.00000  0.08944
      10     H     0.43347  0.43347  0.00000  0.13306
      11     F     4.61391  4.61391  0.00000 -0.22782
      12     F     4.60202  4.60202  0.00000 -0.20404
      13     F     4.61177  4.61177  0.00000 -0.22354

   Total alpha = 32.00000, Total beta = 32.00000, Total charge = -0.00000

*** Psi4 exiting successfully. Buy a developer a beer!
