  ==> Input File <==

--------------------------------------------------------------------------
set {
	reference rhf
	basis 6-31G*
}

set_num_threads( 1 )
memory 2 gb

molecule MOL {
0 1

H	 1.654704	 -1.101639	 0.850172
O	 1.586534	 -0.678666	 -0.000226
C	 0.489431	 0.077273	 0.000046
C	 -0.764129	 -0.759190	 0.000191
O	 0.537743	 1.263962	 0.000257
C	 -2.038368	 0.075731	 -0.000248
H	 -0.717284	 -1.412404	 -0.866059
H	 -0.717458	 -1.411724	 0.866967
H	 -2.086483	 0.712501	 -0.875098
H	 -2.908485	 -0.571682	 -0.000042
H	 -2.086576	 0.713280	 0.874068

	symmetry c1
}
set optking {
	frozen_dihedral = ("
		2 3 4 7
	")
}

ee = energy('scf')
oeprop('DIPOLE', 'QUADRUPOLE', 'MULLIKEN_CHARGES')
f=open( 'psi4out.xyz', 'w' )
f.write( "11  " )
f.write( str(ee) + "\n" )
f.write( MOL.save_string_xyz() )
f.close()
--------------------------------------------------------------------------

    Molecular point group: c1

    Geometry (in Angstrom), charge = 0, multiplicity = 1:

       Center              X                  Y                   Z               Mass
    ------------   -----------------  -----------------  -----------------  -----------------
           H          1.664083619984    -1.088021763254     0.838596358963     1.007825032070
           O          1.595913619984    -0.665048763254    -0.011801641037    15.994914619560
           C          0.498810619984     0.090890236746    -0.011529641037    12.000000000000
           C         -0.754749380016    -0.745572763254    -0.011384641037    12.000000000000
           O          0.547122619984     1.277579236746    -0.011318641037    15.994914619560
           C         -2.028988380016     0.089348236746    -0.011823641037    12.000000000000
           H         -0.707904380016    -1.398786763254    -0.877634641037     1.007825032070
           H         -0.708078380016    -1.398106763254     0.855391358963     1.007825032070
           H         -2.077103380016     0.726118236746    -0.886673641037     1.007825032070
           H         -2.899105380016    -0.558064763254    -0.011617641037     1.007825032070
           H         -2.077196380016     0.726897236746     0.862492358963     1.007825032070

  Charge       = 0
  Multiplicity = 1
  Basis Set: 6-31G*
  Basis Set:

    Orbital Energies (a.u.)
    -----------------------

    Doubly Occupied:

       1A    -20.601807     2A    -20.560445     3A    -11.381013
       4A    -11.248245     5A    -11.222684     6A     -1.469908
       7A     -1.371437     8A     -1.066474     9A     -0.909365
      10A     -0.816532    11A     -0.715946    12A     -0.676406
      13A     -0.661458    14A     -0.619481    15A     -0.573263
      16A     -0.530935    17A     -0.520195    18A     -0.501788
      19A     -0.488679    20A     -0.446046

  @DF-RHF Final Energy:  -266.82335864615334

   => Energetics <=

    Nuclear Repulsion Energy =            179.8790610214821015
    One-Electron Energy =                -720.6406418772780853
    Two-Electron Energy =                 273.9382222096418786
    DFT Exchange-Correlation Energy =       0.0000000000000000
    Empirical Dispersion Energy =           0.0000000000000000
    PCM Polarization Energy =               0.0000000000000000
    EFP Energy =                            0.0000000000000000
    Total Energy =                       -266.8233586461540767

  Mulliken Charges: (a.u.)
   Center  Symbol    Alpha    Beta     Spin     Total
       1     H     0.26698  0.26698  0.00000  0.46604
       2     O     4.35388  4.35388  0.00000 -0.70775
       3     C     2.63307  2.63307  0.00000  0.73386
       4     C     3.21172  3.21172  0.00000 -0.42345
       5     O     4.25200  4.25200  0.00000 -0.50400
       6     C     3.23965  3.23965  0.00000 -0.47930
       7     H     0.39565  0.39565  0.00000  0.20870
       8     H     0.41283  0.41283  0.00000  0.17435
       9     H     0.40687  0.40687  0.00000  0.18626
      10     H     0.41741  0.41741  0.00000  0.16518
      11     H     0.40994  0.40994  0.00000  0.18013

   Total alpha = 20.00000, Total beta = 20.00000, Total charge =  0.00000
