  ==> Input File <==

--------------------------------------------------------------------------
set {
	reference rhf
	basis cc-pvtz
}

set_num_threads( 4 )
memory 2 gb

molecule MOL {
0 1

H	 2.710681	 -0.113361	 0.668574
N	 1.735811	 0.092606	 0.679296
C	 0.987572	 -1.002143	 1.263680
C	 1.264426	 0.408083	 -0.654163
H	 1.353369	 -1.185615	 2.266617
H	 1.093104	 -1.926987	 0.693465
C	 -0.483625	 -0.632843	 1.320894
H	 1.830838	 1.246494	 -1.040939
H	 1.387450	 -0.427662	 -1.345548
C	 -0.207133	 0.775536	 -0.594436
H	 -0.614169	 0.200258	 2.017666
H	 -1.052487	 -1.472282	 1.702806
N	 -0.976577	 -0.298712	 -0.000000
H	 -0.576074	 0.954442	 -1.597429
H	 -0.318629	 1.705662	 -0.029614
C	 -2.391156	 -0.021003	 -0.000000
H	 -2.853954	 -0.458728	 -0.875714
H	 -2.853954	 -0.458728	 0.875714
H	 -2.614037	 1.049773	 -0.000000

	symmetry c1
}
set optking {
	frozen_dihedral = ("
		7 13 16 19
	")
}

ee = optimize('scf')
oeprop('DIPOLE', 'QUADRUPOLE', 'MULLIKEN_CHARGES')
f=open( 'psi4out.xyz', 'w' )
f.write( "19  " )
f.write( str(ee) + "\n" )
f.write( MOL.save_string_xyz() )
f.close()
--------------------------------------------------------------------------

    Molecular point group: c1
  Charge       = 0
  Multiplicity = 1
  Basis Set: CC-PVTZ
  Basis Set:
  @DF-RHF Final Energy:  -305.30460891350498
    Total Energy =                       -305.3046089135049215
    Molecular point group: c1
  Basis Set: CC-PVTZ
  Basis Set:
  Basis Set: CC-PVTZ
  Basis Set:
  @DF-RHF Final Energy:  -305.30511789804194
    Total Energy =                       -305.3051178980418854
  Basis Set: CC-PVTZ
  Basis Set:
  Basis Set: CC-PVTZ
  Basis Set:
  @DF-RHF Final Energy:  -305.30521819513461
    Total Energy =                       -305.3052181951343300
  Basis Set: CC-PVTZ
  Basis Set:
  Charge       = 0
  Multiplicity = 1
  Basis Set: CC-PVTZ
  Basis Set:

    Orbital Energies (a.u.)
    -----------------------

    Doubly Occupied:

       1A    -15.533013     2A    -15.530938     3A    -11.236853
       4A    -11.236743     5A    -11.235866     6A    -11.235802
       7A    -11.233121     8A     -1.247133     9A     -1.185897
      10A     -1.024115    11A     -0.965440    12A     -0.862007
      13A     -0.858633    14A     -0.756062    15A     -0.692125
      16A     -0.633605    17A     -0.626236    18A     -0.607298
      19A     -0.604709    20A     -0.582211    21A     -0.544932
      22A     -0.531325    23A     -0.513591    24A     -0.489171
      25A     -0.469082    26A     -0.457996    27A     -0.365780
      28A     -0.340204

  @DF-RHF Final Energy:  -305.30522431524884

   => Energetics <=

    Nuclear Repulsion Energy =            339.8625152398756768
    One-Electron Energy =               -1087.1356942161241932
    Two-Electron Energy =                 441.9679546609996805
    DFT Exchange-Correlation Energy =       0.0000000000000000
    Empirical Dispersion Energy =           0.0000000000000000
    PCM Polarization Energy =               0.0000000000000000
    EFP Energy =                            0.0000000000000000
    Total Energy =                       -305.3052243152488927
    Molecular point group: c1
  Basis Set: CC-PVTZ
  Basis Set:

  -Total Gradient:
     Atom            X                  Y                   Z
    ------   -----------------  -----------------  -----------------
       1       -0.000031195374    -0.000017190781    -0.000016820755
       2       -0.000068199444     0.000012200057     0.000003185155
       3        0.000029951365     0.000024314857     0.000003276831
       4        0.000018089772    -0.000008027040    -0.000030949359
       5        0.000071065796    -0.000017341193     0.000036168945
       6       -0.000034012661     0.000031494441     0.000012075159
       7       -0.000487930666    -0.003369081188    -0.000613027867
       8        0.000064971317     0.000012321084    -0.000005612739
       9       -0.000007435097     0.000014447772     0.000012808050
      10        0.000073641502     0.000102179829     0.000047849757
      11        0.000010548543    -0.000041837925    -0.000066764663
      12       -0.000001498381     0.000021872343    -0.000056132322
      13        0.000788751960     0.004673199828    -0.000376528082
      14       -0.000003012877    -0.000046677271     0.000036788961
      15       -0.000015938054    -0.000041903413    -0.000015202270
      16       -0.000725764463    -0.001364562963     0.005650774840
      17        0.000054127639    -0.000012408489    -0.000014968227
      18        0.000056811371    -0.000033502241     0.000001268149
      19        0.000207027748     0.000060502292    -0.004608189564

  **** Optimization is complete! (in 4 steps) ****
    Final optimized geometry and variables:
    Molecular point group: c1

    Geometry (in Angstrom), charge = 0, multiplicity = 1:

    H            2.732501327453    -0.031238389166     0.359444733722
    N            1.758559943809     0.178859644357     0.376469156840
    C            1.011019920359    -0.911187942366     0.970307862646
    C            1.279283681403     0.490351628969    -0.954953808240
    H            1.393240138736    -1.102194973660     1.965875107605
    H            1.098891009069    -1.834212479162     0.393825356386
    C           -0.456870902667    -0.531871555290     1.054510688763
    H            1.851565229736     1.319651277656    -1.353011627603
    H            1.387317977958    -0.352084364604    -1.640885399512
    C           -0.187712859280     0.873805778419    -0.883371831990
    H           -0.568771916696     0.285966693507     1.772903264415
    H           -1.023842168248    -1.376319492162     1.426158394742
    N           -0.959086258978    -0.174264595704    -0.254769630680
    H           -0.568614366108     1.033011343045    -1.885843652422
    H           -0.282959016359     1.819161991733    -0.340970227006
    C           -2.385420978697     0.062875687137    -0.304214617901
    H           -2.802406375579    -0.336574522096    -1.223562406729
    H           -2.884574968904    -0.422707703197     0.522947889390
    H           -2.633019540612     1.124519039120    -0.286125082682

  Mulliken Charges: (a.u.)
   Center  Symbol    Alpha    Beta     Spin     Total
       1     H     0.43994  0.43994  0.00000  0.12011
       2     N     3.64272  3.64272  0.00000 -0.28545
       3     C     3.04176  3.04176  0.00000 -0.08352
       4     C     3.04151  3.04151  0.00000 -0.08302
       5     H     0.45266  0.45266  0.00000  0.09467
       6     H     0.46617  0.46617  0.00000  0.06765
       7     C     3.03237  3.03237  0.00000 -0.06474
       8     H     0.45264  0.45264  0.00000  0.09472
       9     H     0.46603  0.46603  0.00000  0.06795
      10     C     3.03383  3.03383  0.00000 -0.06765
      11     H     0.47002  0.47002  0.00000  0.05995
      12     H     0.45440  0.45440  0.00000  0.09120
      13     N     3.61559  3.61559  0.00000 -0.23119
      14     H     0.45430  0.45430  0.00000  0.09140
      15     H     0.46871  0.46871  0.00000  0.06257
      16     C     3.09432  3.09432  0.00000 -0.18863
      17     H     0.45111  0.45111  0.00000  0.09779
      18     H     0.45545  0.45545  0.00000  0.08910
      19     H     0.46645  0.46645  0.00000  0.06710

   Total alpha = 28.00000, Total beta = 28.00000, Total charge =  0.00000
