  ==> Input File <==

--------------------------------------------------------------------------
set {
	reference rhf
	basis 6-31G*
}

set_num_threads( 1 )
memory 2 gb

molecule MOL {
0 1

H	 3.860740	 0.361685	 0.584660
N	 3.050827	 -0.227059	 0.615761
C	 1.841924	 0.544793	 0.366113
H	 3.024331	 -0.634648	 1.531184
C	 0.622008	 -0.369097	 0.317504
H	 1.958498	 1.038518	 -0.593837
H	 1.675464	 1.332566	 1.105102
C	 -0.679275	 0.379305	 0.025956
H	 0.794142	 -1.131033	 -0.437253
H	 0.531323	 -0.892430	 1.268942
C	 -1.903357	 -0.536963	 -0.023547
H	 -0.588213	 0.904960	 -0.923383
H	 -0.836886	 1.145247	 0.783808
C	 -3.225172	 0.228290	 0.028445
H	 -1.867824	 -1.134999	 -0.931459
H	 -1.860449	 -1.239604	 0.805977
H	 -3.313397	 0.915643	 -0.808262
H	 -4.073500	 -0.448134	 -0.008893
H	 -3.306061	 0.809945	 0.942516

	symmetry c1
}
set optking {
	frozen_dihedral = ("
		6 3 5 9,
		12 8 5 9,
		1 2 3 6
	")
}

ee = energy('scf')
oeprop('DIPOLE', 'QUADRUPOLE', 'MULLIKEN_CHARGES')
f=open( 'psi4out.xyz', 'w' )
f.write( "19  " )
f.write( str(ee) + "\n" )
f.write( MOL.save_string_xyz() )
f.close()
--------------------------------------------------------------------------

    Molecular point group: c1

    Geometry (in Angstrom), charge = 0, multiplicity = 1:

       Center              X                  Y                   Z               Mass
    ------------   -----------------  -----------------  -----------------  -----------------
           H          3.877256359793     0.352360945119     0.348837484269     1.007825032070
           N          3.067343359793    -0.236383054881     0.379938484269    14.003074004780
           C          1.858440359793     0.535468945119     0.130290484269    12.000000000000
           H          3.040847359793    -0.643972054881     1.295361484269     1.007825032070
           C          0.638524359793    -0.378421054881     0.081681484269    12.000000000000
           H          1.975014359793     1.029193945119    -0.829659515731     1.007825032070
           H          1.691980359793     1.323241945119     0.869279484269     1.007825032070
           C         -0.662758640207     0.369980945119    -0.209866515731    12.000000000000
           H          0.810658359793    -1.140357054881    -0.673075515731     1.007825032070
           H          0.547839359793    -0.901754054881     1.033119484269     1.007825032070
           C         -1.886840640207    -0.546287054881    -0.259369515731    12.000000000000
           H         -0.571696640207     0.895635945119    -1.159205515731     1.007825032070
           H         -0.820369640207     1.135922945119     0.547985484269     1.007825032070
           C         -3.208655640207     0.218965945119    -0.207377515731    12.000000000000
           H         -1.851307640207    -1.144323054881    -1.167281515731     1.007825032070
           H         -1.843932640207    -1.248928054881     0.570154484269     1.007825032070
           H         -3.296880640207     0.906318945119    -1.044084515731     1.007825032070
           H         -4.056983640207    -0.457458054881    -0.244715515731     1.007825032070
           H         -3.289544640207     0.800620945119     0.706693484269     1.007825032070

  Charge       = 0
  Multiplicity = 1
  Basis Set: 6-31G*
  Basis Set:

    Orbital Energies (a.u.)
    -----------------------

    Doubly Occupied:

       1A    -15.532473     2A    -11.239674     3A    -11.213739
       4A    -11.212526     5A    -11.209503     6A    -11.207595
       7A     -1.176588     8A     -1.072962     9A     -0.998333
      10A     -0.900199    11A     -0.813111    12A     -0.789232
      13A     -0.664004    14A     -0.642987    15A     -0.616220
      16A     -0.588461    17A     -0.563401    18A     -0.551747
      19A     -0.527877    20A     -0.499709    21A     -0.480741
      22A     -0.464949    23A     -0.460318    24A     -0.449394
      25A     -0.380977

  @DF-RHF Final Energy:  -251.35096861719296

   => Energetics <=

    Nuclear Repulsion Energy =            245.7155354365165181
    One-Electron Energy =                -825.6195464024120838
    Two-Electron Energy =                 328.5530423487022063
    DFT Exchange-Correlation Energy =       0.0000000000000000
    Empirical Dispersion Energy =           0.0000000000000000
    PCM Polarization Energy =               0.0000000000000000
    EFP Energy =                            0.0000000000000000
    Total Energy =                       -251.3509686171934163

  Mulliken Charges: (a.u.)
   Center  Symbol    Alpha    Beta     Spin     Total
       1     H     0.33248  0.33248  0.00000  0.33503
       2     N     3.92191  3.92191  0.00000 -0.84381
       3     C     3.06031  3.06031  0.00000 -0.12062
       4     H     0.33538  0.33538  0.00000  0.32924
       5     C     3.15184  3.15184  0.00000 -0.30367
       6     H     0.42088  0.42088  0.00000  0.15823
       7     H     0.43472  0.43472  0.00000  0.13055
       8     C     3.15530  3.15530  0.00000 -0.31060
       9     H     0.41313  0.41313  0.00000  0.17374
      10     H     0.42760  0.42760  0.00000  0.14480
      11     C     3.15109  3.15109  0.00000 -0.30217
      12     H     0.42285  0.42285  0.00000  0.15429
      13     H     0.42494  0.42494  0.00000  0.15012
      14     C     3.23947  3.23947  0.00000 -0.47894
      15     H     0.42137  0.42137  0.00000  0.15727
      16     H     0.42310  0.42310  0.00000  0.15380
      17     H     0.42189  0.42189  0.00000  0.15622
      18     H     0.41954  0.41954  0.00000  0.16093
      19     H     0.42220  0.42220  0.00000  0.15559

   Total alpha = 25.00000, Total beta = 25.00000, Total charge = -0.00000
