  ==> Input File <==

--------------------------------------------------------------------------
set {
	reference rhf
	basis cc-pvtz
}

set_num_threads( 4 )
memory 2 gb

molecule MOL {
0 1

H	 -2.528369	 -0.436055	 -0.497007
N	 -1.851927	 0.161443	 -0.071573
C	 -0.561396	 -0.500007	 0.035200
H	 -2.202096	 0.407544	 0.830731
C	 0.575129	 0.507849	 -0.048832
H	 -0.478089	 -1.200753	 -0.788956
H	 -0.456191	 -1.081816	 0.952176
C	 1.951750	 -0.141983	 0.035101
H	 0.478254	 1.061643	 -0.975981
H	 0.467676	 1.231891	 0.755499
H	 2.101550	 -0.848142	 -0.774949
H	 2.738260	 0.600794	 -0.026526
H	 2.078939	 -0.679792	 0.968824

	symmetry c1
}
set optking {
	frozen_dihedral = ("
		1 2 3 6
	")
}

ee = optimize('scf')
oeprop('DIPOLE', 'QUADRUPOLE', 'MULLIKEN_CHARGES')
f=open( 'psi4out.xyz', 'w' )
f.write( "13  " )
f.write( str(ee) + "\n" )
f.write( MOL.save_string_xyz() )
f.close()
--------------------------------------------------------------------------

    Molecular point group: c1
  Charge       = 0
  Multiplicity = 1
  Basis Set: CC-PVTZ
  Basis Set:
  @DF-RHF Final Energy:  -173.35117147622813
    Total Energy =                       -173.3511714762279894
    Molecular point group: c1
  Basis Set: CC-PVTZ
  Basis Set:
  Basis Set: CC-PVTZ
  Basis Set:
  @DF-RHF Final Energy:  -173.35135085309722
    Total Energy =                       -173.3513508530970739
  Basis Set: CC-PVTZ
  Basis Set:
  Basis Set: CC-PVTZ
  Basis Set:
  @DF-RHF Final Energy:  -173.35139304220576
    Total Energy =                       -173.3513930422057285
  Basis Set: CC-PVTZ
  Basis Set:
  Basis Set: CC-PVTZ
  Basis Set:
  @DF-RHF Final Energy:  -173.35139480438875
    Total Energy =                       -173.3513948043888604
  Basis Set: CC-PVTZ
  Basis Set:
  Charge       = 0
  Multiplicity = 1
  Basis Set: CC-PVTZ
  Basis Set:

    Orbital Energies (a.u.)
    -----------------------

    Doubly Occupied:

       1A    -15.525343     2A    -11.238735     3A    -11.206623
       4A    -11.205155     5A     -1.176360     6A     -1.034796
       7A     -0.899078     8A     -0.797081     9A     -0.672931
      10A     -0.619875    11A     -0.604184    12A     -0.571012
      13A     -0.522911    14A     -0.491406    15A     -0.483078
      16A     -0.465526    17A     -0.380435

  @DF-RHF Final Energy:  -173.35139502592691

   => Energetics <=

    Nuclear Repulsion Energy =            131.7688018984048028
    One-Electron Energy =                -494.4513320808762273
    Two-Electron Energy =                 189.3311351565446898
    DFT Exchange-Correlation Energy =       0.0000000000000000
    Empirical Dispersion Energy =           0.0000000000000000
    PCM Polarization Energy =               0.0000000000000000
    EFP Energy =                            0.0000000000000000
    Total Energy =                       -173.3513950259267062
    Molecular point group: c1
  Basis Set: CC-PVTZ
  Basis Set:

  -Total Gradient:
     Atom            X                  Y                   Z
    ------   -----------------  -----------------  -----------------
       1        0.000593019957     0.000872151219    -0.002220350622
       2       -0.000976240551    -0.001438409694     0.003079686454
       3        0.001241852837     0.002167187235    -0.002138672629
       4        0.000010792753     0.000001977289    -0.000002764887
       5       -0.000041676553    -0.000040753711     0.000021700935
       6       -0.000863118811    -0.001582360643     0.001250183898
       7        0.000010632855     0.000006429027     0.000014658843
       8        0.000015792766     0.000016290608    -0.000010908489
       9        0.000002094364    -0.000005591700     0.000006314951
      10       -0.000001193692     0.000001310561     0.000002374418
      11       -0.000003201308     0.000001819129     0.000003876207
      12        0.000016718205    -0.000007641466    -0.000001706968
      13       -0.000005472821     0.000007592145    -0.000004392110

  **** Optimization is complete! (in 5 steps) ****
    Final optimized geometry and variables:
    Molecular point group: c1

    Geometry (in Angstrom), charge = 0, multiplicity = 1:

    H           -2.543543860470    -0.439103443608    -0.465734329560
    N           -1.856788703081     0.155105948732    -0.057585068105
    C           -0.556669534686    -0.493279016171     0.026398369655
    H           -2.187631201581     0.452953430074     0.833902113691
    C            0.579714375239     0.516237109294    -0.046358691887
    H           -0.475645169869    -1.197544330254    -0.794776581978
    H           -0.449233019376    -1.085986801885     0.935344450692
    C            1.956627468152    -0.132021598616     0.045225533137
    H            0.487254902718     1.073579711131    -0.971796887440
    H            0.461098309666     1.237205921203     0.758141924292
    H            2.112530982531    -0.838507636994    -0.763796483137
    H            2.743257679642     0.611075664378    -0.011611947441
    H            2.079164962029    -0.670168418880     0.979606309441

  Mulliken Charges: (a.u.)
   Center  Symbol    Alpha    Beta     Spin     Total
       1     H     0.42575  0.42575  0.00000  0.14851
       2     N     3.69580  3.69580  0.00000 -0.39161
       3     C     3.03124  3.03124  0.00000 -0.06248
       4     H     0.42858  0.42858  0.00000  0.14284
       5     C     3.06757  3.06757  0.00000 -0.13514
       6     H     0.45724  0.45724  0.00000  0.08551
       7     H     0.46613  0.46613  0.00000  0.06774
       8     C     3.15454  3.15454  0.00000 -0.30907
       9     H     0.45229  0.45229  0.00000  0.09541
      10     H     0.45964  0.45964  0.00000  0.08073
      11     H     0.45630  0.45630  0.00000  0.08740
      12     H     0.44772  0.44772  0.00000  0.10456
      13     H     0.45720  0.45720  0.00000  0.08559

   Total alpha = 17.00000, Total beta = 17.00000, Total charge = -0.00000
