  ==> Input File <==

--------------------------------------------------------------------------
set {
	reference rhf
	basis 6-31G*
}

set_num_threads( 4 )
memory 2 gb

molecule MOL {
0 1

H	 -2.277791	 0.215240	 0.661125
C	 -1.978518	 -0.409957	 -0.174774
O	 -0.774054	 0.001095	 -0.743181
H	 -2.729423	 -0.323316	 -0.948703
H	 -1.949471	 -1.443549	 0.156943
C	 0.406953	 0.000033	 0.038965
C	 1.527284	 -0.003667	 -0.998752
C	 0.498933	 1.262172	 0.902524
C	 0.494271	 -1.259566	 0.906664
H	 1.452513	 0.873252	 -1.631882
H	 1.448863	 -0.881882	 -1.629595
H	 2.502020	 -0.005104	 -0.521731
H	 0.364280	 2.147110	 0.289513
H	 1.472180	 1.321775	 1.378800
H	 -0.247853	 1.275162	 1.689097
H	 0.356778	 -2.146106	 0.296587
H	 1.467182	 -1.320941	 1.383330
H	 -0.252763	 -1.267328	 1.693119

	symmetry c1
}
set optking {
	frozen_dihedral = ("
		2 3 6 7
	")
}

ee = optimize('scf')
oeprop('DIPOLE', 'QUADRUPOLE', 'MULLIKEN_CHARGES')
f=open( 'psi4out.xyz', 'w' )
f.write( "18  " )
f.write( str(ee) + "\n" )
f.write( MOL.save_string_xyz() )
f.close()
--------------------------------------------------------------------------

    Molecular point group: c1
  Charge       = 0
  Multiplicity = 1
  Basis Set: 6-31G*
  Basis Set:
  @DF-RHF Final Energy:  -271.17426437823411
    Total Energy =                       -271.1742643782341702
    Molecular point group: c1
  Basis Set: 6-31G*
  Basis Set:
  Basis Set: 6-31G*
  Basis Set:
  @DF-RHF Final Energy:  -271.17473434707432
    Total Energy =                       -271.1747343470741498
  Basis Set: 6-31G*
  Basis Set:
  Basis Set: 6-31G*
  Basis Set:
  @DF-RHF Final Energy:  -271.17482296421775
    Total Energy =                       -271.1748229642179240
  Basis Set: 6-31G*
  Basis Set:
  Basis Set: 6-31G*
  Basis Set:
  @DF-RHF Final Energy:  -271.17484533985180
    Total Energy =                       -271.1748453398515721
  Basis Set: 6-31G*
  Basis Set:
  Basis Set: 6-31G*
  Basis Set:
  @DF-RHF Final Energy:  -271.17490606082606
    Total Energy =                       -271.1749060608259470
  Basis Set: 6-31G*
  Basis Set:
  Basis Set: 6-31G*
  Basis Set:
  @DF-RHF Final Energy:  -271.17490816868514
    Total Energy =                       -271.1749081686849649
  Basis Set: 6-31G*
  Basis Set:
  Charge       = 0
  Multiplicity = 1
  Basis Set: 6-31G*
  Basis Set:

    Orbital Energies (a.u.)
    -----------------------

    Doubly Occupied:

       1A    -20.546196     2A    -11.281326     3A    -11.261225
       4A    -11.211249     5A    -11.206352     6A    -11.203362
       7A     -1.369554     8A     -1.073120     9A     -0.947817
      10A     -0.938146    11A     -0.912121    12A     -0.752109
      13A     -0.655757    14A     -0.645247    15A     -0.637584
      16A     -0.590047    17A     -0.573895    18A     -0.552156
      19A     -0.535384    20A     -0.524691    21A     -0.514898
      22A     -0.490364    23A     -0.485111    24A     -0.439753
      25A     -0.402174

  @DF-RHF Final Energy:  -271.17490717427876

   => Energetics <=

    Nuclear Repulsion Energy =            272.3256508750937996
    One-Electron Energy =                -907.5018428494265663
    Two-Electron Energy =                 364.0012848000539520
    DFT Exchange-Correlation Energy =       0.0000000000000000
    Empirical Dispersion Energy =           0.0000000000000000
    PCM Polarization Energy =               0.0000000000000000
    EFP Energy =                            0.0000000000000000
    Total Energy =                       -271.1749071742788715
    Molecular point group: c1
  Basis Set: 6-31G*
  Basis Set:

  -Total Gradient:
     Atom            X                  Y                   Z
    ------   -----------------  -----------------  -----------------
       1        0.000023886728     0.000034294010     0.000035126449
       2        0.000375887494    -0.002038010552    -0.000614707729
       3       -0.000565519635     0.002650934745     0.001024995128
       4        0.000013732820     0.000001044753    -0.000016944861
       5       -0.000011989824     0.000035799600    -0.000007518812
       6        0.000277207986     0.001101983008    -0.000335563545
       7        0.000048898782    -0.001738459234    -0.000017836425
       8       -0.000122914459    -0.000036759195    -0.000078362447
       9        0.000002076167     0.000001917002     0.000032561825
      10        0.000009244254    -0.000017462059    -0.000040469531
      11        0.000000277652    -0.000004249783     0.000034987835
      12        0.000012328119     0.000039459569    -0.000011410614
      13       -0.000041206862     0.000018050919     0.000026954168
      14        0.000023411026    -0.000036371578    -0.000062861342
      15       -0.000018626798    -0.000013189249     0.000030174721
      16        0.000031078370     0.000000386516    -0.000015971232
      17       -0.000031675727     0.000007749844     0.000011913557
      18       -0.000026096094    -0.000007118318     0.000004932854

  **** Optimization is complete! (in 7 steps) ****
    Final optimized geometry and variables:
    Molecular point group: c1

    Geometry (in Angstrom), charge = 0, multiplicity = 1:

    H           -2.207348763724     0.206557595846     0.769672949130
    C           -1.988120509664    -0.321662628129    -0.154780310567
    O           -0.784164345584     0.080529643979    -0.729656005360
    H           -2.765358997103    -0.088467101640    -0.870373884959
    H           -2.012925692731    -1.388822992665     0.042356714405
    C            0.403481829217     0.065097342512     0.045065199492
    C            1.526280784206     0.055342515761    -0.989861003883
    C            0.466844578581     1.333777745955     0.898900621920
    C            0.509754488554    -1.185328192551     0.924395140644
    H            1.427921815758     0.905626527776    -1.655397218769
    H            1.475753220841    -0.847490153425    -1.587950511463
    H            2.499671832520     0.101998260610    -0.511887755850
    H            0.385927905758     2.211565395009     0.267447029732
    H            1.403468041533     1.387346575887     1.445114558404
    H           -0.339866396263     1.364432210215     1.624252675124
    H            0.397538317066    -2.085121434437     0.328355171051
    H            1.484046542459    -1.217036391181     1.400352478496
    H           -0.236910919797    -1.200290733476     1.711022239014

  Mulliken Charges: (a.u.)
   Center  Symbol    Alpha    Beta     Spin     Total
       1     H     0.43180  0.43180  0.00000  0.13640
       2     C     3.07860  3.07860  0.00000 -0.15720
       3     O     4.32001  4.32001  0.00000 -0.64003
       4     H     0.41266  0.41266  0.00000  0.17468
       5     H     0.42769  0.42769  0.00000  0.14461
       6     C     2.84235  2.84235  0.00000  0.31529
       7     C     3.23273  3.23273  0.00000 -0.46545
       8     C     3.23883  3.23883  0.00000 -0.47765
       9     C     3.25396  3.25396  0.00000 -0.50792
      10     H     0.41318  0.41318  0.00000  0.17365
      11     H     0.41590  0.41590  0.00000  0.16820
      12     H     0.42528  0.42528  0.00000  0.14945
      13     H     0.41344  0.41344  0.00000  0.17313
      14     H     0.42301  0.42301  0.00000  0.15398
      15     H     0.42126  0.42126  0.00000  0.15747
      16     H     0.41393  0.41393  0.00000  0.17214
      17     H     0.41676  0.41676  0.00000  0.16647
      18     H     0.41862  0.41862  0.00000  0.16276

   Total alpha = 25.00000, Total beta = 25.00000, Total charge =  0.00000
