                              Psi4 1.0.54 Driver

  ==> Input File <==

--------------------------------------------------------------------------
set {
	reference rhf
	basis cc-pvtz
}

set_num_threads( 4 )
memory 2 gb

molecule MOL {
0 1

O	 -1.693088	 -0.744231	 -0.369068
C	 -1.081510	 0.147522	 0.122720
C	 0.327029	 -0.064006	 0.641890
C	 -1.676255	 1.527248	 0.274057
C	 1.349460	 -0.017068	 -0.500215
H	 0.399029	 -1.014606	 1.159950
H	 0.538021	 0.726928	 1.350471
C	 2.779782	 -0.209014	 -0.009215
H	 1.115007	 -0.782959	 -1.233891
H	 1.259071	 0.936707	 -1.006644
H	 3.481860	 -0.160270	 -0.833072
H	 2.903471	 -1.171535	 0.475559
H	 3.052569	 0.559584	 0.705428
H	 -1.558179	 1.885475	 1.290663
H	 -2.721355	 1.513153	 0.005608
H	 -1.144993	 2.218079	 -0.372754

	symmetry c1
}
set optking {
	frozen_dihedral = ("
		4 2 3 5
	")
}

ee,wfn = optimize('scf', return_wfn=True)
oeprop( wfn, 'DIPOLE', 'QUADRUPOLE', 'MULLIKEN_CHARGES')
f=open( 'psi4out.xyz', 'w' )
f.write( "16  " )
f.write( str(ee) + "\n" )
f.write( MOL.save_string_xyz() )
f.close()
--------------------------------------------------------------------------

    Molecular point group: c1
  Charge       = 0
  Multiplicity = 1
  Basis Set: CC-PVTZ
  Basis Set:
  @DF-RHF Final Energy:  -270.12832557668526
    Total Energy =                       -270.1283255766853699
    Molecular point group: c1
  Basis Set: CC-PVTZ
  Basis Set:
  Basis Set: CC-PVTZ
  Basis Set:
  @DF-RHF Final Energy:  -270.12442013290445
    Total Energy =                       -270.1244201329044472
  Basis Set: CC-PVTZ
  Basis Set:
  Basis Set: CC-PVTZ
  Basis Set:
  @DF-RHF Final Energy:  -270.12860893237780
    Total Energy =                       -270.1286089323778583
  Basis Set: CC-PVTZ
  Basis Set:
  Basis Set: CC-PVTZ
  Basis Set:
  @DF-RHF Final Energy:  -270.12857196144290
    Total Energy =                       -270.1285719614430718
  Basis Set: CC-PVTZ
  Basis Set:
  @DF-RHF Final Energy:  -270.12935071420702
    Total Energy =                       -270.1293507142069075
  @DF-RHF Final Energy:  -270.12938657462365
    Total Energy =                       -270.1293865746234815
  Basis Set: CC-PVTZ
  Basis Set:
  @DF-RHF Final Energy:  -270.12936717193429
    Total Energy =                       -270.1293671719344616
  Basis Set: CC-PVTZ
  Basis Set:
  Basis Set: CC-PVTZ
  Basis Set:
  @DF-RHF Final Energy:  -270.12943200608692
    Total Energy =                       -270.1294320060868586
  Basis Set: CC-PVTZ
  Basis Set:
  Basis Set: CC-PVTZ
  Basis Set:
  @DF-RHF Final Energy:  -270.12943331434121
    Total Energy =                       -270.1294333143413837
  Basis Set: CC-PVTZ
  Basis Set:
  Charge       = 0
  Multiplicity = 1
  Basis Set: CC-PVTZ
  Basis Set:

    Orbital Energies (a.u.)
    -----------------------

    Doubly Occupied:

       1A    -20.537320     2A    -11.319966     3A    -11.230636
       4A    -11.228441     5A    -11.227531     6A    -11.217093
       7A     -1.397597     8A     -1.083218     9A     -1.014574
      10A     -0.950304    11A     -0.828944    12A     -0.736473
      13A     -0.661079    14A     -0.651046    15A     -0.614084
      16A     -0.609004    17A     -0.576336    18A     -0.560292
      19A     -0.539060    20A     -0.518774    21A     -0.504035
      22A     -0.484574    23A     -0.474084    24A     -0.400569

  @DF-RHF Final Energy:  -270.12943339985515

   => Energetics <=

    Nuclear Repulsion Energy =            237.5178218877337031
    One-Electron Energy =                -836.5644457570792838
    Two-Electron Energy =                 328.9171904694904924
    DFT Exchange-Correlation Energy =       0.0000000000000000
    Empirical Dispersion Energy =           0.0000000000000000
    PCM Polarization Energy =               0.0000000000000000
    EFP Energy =                            0.0000000000000000
    Total Energy =                       -270.1294333998550883
    Molecular point group: c1
  Basis Set: CC-PVTZ
  Basis Set:

  -Total Gradient:
     Atom            X                  Y                   Z
    ------   -----------------  -----------------  -----------------
       1        0.000003245728    -0.000003213488     0.000002106127
       2        0.000058474913    -0.000027008246    -0.000206282160
       3        0.000002444260     0.000189746325     0.000054452413
       4       -0.000039913081    -0.000008281107     0.000140936949
       5       -0.000012954325    -0.000137954356     0.000011066334
       6       -0.000006059072     0.000001967516     0.000002646332
       7       -0.000006307422    -0.000005515546     0.000001208474
       8       -0.000003075394    -0.000002113960    -0.000003539601
       9        0.000005321313     0.000001905557     0.000002562173
      10        0.000004312720     0.000001149685    -0.000006442583
      11       -0.000000891974    -0.000000331472     0.000001166641
      12       -0.000001446200     0.000001670199    -0.000000360452
      13       -0.000001717448    -0.000001095754    -0.000002341377
      14       -0.000001518496    -0.000006874124    -0.000000243956
      15        0.000000590663     0.000003249574     0.000002925718
      16       -0.000000506184    -0.000007300803     0.000000138966

  **** Optimization is complete! (in 10 steps) ****
    Final optimized geometry and variables:
    Molecular point group: c1

    Geometry (in Angstrom), charge = 0, multiplicity = 1:

    O           -1.670242383666    -0.958132561878    -0.166976816798
    C           -1.085700031954     0.026201324926     0.149950586555
    C            0.352151704933    -0.040340352160     0.627304538519
    C           -1.731079843789     1.389139329561     0.079687433672
    C            1.319929970125    -0.167961270256    -0.555137100049
    H            0.444995748656    -0.909873131346     1.266265411943
    H            0.598376988638     0.839097558836     1.212621581580
    C            2.775071771506    -0.257678929649    -0.110135970227
    H            1.053468948302    -1.049313235438    -1.126015353203
    H            1.198550272449     0.682513288907    -1.220147287883
    H            3.435827318417    -0.352894702906    -0.963580812305
    H            2.933942268227    -1.118212619204     0.530343980845
    H            3.072991382246     0.626754395101     0.442864309069
    H           -1.845094569870     1.783251186113     1.084450447644
    H           -2.698532068912     1.319510380711    -0.393270654061
    H           -1.099146392530     2.081557837230    -0.465664132062

  Mulliken Charges: (a.u.)
   Center  Symbol    Alpha    Beta     Spin     Total
       1     O     4.17725  4.17725  0.00000 -0.35449
       2     C     2.85759  2.85759  0.00000  0.28481
       3     C     3.09888  3.09888  0.00000 -0.19776
       4     C     3.15462  3.15462  0.00000 -0.30924
       5     C     3.09043  3.09043  0.00000 -0.18086
       6     H     0.43977  0.43977  0.00000  0.12046
       7     H     0.44988  0.44988  0.00000  0.10025
       8     C     3.14901  3.14901  0.00000 -0.29802
       9     H     0.44066  0.44066  0.00000  0.11869
      10     H     0.45308  0.45308  0.00000  0.09384
      11     H     0.44619  0.44619  0.00000  0.10763
      12     H     0.45201  0.45201  0.00000  0.09598
      13     H     0.45518  0.45518  0.00000  0.08964
      14     H     0.44845  0.44845  0.00000  0.10311
      15     H     0.43618  0.43618  0.00000  0.12764
      16     H     0.45083  0.45083  0.00000  0.09833

   Total alpha = 24.00000, Total beta = 24.00000, Total charge = -0.00000

*** Psi4 exiting successfully. Buy a developer a beer!
