                              Psi4 1.0.54 Driver

  ==> Input File <==

--------------------------------------------------------------------------
set {
	reference rhf
	basis cc-pvtz
}

set_num_threads( 4 )
memory 2 gb

molecule MOL {
0 1

H	 2.462485	 -2.216993	 0.000000
O	 2.777472	 -1.330706	 0.000000
C	 1.763288	 -0.447523	 0.000000
C	 0.520872	 -0.899476	 -0.421024
C	 1.922231	 0.862808	 0.397654
H	 0.419275	 -1.922128	 -0.726008
C	 -0.553904	 -0.040545	 -0.442164
H	 2.868793	 1.238162	 0.726936
C	 0.822123	 1.696696	 0.363585
H	 -1.510271	 -0.398664	 -0.769059
C	 -0.419138	 1.280060	 -0.047469
N	 0.998641	 3.090012	 0.788217
H	 -1.244303	 1.958074	 -0.058604
O	 2.081566	 3.423923	 1.138719
O	 0.049765	 3.798021	 0.755746

	symmetry c1
}
set optking {
	frozen_dihedral = ("
		4 3 2 1
	")
}

ee,wfn = optimize('scf', return_wfn=True)
oeprop( wfn, 'DIPOLE', 'QUADRUPOLE', 'MULLIKEN_CHARGES')
f=open( 'psi4out.xyz', 'w' )
f.write( "15  " )
f.write( str(ee) + "\n" )
f.write( MOL.save_string_xyz() )
f.close()
--------------------------------------------------------------------------

    Molecular point group: c1
  Charge       = 0
  Multiplicity = 1
  Basis Set: CC-PVTZ
  Basis Set:
  @DF-RHF Final Energy:  -509.21562761049796
    Total Energy =                       -509.2156276104981316
    Molecular point group: c1
  Basis Set: CC-PVTZ
  Basis Set:
  Basis Set: CC-PVTZ
  Basis Set:
  @DF-RHF Final Energy:  -509.21764904411936
    Total Energy =                       -509.2176490441192982
  Basis Set: CC-PVTZ
  Basis Set:
  Basis Set: CC-PVTZ
  Basis Set:
  @DF-RHF Final Energy:  -509.21069748266797
    Total Energy =                       -509.2106974826679107
  Basis Set: CC-PVTZ
  Basis Set:
  Basis Set: CC-PVTZ
  Basis Set:
  @DF-RHF Final Energy:  -509.21768355785008
    Total Energy =                       -509.2176835578497958
  Basis Set: CC-PVTZ
  Basis Set:
  Basis Set: CC-PVTZ
  Basis Set:
  @DF-RHF Final Energy:  -509.21752360020361
    Total Energy =                       -509.2175236002035490
  Basis Set: CC-PVTZ
  Basis Set:
  Basis Set: CC-PVTZ
  Basis Set:
  @DF-RHF Final Energy:  -509.21783558691766
    Total Energy =                       -509.2178355869175448
  Basis Set: CC-PVTZ
  Basis Set:
  Basis Set: CC-PVTZ
  Basis Set:
  @DF-RHF Final Energy:  -509.21786349714819
    Total Energy =                       -509.2178634971478459
  Basis Set: CC-PVTZ
  Basis Set:
  Charge       = 0
  Multiplicity = 1
  Basis Set: CC-PVTZ
  Basis Set:

    Orbital Energies (a.u.)
    -----------------------

    Doubly Occupied:

       1A    -20.606993     2A    -20.592382     3A    -20.592145
       4A    -15.848014     5A    -11.326895     6A    -11.307472
       7A    -11.264632     8A    -11.261490     9A    -11.259154
      10A    -11.257877    11A     -1.641785    12A     -1.439256
      13A     -1.424317    14A     -1.201928    15A     -1.094428
      16A     -1.049306    17A     -0.964839    18A     -0.866338
      19A     -0.850486    20A     -0.800279    21A     -0.741065
      22A     -0.737947    23A     -0.721828    24A     -0.712530
      25A     -0.682482    26A     -0.637976    27A     -0.625322
      28A     -0.593144    29A     -0.566764    30A     -0.539164
      31A     -0.519614    32A     -0.492308    33A     -0.491549
      34A     -0.457485    35A     -0.381166    36A     -0.346654

  @DF-RHF Final Energy:  -509.21786594848027

   => Energetics <=

    Nuclear Repulsion Energy =            504.5653799754021520
    One-Electron Energy =               -1695.7724625576684048
    Two-Electron Energy =                 681.9892166337857589
    DFT Exchange-Correlation Energy =       0.0000000000000000
    Empirical Dispersion Energy =           0.0000000000000000
    PCM Polarization Energy =               0.0000000000000000
    EFP Energy =                            0.0000000000000000
    Total Energy =                       -509.2178659484803802
    Molecular point group: c1
  Basis Set: CC-PVTZ
  Basis Set:

  -Total Gradient:
     Atom            X                  Y                   Z
    ------   -----------------  -----------------  -----------------
       1       -0.000038767708    -0.000004997500     0.001536687963
       2        0.000175728794     0.000197111359    -0.002498673543
       3       -0.000153942043    -0.000317258029     0.002107749391
       4       -0.000009603451     0.000363245419    -0.001112312734
       5        0.000054862770    -0.000148505927    -0.000018444268
       6        0.000005592426     0.000016298013     0.000010999927
       7        0.000055859550    -0.000191554132    -0.000043708442
       8        0.000028172019    -0.000006734962     0.000005744526
       9       -0.000225914893    -0.000018749600    -0.000069341405
      10       -0.000032131155     0.000033792355     0.000004303784
      11        0.000164883123     0.000140652295     0.000066765923
      12        0.000045031094    -0.000032414700     0.000125600959
      13       -0.000036404843    -0.000020270488    -0.000012574573
      14        0.000224259285    -0.000070629324    -0.000010932810
      15       -0.000257624973     0.000060015218    -0.000091864698

  **** Optimization is complete! (in 8 steps) ****
    Final optimized geometry and variables:
    Molecular point group: c1

    Geometry (in Angstrom), charge = 0, multiplicity = 1:

    H            1.536651619439    -3.368376326906    -0.266576236838
    O            1.780895739705    -2.460335932441    -0.255573620587
    C            0.698038921277    -1.659454560160    -0.274024164459
    C           -0.543515696297    -2.094285580094    -0.702403890102
    C            0.872062867401    -0.346802198992     0.122474588461
    H           -0.671919269300    -3.111741292131    -1.022495022155
    C           -1.615531194170    -1.222955253726    -0.721736316767
    H            1.828812698925    -0.002496185701     0.449965921696
    C           -0.214472782442     0.495166793369     0.082308085795
    H           -2.574222939711    -1.571758651372    -1.051902581575
    C           -1.465725917616     0.090581003439    -0.329605220850
    N           -0.027698951972     1.889152639248     0.504230585488
    H           -2.282370035867     0.778650965509    -0.342155631514
    O            1.056135212832     2.217280575451     0.852944451201
    O           -0.974090721148     2.602036850941     0.469574716998

  Mulliken Charges: (a.u.)
   Center  Symbol    Alpha    Beta     Spin     Total
       1     H     0.38536  0.38536  0.00000  0.22928
       2     O     4.16918  4.16918  0.00000 -0.33837
       3     C     2.85196  2.85196  0.00000  0.29608
       4     C     3.11879  3.11879  0.00000 -0.23759
       5     C     3.10801  3.10801  0.00000 -0.21602
       6     H     0.42667  0.42667  0.00000  0.14666
       7     C     3.06312  3.06312  0.00000 -0.12625
       8     H     0.39394  0.39394  0.00000  0.21212
       9     C     2.96920  2.96920  0.00000  0.06160
      10     H     0.41597  0.41597  0.00000  0.16806
      11     C     3.09634  3.09634  0.00000 -0.19268
      12     N     3.25114  3.25114  0.00000  0.49772
      13     H     0.39943  0.39943  0.00000  0.20114
      14     O     4.17466  4.17466  0.00000 -0.34932
      15     O     4.17622  4.17622  0.00000 -0.35243

   Total alpha = 36.00000, Total beta = 36.00000, Total charge = -0.00000

*** Psi4 exiting successfully. Buy a developer a beer!
