  ==> Input File <==

--------------------------------------------------------------------------
set {
	reference rhf
	basis 6-31G*
}

set_num_threads( 4 )
memory 2 gb

molecule MOL {
0 1

H	 -1.631476	 2.256091	 0.543311
C	 -1.708171	 1.443783	 1.255786
C	 -0.406864	 0.653577	 1.326018
H	 -2.530206	 0.811465	 0.943192
H	 -1.948383	 1.862282	 2.227605
C	 -0.000005	 0.033229	 -0.000001
H	 -0.479813	 -0.145504	 2.061236
H	 0.411068	 1.286442	 1.664934
C	 1.290528	 -0.768786	 0.000276
O	 -0.657298	 0.168229	 -0.986371
C	 2.545731	 0.095645	 -0.000061
H	 1.275672	 -1.427874	 -0.865626
H	 1.275566	 -1.427086	 0.866768
H	 2.577157	 0.734767	 -0.874036
H	 3.433520	 -0.528139	 0.000137
H	 2.577172	 0.735117	 0.873581

	symmetry c1
}
set optking {
	frozen_dihedral = ("
		3 6 9 12
	")
}

ee = optimize('scf')
oeprop('DIPOLE', 'QUADRUPOLE', 'MULLIKEN_CHARGES')
f=open( 'psi4out.xyz', 'w' )
f.write( "16  " )
f.write( str(ee) + "\n" )
f.write( MOL.save_string_xyz() )
f.close()
--------------------------------------------------------------------------

    Molecular point group: c1
  Charge       = 0
  Multiplicity = 1
  Basis Set: 6-31G*
  Basis Set:
  @DF-RHF Final Energy:  -270.03026893299887
    Total Energy =                       -270.0302689329987516
    Molecular point group: c1
  Basis Set: 6-31G*
  Basis Set:
  Basis Set: 6-31G*
  Basis Set:
  @DF-RHF Final Energy:  -270.03088048046277
    Total Energy =                       -270.0308804804628267
  Basis Set: 6-31G*
  Basis Set:
  Basis Set: 6-31G*
  Basis Set:
  @DF-RHF Final Energy:  -270.03083848686327
    Total Energy =                       -270.0308384868632174
  Basis Set: 6-31G*
  Basis Set:
  Basis Set: 6-31G*
  Basis Set:
  @DF-RHF Final Energy:  -270.03094246409745
    Total Energy =                       -270.0309424640977909
  Basis Set: 6-31G*
  Basis Set:
  Basis Set: 6-31G*
  Basis Set:
  @DF-RHF Final Energy:  -270.03096608638089
    Total Energy =                       -270.0309660863807721
  Basis Set: 6-31G*
  Basis Set:
  Basis Set: 6-31G*
  Basis Set:
  @DF-RHF Final Energy:  -270.03096842479761
    Total Energy =                       -270.0309684247974360
  Basis Set: 6-31G*
  Basis Set:
  Charge       = 0
  Multiplicity = 1
  Basis Set: 6-31G*
  Basis Set:

    Orbital Energies (a.u.)
    -----------------------

    Doubly Occupied:

       1A    -20.549203     2A    -11.322595     3A    -11.233633
       4A    -11.232330     5A    -11.229184     6A    -11.213112
       7A     -1.394428     8A     -1.071973     9A     -1.035995
      10A     -0.910835    11A     -0.858084    12A     -0.726232
      13A     -0.663520    14A     -0.641399    15A     -0.626242
      16A     -0.604576    17A     -0.562800    18A     -0.540354
      19A     -0.532974    20A     -0.510135    21A     -0.503575
      22A     -0.497988    23A     -0.478781    24A     -0.396545

  @DF-RHF Final Energy:  -270.03096897487842

   => Energetics <=

    Nuclear Repulsion Energy =            240.5854629354056442
    One-Electron Energy =                -842.5598784803794388
    Two-Electron Energy =                 331.9434465700950909
    DFT Exchange-Correlation Energy =       0.0000000000000000
    Empirical Dispersion Energy =           0.0000000000000000
    PCM Polarization Energy =               0.0000000000000000
    EFP Energy =                            0.0000000000000000
    Total Energy =                       -270.0309689748787036
    Molecular point group: c1
  Basis Set: 6-31G*
  Basis Set:

  -Total Gradient:
     Atom            X                  Y                   Z
    ------   -----------------  -----------------  -----------------
       1       -0.000009073794     0.000006439948    -0.000003096952
       2        0.000010219641     0.000011945039    -0.000003580891
       3        0.000430438044     0.000710228146    -0.000190497649
       4        0.000002953811    -0.000002975916     0.000000926440
       5        0.000003044801    -0.000001525601    -0.000001708419
       6       -0.000539675162    -0.000907781973     0.000132812156
       7        0.000006698315    -0.000002854490     0.000000609287
       8       -0.000007761329     0.000003209844     0.000001630904
       9       -0.000398207404    -0.000632612534     0.000661794239
      10        0.000011968972     0.000009445918     0.000018869059
      11        0.000031111066     0.000001832733     0.000001068782
      12        0.000487143888     0.000807778822    -0.000615815772
      13       -0.000010794517    -0.000010452708     0.000002332255
      14       -0.000007154675     0.000000327866    -0.000007986845
      15       -0.000014545741     0.000007847994     0.000003015269
      16        0.000003634084    -0.000000853090    -0.000000371861

  **** Optimization is complete! (in 7 steps) ****
    Final optimized geometry and variables:
    Molecular point group: c1

    Geometry (in Angstrom), charge = 0, multiplicity = 1:

    H           -1.668711416877     2.046913527389     0.284906132683
    C           -1.853905858229     1.217236363891     0.956825919151
    C           -0.621057713298     0.330370297865     1.082899281576
    H           -2.693945218814     0.659111603528     0.562851431780
    H           -2.131882248554     1.618289114401     1.925954654022
    C           -0.178344334119    -0.285301782162    -0.233004890618
    H           -0.806410698701    -0.488335571260     1.776773513174
    H            0.213243954993     0.884643165712     1.505844846901
    C            1.127405669209    -1.061998344516    -0.234797077522
    O           -0.815851136976    -0.156132827228    -1.233834064774
    C            2.345182788824    -0.129369999191    -0.313442171934
    H            1.114912419267    -1.709335489398    -1.102813256525
    H            1.195219525693    -1.679661659620     0.656445918871
    H            2.292580208519     0.495414806741    -1.198474542799
    H            3.258501801387    -0.711208917596    -0.368469100754
    H            2.419608084312     0.517481510805     0.554303991076

  Mulliken Charges: (a.u.)
   Center  Symbol    Alpha    Beta     Spin     Total
       1     H     0.41219  0.41219  0.00000  0.17561
       2     C     3.23475  3.23475  0.00000 -0.46950
       3     C     3.20918  3.20918  0.00000 -0.41836
       4     H     0.40885  0.40885  0.00000  0.18230
       5     H     0.42030  0.42030  0.00000  0.15941
       6     C     2.73583  2.73583  0.00000  0.52834
       7     H     0.40808  0.40808  0.00000  0.18385
       8     H     0.40913  0.40913  0.00000  0.18174
       9     C     3.19849  3.19849  0.00000 -0.39698
      10     O     4.26328  4.26328  0.00000 -0.52656
      11     C     3.24982  3.24982  0.00000 -0.49964
      12     H     0.39913  0.39913  0.00000  0.20174
      13     H     0.41459  0.41459  0.00000  0.17082
      14     H     0.40793  0.40793  0.00000  0.18414
      15     H     0.41081  0.41081  0.00000  0.17839
      16     H     0.41765  0.41765  0.00000  0.16470

   Total alpha = 24.00000, Total beta = 24.00000, Total charge = -0.00000
