  ==> Input File <==

--------------------------------------------------------------------------
set {
	reference rhf
	basis 6-31G*
}

set_num_threads( 1 )
memory 2 gb

molecule MOL {
0 1

H	 2.797192	 -0.602787	 -0.084129
O	 2.108297	 -0.031062	 -0.391119
C	 1.135793	 0.118896	 0.612333
C	 0.031547	 1.023609	 0.088541
H	 1.573487	 0.566369	 1.502884
H	 0.733485	 -0.849404	 0.901549
C	 -1.134819	 0.293262	 -0.585751
H	 0.474374	 1.714721	 -0.623187
H	 -0.338529	 1.620940	 0.920081
C	 -1.917817	 -0.639439	 0.339494
H	 -0.758119	 -0.268455	 -1.433105
H	 -1.813832	 1.041889	 -0.986690
H	 -2.777680	 -1.057197	 -0.174994
H	 -1.310268	 -1.471279	 0.680599
H	 -2.283753	 -0.111424	 1.216626

	symmetry c1
}
set optking {
	frozen_dihedral = ("
		8 4 7 11,
		1 2 3 4
	")
}

ee = energy('scf')
oeprop('DIPOLE', 'QUADRUPOLE', 'MULLIKEN_CHARGES')
f=open( 'psi4out.xyz', 'w' )
f.write( "15  " )
f.write( str(ee) + "\n" )
f.write( MOL.save_string_xyz() )
f.close()
--------------------------------------------------------------------------

    Molecular point group: c1

    Geometry (in Angstrom), charge = 0, multiplicity = 1:

       Center              X                  Y                   Z               Mass
    ------------   -----------------  -----------------  -----------------  -----------------
           H          2.697751745377    -0.733023636740    -0.099440134436     1.007825032070
           O          2.008856745377    -0.161298636740    -0.406430134436    15.994914619560
           C          1.036352745377    -0.011340636740     0.597021865564    12.000000000000
           C         -0.067893254623     0.893372363260     0.073229865564    12.000000000000
           H          1.474046745377     0.436132363260     1.487572865564     1.007825032070
           H          0.634044745377    -0.979640636740     0.886237865564     1.007825032070
           C         -1.234259254623     0.163025363260    -0.601062134436    12.000000000000
           H          0.374933745377     1.584484363260    -0.638498134436     1.007825032070
           H         -0.437969254623     1.490703363260     0.904769865564     1.007825032070
           C         -2.017257254623    -0.769675636740     0.324182865564    12.000000000000
           H         -0.857559254623    -0.398691636740    -1.448416134436     1.007825032070
           H         -1.913272254623     0.911652363260    -1.002001134436     1.007825032070
           H         -2.877120254623    -1.187433636740    -0.190305134436     1.007825032070
           H         -1.409708254623    -1.601515636740     0.665287865564     1.007825032070
           H         -2.383193254623    -0.241660636740     1.201314865564     1.007825032070

  Charge       = 0
  Multiplicity = 1
  Basis Set: 6-31G*
  Basis Set:

    Orbital Energies (a.u.)
    -----------------------

    Doubly Occupied:

       1A    -20.551580     2A    -11.266008     3A    -11.213094
       4A    -11.211067     5A    -11.208663     6A     -1.358302
       7A     -1.067082     8A     -0.970431     9A     -0.870227
      10A     -0.777793    11A     -0.703810    12A     -0.647634
      13A     -0.606913    14A     -0.580708    15A     -0.560302
      16A     -0.533245    17A     -0.512172    18A     -0.475387
      19A     -0.470655    20A     -0.453022    21A     -0.428158

  @DF-RHF Final Energy:  -232.13975804497292

   => Energetics <=

    Nuclear Repulsion Energy =            189.8932769589505085
    One-Electron Energy =                -691.1335798340396650
    Two-Electron Energy =                 269.1005448301161778
    DFT Exchange-Correlation Energy =       0.0000000000000000
    Empirical Dispersion Energy =           0.0000000000000000
    PCM Polarization Energy =               0.0000000000000000
    EFP Energy =                            0.0000000000000000
    Total Energy =                       -232.1397580449729503

  Mulliken Charges: (a.u.)
   Center  Symbol    Alpha    Beta     Spin     Total
       1     H     0.28163  0.28163  0.00000  0.43674
       2     O     4.37095  4.37095  0.00000 -0.74191
       3     C     2.99652  2.99652  0.00000  0.00696
       4     C     3.16327  3.16327  0.00000 -0.32653
       5     H     0.43038  0.43038  0.00000  0.13924
       6     H     0.43007  0.43007  0.00000  0.13985
       7     C     3.15635  3.15635  0.00000 -0.31270
       8     H     0.40613  0.40613  0.00000  0.18773
       9     H     0.42402  0.42402  0.00000  0.15196
      10     C     3.24308  3.24308  0.00000 -0.48616
      11     H     0.41445  0.41445  0.00000  0.17111
      12     H     0.42070  0.42070  0.00000  0.15860
      13     H     0.41796  0.41796  0.00000  0.16409
      14     H     0.42158  0.42158  0.00000  0.15684
      15     H     0.42291  0.42291  0.00000  0.15419

   Total alpha = 21.00000, Total beta = 21.00000, Total charge = -0.00000
