  ==> Input File <==

--------------------------------------------------------------------------
set {
	reference rhf
	basis cc-pvtz
}

set_num_threads( 4 )
memory 2 gb

molecule MOL {
0 1

H	 1.726258	 1.565534	 -2.011847
C	 1.001149	 1.391746	 -1.227440
C	 1.322304	 0.099773	 -0.484271
H	 1.022930	 2.246055	 -0.560319
H	 0.019831	 1.349099	 -1.686284
C	 0.308557	 -0.162619	 0.622645
H	 2.311772	 0.156659	 -0.047864
H	 1.316009	 -0.737180	 -1.171591
N	 -1.069352	 -0.004081	 0.085342
H	 0.371632	 -1.172932	 0.991288
H	 0.400391	 0.548875	 1.426218
O	 -1.584901	 -0.965470	 -0.377818
O	 -1.548033	 1.079343	 0.130056

	symmetry c1
}
set optking {
	frozen_dihedral = ("
		7 3 6 9
	")
}

ee = optimize('scf')
oeprop('DIPOLE', 'QUADRUPOLE', 'MULLIKEN_CHARGES')
f=open( 'psi4out.xyz', 'w' )
f.write( "13  " )
f.write( str(ee) + "\n" )
f.write( MOL.save_string_xyz() )
f.close()
--------------------------------------------------------------------------

    Molecular point group: c1
  Charge       = 0
  Multiplicity = 1
  Basis Set: CC-PVTZ
  Basis Set:
  @DF-RHF Final Energy:  -321.85698480221299
    Total Energy =                       -321.8569848022131055
    Molecular point group: c1
  Basis Set: CC-PVTZ
  Basis Set:
  Basis Set: CC-PVTZ
  Basis Set:
  @DF-RHF Final Energy:  -321.85826180364325
    Total Energy =                       -321.8582618036431313
  Basis Set: CC-PVTZ
  Basis Set:
  Basis Set: CC-PVTZ
  Basis Set:
  @DF-RHF Final Energy:  -321.85936181499261
    Total Energy =                       -321.8593618149927806
  Basis Set: CC-PVTZ
  Basis Set:
  Basis Set: CC-PVTZ
  Basis Set:
  @DF-RHF Final Energy:  -321.85991123727456
    Total Energy =                       -321.8599112372745594
  Basis Set: CC-PVTZ
  Basis Set:
  @DF-RHF Final Energy:  -321.86027179032499
    Total Energy =                       -321.8602717903247026
  @DF-RHF Final Energy:  -321.86037279066426
    Total Energy =                       -321.8603727906643712
  @DF-RHF Final Energy:  -321.86043006268619
    Total Energy =                       -321.8604300626861914
  @DF-RHF Final Energy:  -321.86046664033881
    Total Energy =                       -321.8604666403385863
  Basis Set: CC-PVTZ
  Basis Set:
  @DF-RHF Final Energy:  -321.86048983604616
    Total Energy =                       -321.8604898360463835
  Basis Set: CC-PVTZ
  Basis Set:
  Basis Set: CC-PVTZ
  Basis Set:
  @DF-RHF Final Energy:  -321.86050241837000
    Total Energy =                       -321.8605024183701744
  Basis Set: CC-PVTZ
  Basis Set:
  Basis Set: CC-PVTZ
  Basis Set:
  @DF-RHF Final Energy:  -321.86050456146882
    Total Energy =                       -321.8605045614689857
  Basis Set: CC-PVTZ
  Basis Set:
  Charge       = 0
  Multiplicity = 1
  Basis Set: CC-PVTZ
  Basis Set:

    Orbital Energies (a.u.)
    -----------------------

    Doubly Occupied:

       1A    -20.593418     2A    -20.588870     3A    -15.837022
       4A    -11.297547     5A    -11.253013     6A    -11.228603
       7A     -1.636671     8A     -1.420881     9A     -1.132435
      10A     -1.021128    11A     -0.895284    12A     -0.822766
      13A     -0.758750    14A     -0.741476    15A     -0.729527
      16A     -0.658406    17A     -0.614338    18A     -0.593145
      19A     -0.532974    20A     -0.518789    21A     -0.512505
      22A     -0.486516    23A     -0.475045    24A     -0.454592

  @DF-RHF Final Energy:  -321.86050459964804

   => Energetics <=

    Nuclear Repulsion Energy =            254.3190898626985188
    One-Electron Energy =                -942.7517867837226504
    Two-Electron Energy =                 366.5721923213760647
    DFT Exchange-Correlation Energy =       0.0000000000000000
    Empirical Dispersion Energy =           0.0000000000000000
    PCM Polarization Energy =               0.0000000000000000
    EFP Energy =                            0.0000000000000000
    Total Energy =                       -321.8605045996480385
    Molecular point group: c1
  Basis Set: CC-PVTZ
  Basis Set:

  -Total Gradient:
     Atom            X                  Y                   Z
    ------   -----------------  -----------------  -----------------
       1       -0.000000306039     0.000000536233    -0.000000844279
       2        0.000003046472     0.000005466240     0.000006758256
       3        0.000484788474    -0.003088217295    -0.000213596575
       4        0.000001304152     0.000003920929    -0.000000766015
       5        0.000003096106    -0.000004068916     0.000002561293
       6       -0.000120696431    -0.002672356493    -0.000656072776
       7       -0.000400575281     0.003304790137     0.000326963545
       8        0.000001435641    -0.000002857516    -0.000001959941
       9        0.000025017519     0.002491960345     0.000555216407
      10        0.000001419010     0.000000316884     0.000001293283
      11       -0.000001308634    -0.000001507968     0.000001681604
      12       -0.000005679176    -0.000019332103    -0.000012507367
      13        0.000008458186    -0.000018650476    -0.000008727432

  **** Optimization is complete! (in 12 steps) ****
    Final optimized geometry and variables:
    Molecular point group: c1

    Geometry (in Angstrom), charge = 0, multiplicity = 1:

    H            2.146376718030     1.278262123987    -1.844860885275
    C            1.361938777044     1.140993595980    -1.111655442929
    C            1.610382039994    -0.138750917817    -0.316817649046
    H            1.351379240849     2.011377349364    -0.465635068584
    H            0.419074380443     1.105506947399    -1.642636846468
    C            0.613892772768    -0.370362222010     0.814121475991
    H            2.584453966777    -0.069182853376     0.154482841635
    H            1.617046911074    -0.995919234108    -0.975497151928
    N           -0.789600117455    -0.245968444333     0.330233361301
    H            0.696055893638    -1.367752429181     1.216636834143
    H            0.712777572958     0.361293413509     1.597373935861
    O           -1.155242456659    -1.046818652901    -0.465023259833
    O           -1.444299350264     0.641688725900     0.760330348202

  Mulliken Charges: (a.u.)
   Center  Symbol    Alpha    Beta     Spin     Total
       1     H     0.44544  0.44544  0.00000  0.10912
       2     C     3.14742  3.14742  0.00000 -0.29485
       3     C     3.09715  3.09715  0.00000 -0.19430
       4     H     0.45009  0.45009  0.00000  0.09982
       5     H     0.44392  0.44392  0.00000  0.11217
       6     C     3.04797  3.04797  0.00000 -0.09594
       7     H     0.44551  0.44551  0.00000  0.10897
       8     H     0.43879  0.43879  0.00000  0.12242
       9     N     3.28079  3.28079  0.00000  0.43843
      10     H     0.42828  0.42828  0.00000  0.14344
      11     H     0.43166  0.43166  0.00000  0.13668
      12     O     4.17431  4.17431  0.00000 -0.34861
      13     O     4.16867  4.16867  0.00000 -0.33733

   Total alpha = 24.00000, Total beta = 24.00000, Total charge =  0.00000
