  ==> Input File <==

--------------------------------------------------------------------------
set {
	reference rhf
	basis 6-31G*
}

set_num_threads( 4 )
memory 2 gb

molecule MOL {
0 1

O	 0.074228	 1.262779	 -0.000085
C	 0.028650	 0.075053	 -0.000277
C	 -1.233602	 -0.752807	 0.000328
O	 1.109162	 -0.694619	 -0.000298
C	 -2.501530	 0.091881	 0.000126
H	 -1.193807	 -1.406641	 -0.865785
H	 -1.193516	 -1.405779	 0.867015
H	 -2.545121	 0.729328	 -0.874513
H	 -3.377167	 -0.548497	 0.000561
H	 -2.544818	 0.730135	 0.874258
C	 1.382442	 -1.418604	 1.185768
H	 1.529372	 -0.744162	 2.017003
H	 2.286354	 -1.974219	 0.990583
H	 0.570074	 -2.093199	 1.414793

	symmetry c1
}
set optking {
	frozen_dihedral = ("
		11 4 2 3
	")
}

ee = optimize('scf')
oeprop('DIPOLE', 'QUADRUPOLE', 'MULLIKEN_CHARGES')
f=open( 'psi4out.xyz', 'w' )
f.write( "14  " )
f.write( str(ee) + "\n" )
f.write( MOL.save_string_xyz() )
f.close()
--------------------------------------------------------------------------

    Molecular point group: c1
  Charge       = 0
  Multiplicity = 1
  Basis Set: 6-31G*
  Basis Set:
  @DF-RHF Final Energy:  -305.84779268799082
    Total Energy =                       -305.8477926879909319
    Molecular point group: c1
  Basis Set: 6-31G*
  Basis Set:
  Basis Set: 6-31G*
  Basis Set:
  @DF-RHF Final Energy:  -305.84967836539522
    Total Energy =                       -305.8496783653951070
  Basis Set: 6-31G*
  Basis Set:
  Basis Set: 6-31G*
  Basis Set:
  @DF-RHF Final Energy:  -305.85096368311508
    Total Energy =                       -305.8509636831153102
  Basis Set: 6-31G*
  Basis Set:
  Basis Set: 6-31G*
  Basis Set:
  @DF-RHF Final Energy:  -305.85105631257721
    Total Energy =                       -305.8510563125772705
  Basis Set: 6-31G*
  Basis Set:
  Basis Set: 6-31G*
  Basis Set:
  @DF-RHF Final Energy:  -305.85101713292784
    Total Energy =                       -305.8510171329277796
  Basis Set: 6-31G*
  Basis Set:
  Basis Set: 6-31G*
  Basis Set:
  @DF-RHF Final Energy:  -305.85113261489550
    Total Energy =                       -305.8511326148956186
  Basis Set: 6-31G*
  Basis Set:
  Charge       = 0
  Multiplicity = 1
  Basis Set: 6-31G*
  Basis Set:

    Orbital Energies (a.u.)
    -----------------------

    Doubly Occupied:

       1A    -20.588826     2A    -20.555551     3A    -11.375552
       4A    -11.294922     5A    -11.244785     6A    -11.220301
       7A     -1.459715     8A     -1.368708     9A     -1.062465
      10A     -0.979365    11A     -0.895207    12A     -0.767032
      13A     -0.701520    14A     -0.677680    15A     -0.674277
      16A     -0.628400    17A     -0.612527    18A     -0.559083
      19A     -0.546288    20A     -0.524956    21A     -0.511478
      22A     -0.488522    23A     -0.457376    24A     -0.436629

  @DF-RHF Final Energy:  -305.85113361132267

   => Energetics <=

    Nuclear Repulsion Energy =            246.6614231478945669
    One-Electron Energy =                -905.7627824118579838
    Two-Electron Energy =                 353.2502256526405517
    DFT Exchange-Correlation Energy =       0.0000000000000000
    Empirical Dispersion Energy =           0.0000000000000000
    PCM Polarization Energy =               0.0000000000000000
    EFP Energy =                            0.0000000000000000
    Total Energy =                       -305.8511336113228936
    Molecular point group: c1
  Basis Set: 6-31G*
  Basis Set:

  -Total Gradient:
     Atom            X                  Y                   Z
    ------   -----------------  -----------------  -----------------
       1       -0.000045154247     0.000064910108    -0.000031451426
       2        0.000507643064     0.000301424574     0.001776045864
       3       -0.000013748624     0.000050361346    -0.000995353141
       4       -0.001102443233    -0.001341363723    -0.001027362081
       5        0.000010740963     0.000000418068    -0.000032179915
       6        0.000008013784     0.000003079166    -0.000022115726
       7        0.000014713930    -0.000019435781    -0.000022515063
       8       -0.000002822639     0.000004319015     0.000001064987
       9        0.000012753228    -0.000001810876     0.000003962521
      10       -0.000000502408     0.000003090027     0.000010690871
      11        0.000617721612     0.000927957319     0.000342319266
      12       -0.000010822417     0.000012141041    -0.000009169168
      13        0.000002648165    -0.000001327398    -0.000004478204
      14        0.000001258823    -0.000003762887     0.000010541215

  **** Optimization is complete! (in 7 steps) ****
    Final optimized geometry and variables:
    Molecular point group: c1

    Geometry (in Angstrom), charge = 0, multiplicity = 1:

    O            0.234717774991     1.479754218972    -0.223423407711
    C            0.177986467945     0.301182274799    -0.169375768811
    C           -1.113137780487    -0.488144306770    -0.169236903633
    O            1.303367015667    -0.445394325459    -0.195881414642
    C           -2.353671389807     0.391941637633    -0.263824326526
    H           -1.057343537152    -1.184458684628    -1.001357911022
    H           -1.149063002686    -1.100486181627     0.727553476840
    H           -2.340318740124     0.985418325699    -1.169481593543
    H           -3.248068019724    -0.221807444700    -0.268930265652
    H           -2.411827702678     1.074264664625     0.575398127022
    C            1.651783847601    -1.195597222728     0.946243719451
    H            1.680799794007    -0.564658974689     1.827113556122
    H            2.638984470129    -1.588644592326     0.760343067848
    H            0.968256141872    -2.020554981424     1.110385634062

  Mulliken Charges: (a.u.)
   Center  Symbol    Alpha    Beta     Spin     Total
       1     O     4.25076  4.25076  0.00000 -0.50152
       2     C     2.61451  2.61451  0.00000  0.77099
       3     C     3.21678  3.21678  0.00000 -0.43357
       4     O     4.31161  4.31161  0.00000 -0.62323
       5     C     3.23757  3.23757  0.00000 -0.47515
       6     H     0.39846  0.39846  0.00000  0.20307
       7     H     0.40704  0.40704  0.00000  0.18592
       8     H     0.40758  0.40758  0.00000  0.18484
       9     H     0.41811  0.41811  0.00000  0.16379
      10     H     0.40976  0.40976  0.00000  0.18048
      11     C     3.09306  3.09306  0.00000 -0.18613
      12     H     0.41375  0.41375  0.00000  0.17251
      13     H     0.40044  0.40044  0.00000  0.19912
      14     H     0.42056  0.42056  0.00000  0.15889

   Total alpha = 24.00000, Total beta = 24.00000, Total charge =  0.00000
