  ==> Input File <==

--------------------------------------------------------------------------
set {
	reference rhf
	basis cc-pvtz
}

set_num_threads( 4 )
memory 2 gb

molecule MOL {
0 1

H	 -3.144994	 -1.202467	 -0.018751
O	 -2.321472	 -0.864941	 -0.318626
C	 -2.021813	 0.336996	 0.342658
C	 -0.669613	 0.837286	 -0.127252
H	 -2.780861	 1.084746	 0.127159
H	 -2.006390	 0.184138	 1.420053
C	 0.490865	 -0.082543	 0.241244
H	 -0.708709	 0.967192	 -1.204587
H	 -0.507562	 1.822272	 0.303070
C	 1.839800	 0.429565	 -0.255472
H	 0.305636	 -1.070211	 -0.165276
H	 0.527397	 -0.195943	 1.322876
C	 1.932900	 0.490075	 -1.776477
H	 2.019894	 1.419380	 0.155059
H	 2.632616	 -0.207538	 0.128236
H	 1.174647	 1.147822	 -2.187982
H	 2.900530	 0.858987	 -2.097259
H	 1.790897	 -0.491479	 -2.216741

	symmetry c1
}
set optking {
	frozen_dihedral = ("
		14 10 7 11
	")
}

ee = optimize('scf')
oeprop('DIPOLE', 'QUADRUPOLE', 'MULLIKEN_CHARGES')
f=open( 'psi4out.xyz', 'w' )
f.write( "18  " )
f.write( str(ee) + "\n" )
f.write( MOL.save_string_xyz() )
f.close()
--------------------------------------------------------------------------

    Molecular point group: c1
  Charge       = 0
  Multiplicity = 1
  Basis Set: CC-PVTZ
  Basis Set:
  @DF-RHF Final Energy:  -271.28447494452553
    Total Energy =                       -271.2844749445255843
    Molecular point group: c1
  Basis Set: CC-PVTZ
  Basis Set:
  Basis Set: CC-PVTZ
  Basis Set:
  @DF-RHF Final Energy:  -271.28483876203711
    Total Energy =                       -271.2848387620371682
  Basis Set: CC-PVTZ
  Basis Set:
  Basis Set: CC-PVTZ
  Basis Set:
  @DF-RHF Final Energy:  -271.28515021602544
    Total Energy =                       -271.2851502160258406
  Basis Set: CC-PVTZ
  Basis Set:
  Basis Set: CC-PVTZ
  Basis Set:
  @DF-RHF Final Energy:  -271.28516415001712
    Total Energy =                       -271.2851641500175219
  Basis Set: CC-PVTZ
  Basis Set:
  Charge       = 0
  Multiplicity = 1
  Basis Set: CC-PVTZ
  Basis Set:

    Orbital Energies (a.u.)
    -----------------------

    Doubly Occupied:

       1A    -20.546151     2A    -11.265851     3A    -11.209954
       4A    -11.209537     5A    -11.205331     6A    -11.201872
       7A     -1.364027     8A     -1.076093     9A     -1.007401
      10A     -0.915472    11A     -0.829653    12A     -0.772895
      13A     -0.707315    14A     -0.643649    15A     -0.614394
      16A     -0.604219    17A     -0.565533    18A     -0.557754
      19A     -0.523763    20A     -0.503927    21A     -0.493347
      22A     -0.463441    23A     -0.456630    24A     -0.450281
      25A     -0.430192

  @DF-RHF Final Energy:  -271.28516478463189

   => Energetics <=

    Nuclear Repulsion Energy =            252.2272437429466834
    One-Electron Energy =                -867.7874628246725024
    Two-Electron Energy =                 344.2750542970939023
    DFT Exchange-Correlation Energy =       0.0000000000000000
    Empirical Dispersion Energy =           0.0000000000000000
    PCM Polarization Energy =               0.0000000000000000
    EFP Energy =                            0.0000000000000000
    Total Energy =                       -271.2851647846318883
    Molecular point group: c1
  Basis Set: CC-PVTZ
  Basis Set:

  -Total Gradient:
     Atom            X                  Y                   Z
    ------   -----------------  -----------------  -----------------
       1       -0.000000442787    -0.000000518599    -0.000002192071
       2       -0.000029929689     0.000015157374    -0.000015896270
       3        0.000029434565    -0.000027177213     0.000056147121
       4        0.000019979266    -0.000003738367    -0.000031403821
       5        0.000007316476    -0.000005791364    -0.000005529850
       6       -0.000009533777     0.000005402426     0.000010691940
       7       -0.000048375947     0.000023375064    -0.000111114606
       8        0.000027301413     0.000008847340    -0.000025298876
       9       -0.000011580976     0.000000091003    -0.000007121238
      10       -0.000066311774     0.000085417574    -0.000069233207
      11        0.000045175864    -0.000041122798     0.000094771065
      12        0.000004879895     0.000001159018     0.000000899785
      13       -0.000008580269    -0.000026165174     0.000016135319
      14        0.000061751774    -0.000035031367     0.000098769582
      15       -0.000006044969    -0.000000383387    -0.000004726759
      16       -0.000012530468     0.000000029259     0.000008093430
      17       -0.000002536096     0.000001729863     0.000003058632
      18        0.000000027500    -0.000001280653    -0.000016050176

  **** Optimization is complete! (in 5 steps) ****
    Final optimized geometry and variables:
    Molecular point group: c1

    Geometry (in Angstrom), charge = 0, multiplicity = 1:

    H           -2.979755260791    -1.379921902237     0.394263482504
    O           -2.168389616583    -1.044016795910     0.061467482231
    C           -1.847982333766     0.165506693636     0.698773047089
    C           -0.517915384380     0.666750312479     0.169368208676
    H           -2.618454637753     0.907939285377     0.506531394298
    H           -1.788793302486     0.023123042529     1.776034820875
    C            0.656892415546    -0.247201795140     0.512114600947
    H           -0.607625360485     0.786000027870    -0.904351565898
    H           -0.342940969091     1.656281876179     0.584813136106
    C            2.019341423007     0.273217840728     0.050994553206
    H            0.481089092461    -1.229364190600     0.088013160420
    H            0.686825144254    -0.380422033854     1.590758923830
    C            2.197322608604     0.337963343970    -1.464095284538
    H            2.193507405338     1.258096499225     0.477426954597
    H            2.788419942803    -0.373112329867     0.462822495890
    H            1.516462714068     1.044458637374    -1.923330558359
    H            3.205210600594     0.644869093635    -1.719813501547
    H            2.021708524325    -0.632025658705    -1.917623996329

  Mulliken Charges: (a.u.)
   Center  Symbol    Alpha    Beta     Spin     Total
       1     H     0.39580  0.39580  0.00000  0.20839
       2     O     4.19864  4.19864  0.00000 -0.39727
       3     C     2.97368  2.97368  0.00000  0.05263
       4     C     3.09308  3.09308  0.00000 -0.18616
       5     H     0.46549  0.46549  0.00000  0.06902
       6     H     0.47296  0.47296  0.00000  0.05409
       7     C     3.09325  3.09325  0.00000 -0.18651
       8     H     0.45078  0.45078  0.00000  0.09843
       9     H     0.45418  0.45418  0.00000  0.09165
      10     C     3.09006  3.09006  0.00000 -0.18012
      11     H     0.44463  0.44463  0.00000  0.11073
      12     H     0.45446  0.45446  0.00000  0.09108
      13     C     3.15132  3.15132  0.00000 -0.30264
      14     H     0.45667  0.45667  0.00000  0.08665
      15     H     0.44946  0.44946  0.00000  0.10108
      16     H     0.45442  0.45442  0.00000  0.09117
      17     H     0.44791  0.44791  0.00000  0.10418
      18     H     0.45320  0.45320  0.00000  0.09359

   Total alpha = 25.00000, Total beta = 25.00000, Total charge = -0.00000
