  ==> Input File <==

--------------------------------------------------------------------------
set {
	reference rhf
	basis 6-31G*
}

set_num_threads( 4 )
memory 2 gb

molecule MOL {
0 1

H	 0.395280	 4.320548	 -1.899909
C	 1.320669	 4.514024	 -1.343272
C	 1.252939	 4.208737	 0.131457
O	 2.279238	 4.934109	 -1.905787
C	 0.740687	 2.789956	 0.415911
H	 2.235145	 4.371247	 0.559909
H	 0.570623	 4.931797	 0.576749
C	 1.698719	 1.690411	 -0.049357
H	 0.571896	 2.693038	 1.484274
H	 -0.230703	 2.654948	 -0.057304
C	 1.180775	 0.282413	 0.250794
H	 2.664172	 1.832527	 0.431841
H	 1.878691	 1.785804	 -1.118492
C	 2.148627	 -0.814315	 -0.201312
H	 0.993066	 0.196420	 1.318081
H	 0.220044	 0.139034	 -0.241976
C	 3.580890	 -0.659131	 0.322722
H	 2.166869	 -0.852443	 -1.289387
H	 1.762857	 -1.776509	 0.128956
C	 4.324889	 0.564933	 -0.213704
H	 4.142010	 -1.551473	 0.056605
H	 3.564836	 -0.624694	 1.410140
H	 4.342616	 0.565491	 -1.300421
H	 3.866655	 1.493402	 0.110242
H	 5.353900	 0.572371	 0.132816

	symmetry c1
}
set optking {
	frozen_dihedral = ("
		8 11 14 18
	")
}

ee = optimize('scf')
oeprop('DIPOLE', 'QUADRUPOLE', 'MULLIKEN_CHARGES')
f=open( 'psi4out.xyz', 'w' )
f.write( "25  " )
f.write( str(ee) + "\n" )
f.write( MOL.save_string_xyz() )
f.close()
--------------------------------------------------------------------------

    Molecular point group: c1
  Charge       = 0
  Multiplicity = 1
  Basis Set: 6-31G*
  Basis Set:
  @DF-RHF Final Energy:  -387.09001102175012
    Total Energy =                       -387.0900110217498877
    Molecular point group: c1
  Basis Set: 6-31G*
  Basis Set:
  Basis Set: 6-31G*
  Basis Set:
  @DF-RHF Final Energy:  -387.10939861851239
    Total Energy =                       -387.1093986185122731
  Basis Set: 6-31G*
  Basis Set:
  Basis Set: 6-31G*
  Basis Set:
  @DF-RHF Final Energy:  -387.11445320965612
    Total Energy =                       -387.1144532096573130
  Basis Set: 6-31G*
  Basis Set:
  Basis Set: 6-31G*
  Basis Set:
  @DF-RHF Final Energy:  -387.11580772484047
    Total Energy =                       -387.1158077248410336
  Basis Set: 6-31G*
  Basis Set:
  @DF-RHF Final Energy:  -387.11449946302514
    Total Energy =                       -387.1144994630254814
  @DF-RHF Final Energy:  -387.11688374959465
    Total Energy =                       -387.1168837495944217
  @DF-RHF Final Energy:  -387.11705772432043
    Total Energy =                       -387.1170577243203752
  @DF-RHF Final Energy:  -387.11703990113404
    Total Energy =                       -387.1170399011341487
  @DF-RHF Final Energy:  -387.11704934175981
    Total Energy =                       -387.1170493417600937
  Basis Set: 6-31G*
  Basis Set:
  @DF-RHF Final Energy:  -387.11708584448422
    Total Energy =                       -387.1170858444844498
  Basis Set: 6-31G*
  Basis Set:
  Basis Set: 6-31G*
  Basis Set:
  @DF-RHF Final Energy:  -387.11709509807406
    Total Energy =                       -387.1170950980742873
  Basis Set: 6-31G*
  Basis Set:
  Basis Set: 6-31G*
  Basis Set:
  @DF-RHF Final Energy:  -387.11709620288576
    Total Energy =                       -387.1170962028860458
  Basis Set: 6-31G*
  Basis Set:
  Charge       = 0
  Multiplicity = 1
  Basis Set: 6-31G*
  Basis Set:

    Orbital Energies (a.u.)
    -----------------------

    Doubly Occupied:

       1A    -20.562167     2A    -11.326304     3A    -11.235456
       4A    -11.234792     5A    -11.223549     6A    -11.220869
       7A    -11.217584     8A    -11.217005     9A    -11.207632
      10A     -1.402101    11A     -1.103590    12A     -1.066839
      13A     -1.010502    14A     -0.946822    15A     -0.872009
      16A     -0.824570    17A     -0.788707    18A     -0.777026
      19A     -0.665516    20A     -0.659388    21A     -0.627420
      22A     -0.624000    23A     -0.607962    24A     -0.592870
      25A     -0.570058    26A     -0.555474    27A     -0.533521
      28A     -0.521311    29A     -0.516339    30A     -0.493641
      31A     -0.487417    32A     -0.484786    33A     -0.460994
      34A     -0.450479    35A     -0.441688    36A     -0.409647

  @DF-RHF Final Energy:  -387.11709671197366

   => Energetics <=

    Nuclear Repulsion Energy =            449.9350485950532175
    One-Electron Energy =               -1416.2242214690274977
    Two-Electron Energy =                 579.1720761620003941
    DFT Exchange-Correlation Energy =       0.0000000000000000
    Empirical Dispersion Energy =           0.0000000000000000
    PCM Polarization Energy =               0.0000000000000000
    EFP Energy =                            0.0000000000000000
    Total Energy =                       -387.1170967119738862
    Molecular point group: c1
  Basis Set: 6-31G*
  Basis Set:

  -Total Gradient:
     Atom            X                  Y                   Z
    ------   -----------------  -----------------  -----------------
       1       -0.000000902793     0.000001380813    -0.000001234276
       2       -0.000014632341    -0.000011957166    -0.000001427042
       3        0.000001017085     0.000000283445    -0.000009152456
       4       -0.000001170947     0.000003344450     0.000010757404
       5       -0.000005357094     0.000001364105    -0.000026655434
       6        0.000006983251    -0.000001143706    -0.000006154502
       7        0.000003792015     0.000002961935     0.000009037372
       8        0.000741364384     0.000028471418     0.001590591771
       9        0.000001907130     0.000017498963    -0.000006055810
      10       -0.000007800070    -0.000010924759    -0.000000999486
      11       -0.001415854650    -0.000391887099    -0.002221298067
      12        0.000017892003    -0.000024878785    -0.000009051865
      13       -0.000009827629     0.000010926158     0.000005974996
      14        0.002422084491     0.001849321253     0.000694006961
      15        0.000004044797     0.000012226098    -0.000002698230
      16        0.000001600567    -0.000009081027    -0.000001158112
      17       -0.000023806512     0.000029650997     0.000046655211
      18       -0.001683408048    -0.001507450577    -0.000059943732
      19        0.000005250965    -0.000003147349    -0.000000161729
      20       -0.000013459157     0.000013410474    -0.000013961549
      21       -0.000010114606     0.000007759832    -0.000000203261
      22       -0.000007979892    -0.000000342704     0.000009676812
      23       -0.000007559289     0.000007964701    -0.000012293774
      24        0.000000480845    -0.000021250350     0.000011044300
      25       -0.000004544504    -0.000004501129    -0.000005295498

  **** Optimization is complete! (in 13 steps) ****
    Final optimized geometry and variables:
    Molecular point group: c1

    Geometry (in Angstrom), charge = 0, multiplicity = 1:

    H           -1.692349066782     2.429820242227    -1.626936867882
    C           -0.847915164689     2.659929908835    -0.965323678408
    C           -1.054737202330     2.294823342813     0.482605771639
    O            0.133685558957     3.165737649532    -1.404124206617
    C           -1.482292737602     0.831686568422     0.664621728737
    H           -0.141427571724     2.513244738633     1.023907019250
    H           -1.836462277000     2.947337800337     0.869350215513
    C           -0.394422705761    -0.175018039658     0.279339564504
    H           -1.761372830678     0.681502455033     1.703592478588
    H           -2.380942960426     0.642632347193     0.079899216501
    C           -0.837595469295    -1.621999633455     0.506537579894
    H            0.497901902100     0.036731916999     0.860941820690
    H           -0.119061333564    -0.036886348590    -0.764721580132
    C            0.148300793767    -2.714130330404     0.066293515225
    H           -1.049281781942    -1.753910045560     1.566677907769
    H           -1.780096244589    -1.789155279909    -0.010958787972
    C            1.565946631962    -2.640935706705     0.662992878573
    H            0.202420868954    -2.740303389314    -1.020598005836
    H           -0.295965031314    -3.664586215101     0.351752470813
    C            2.585247341523    -1.875081810041    -0.184642096658
    H            1.937688302298    -3.653418583757     0.794462254372
    H            1.519720214267    -2.211123124116     1.661618331309
    H            2.690188510846    -2.333702257750    -1.163819275260
    H            2.304737105672    -0.839583964028    -0.337297876218
    H            3.562658549915    -1.884388386520     0.288412275887

  Mulliken Charges: (a.u.)
   Center  Symbol    Alpha    Beta     Spin     Total
       1     H     0.43253  0.43253  0.00000  0.13495
       2     C     2.83085  2.83085  0.00000  0.33830
       3     C     3.20800  3.20800  0.00000 -0.41599
       4     O     4.23780  4.23780  0.00000 -0.47561
       5     C     3.16626  3.16626  0.00000 -0.33253
       6     H     0.39991  0.39991  0.00000  0.20018
       7     H     0.40670  0.40670  0.00000  0.18661
       8     C     3.15781  3.15781  0.00000 -0.31563
       9     H     0.41286  0.41286  0.00000  0.17428
      10     H     0.41957  0.41957  0.00000  0.16086
      11     C     3.15267  3.15267  0.00000 -0.30533
      12     H     0.41588  0.41588  0.00000  0.16825
      13     H     0.41861  0.41861  0.00000  0.16278
      14     C     3.15457  3.15457  0.00000 -0.30913
      15     H     0.42356  0.42356  0.00000  0.15287
      16     H     0.42240  0.42240  0.00000  0.15521
      17     C     3.15728  3.15728  0.00000 -0.31457
      18     H     0.42177  0.42177  0.00000  0.15646
      19     H     0.41973  0.41973  0.00000  0.16053
      20     C     3.24154  3.24154  0.00000 -0.48308
      21     H     0.41946  0.41946  0.00000  0.16107
      22     H     0.42258  0.42258  0.00000  0.15485
      23     H     0.42132  0.42132  0.00000  0.15736
      24     H     0.41643  0.41643  0.00000  0.16713
      25     H     0.41991  0.41991  0.00000  0.16018

   Total alpha = 36.00000, Total beta = 36.00000, Total charge =  0.00000
