                              Psi4 1.0.54 Driver

  ==> Input File <==

--------------------------------------------------------------------------
set {
	reference rhf
	basis cc-pvtz
}

set_num_threads( 4 )
memory 2 gb

molecule MOL {
0 1

H	 3.459101	 0.139266	 -0.762951
C	 2.749156	 -0.051729	 0.031265
C	 1.322304	 0.099773	 -0.484271
H	 2.929445	 -1.053887	 0.403481
H	 2.954281	 0.646699	 0.834672
C	 0.308557	 -0.162619	 0.622645
H	 1.143368	 -0.594400	 -1.295960
H	 1.169532	 1.100095	 -0.870217
N	 -1.069352	 -0.004081	 0.085342
H	 0.371632	 -1.172932	 0.991288
H	 0.400391	 0.548875	 1.426218
O	 -1.236974	 -0.255595	 -1.060616
O	 -1.900942	 0.390867	 0.831945

	symmetry c1
}
set optking {
	frozen_dihedral = ("
		12 9 6 3
	")
}

ee,wfn = optimize('scf', return_wfn=True)
oeprop( wfn, 'DIPOLE', 'QUADRUPOLE', 'MULLIKEN_CHARGES')
f=open( 'psi4out.xyz', 'w' )
f.write( "13  " )
f.write( str(ee) + "\n" )
f.write( MOL.save_string_xyz() )
f.close()
--------------------------------------------------------------------------

    Molecular point group: c1
  Charge       = 0
  Multiplicity = 1
  Basis Set: CC-PVTZ
  Basis Set:
  @DF-RHF Final Energy:  -321.85933294439377
    Total Energy =                       -321.8593329443939410
    Molecular point group: c1
  Basis Set: CC-PVTZ
  Basis Set:
  Basis Set: CC-PVTZ
  Basis Set:
  @DF-RHF Final Energy:  -321.85615522873593
    Total Energy =                       -321.8561552287360996
  Basis Set: CC-PVTZ
  Basis Set:
  Basis Set: CC-PVTZ
  Basis Set:
  @DF-RHF Final Energy:  -321.85595081208390
    Total Energy =                       -321.8559508120839610
  Basis Set: CC-PVTZ
  Basis Set:
  Basis Set: CC-PVTZ
  Basis Set:
  @DF-RHF Final Energy:  -321.85962853188141
    Total Energy =                       -321.8596285318814694
  Basis Set: CC-PVTZ
  Basis Set:
  Basis Set: CC-PVTZ
  Basis Set:
  @DF-RHF Final Energy:  -321.85895640144133
    Total Energy =                       -321.8589564014413895
  Basis Set: CC-PVTZ
  Basis Set:
  Basis Set: CC-PVTZ
  Basis Set:
  @DF-RHF Final Energy:  -321.86067954522525
    Total Energy =                       -321.8606795452251959
  Basis Set: CC-PVTZ
  Basis Set:
  Basis Set: CC-PVTZ
  Basis Set:
  @DF-RHF Final Energy:  -321.86071319843904
    Total Energy =                       -321.8607131984392140
  Basis Set: CC-PVTZ
  Basis Set:
  Charge       = 0
  Multiplicity = 1
  Basis Set: CC-PVTZ
  Basis Set:

    Orbital Energies (a.u.)
    -----------------------

    Doubly Occupied:

       1A    -20.591624     2A    -20.589928     3A    -15.838236
       4A    -11.298785     5A    -11.248142     6A    -11.235259
       7A     -1.637087     8A     -1.421146     9A     -1.131981
      10A     -1.026928    11A     -0.884791    12A     -0.828110
      13A     -0.763647    14A     -0.748786    15A     -0.730669
      16A     -0.660819    17A     -0.606547    18A     -0.579319
      19A     -0.552523    20A     -0.522332    21A     -0.509930
      22A     -0.487695    23A     -0.474441    24A     -0.454324

  @DF-RHF Final Energy:  -321.86071354099431

   => Energetics <=

    Nuclear Repulsion Energy =            247.6517281888891375
    One-Electron Energy =                -929.3787896542208955
    Two-Electron Energy =                 359.8663479243373899
    DFT Exchange-Correlation Energy =       0.0000000000000000
    Empirical Dispersion Energy =           0.0000000000000000
    PCM Polarization Energy =               0.0000000000000000
    EFP Energy =                            0.0000000000000000
    Total Energy =                       -321.8607135409943680
    Molecular point group: c1
  Basis Set: CC-PVTZ
  Basis Set:

  -Total Gradient:
     Atom            X                  Y                   Z
    ------   -----------------  -----------------  -----------------
       1        0.000001520249     0.000004889824     0.000000776706
       2        0.000005388833    -0.000004161973    -0.000003602107
       3       -0.000047894888    -0.000271147493    -0.000066107102
       4       -0.000004755238    -0.000004433244    -0.000002230435
       5       -0.000009138463     0.000001385147    -0.000004174986
       6        0.000113366985     0.000492515329     0.000094955475
       7       -0.000002666512    -0.000010284051     0.000036741974
       8       -0.000000379759     0.000020162958    -0.000010961525
       9       -0.000165004039    -0.000590434506     0.000112202008
      10        0.000015635164    -0.000008075299    -0.000000125364
      11        0.000019240038    -0.000001166099    -0.000027755090
      12        0.000077616679     0.000390281346    -0.000051746122
      13       -0.000002929050    -0.000019531940    -0.000077973434

  **** Optimization is complete! (in 8 steps) ****
    Final optimized geometry and variables:
    Molecular point group: c1

    Geometry (in Angstrom), charge = 0, multiplicity = 1:

    H            3.487310940034    -0.070534043400    -0.821357647007
    C            2.761055335510    -0.238815173298    -0.036918034002
    C            1.350296175791     0.028026078971    -0.553936365614
    H            2.870784187821    -1.263680862487     0.300523044105
    H            3.011817600860     0.413752127274     0.791934213150
    C            0.327858076247    -0.203123301213     0.541755888312
    H            1.130445211404    -0.613724260642    -1.394319413423
    H            1.272056356667     1.049617699121    -0.906836144060
    N           -1.074413307873     0.074287879048     0.109851728360
    H            0.309793944566    -1.236040238634     0.863223139356
    H            0.485380041552     0.421788256917     1.404642906179
    O           -1.352734423078    -0.095946852866    -1.028581312111
    O           -1.828986596598     0.423280561323     0.954260770593

  Mulliken Charges: (a.u.)
   Center  Symbol    Alpha    Beta     Spin     Total
       1     H     0.44134  0.44134  0.00000  0.11733
       2     C     3.15227  3.15227  0.00000 -0.30455
       3     C     3.09296  3.09296  0.00000 -0.18593
       4     H     0.45288  0.45288  0.00000  0.09423
       5     H     0.45272  0.45272  0.00000  0.09455
       6     C     3.04446  3.04446  0.00000 -0.08892
       7     H     0.43479  0.43479  0.00000  0.13043
       8     H     0.44307  0.44307  0.00000  0.11386
       9     N     3.27462  3.27462  0.00000  0.45076
      10     H     0.43627  0.43627  0.00000  0.12746
      11     H     0.43178  0.43178  0.00000  0.13644
      12     O     4.17088  4.17088  0.00000 -0.34176
      13     O     4.17195  4.17195  0.00000 -0.34390

   Total alpha = 24.00000, Total beta = 24.00000, Total charge =  0.00000

*** Psi4 exiting successfully. Buy a developer a beer!
