  ==> Input File <==

--------------------------------------------------------------------------
set {
	reference rhf
	basis cc-pvtz
}

set_num_threads( 4 )
memory 2 gb

molecule MOL {
0 1

O	 -1.022000	 -1.466000	 0.047000
C	 -0.711000	 -0.306000	 -0.012000
C	 -1.781000	 0.770000	 -0.013000
N	 0.590000	 0.090000	 -0.105000
H	 -1.737000	 1.373000	 -0.912000
H	 -2.738000	 0.273000	 0.034000
H	 -1.681000	 1.431000	 0.841000
C	 1.631000	 -0.913000	 -0.003000
C	 1.032000	 1.459000	 0.046000
H	 2.430000	 -0.676000	 -0.696000
H	 1.223000	 -1.879000	 -0.244000
H	 2.048000	 -0.949000	 1.002000
H	 1.909000	 1.618000	 -0.571000
H	 0.276000	 2.158000	 -0.276000
H	 1.300000	 1.689000	 1.075000

	symmetry c1
}
ee = optimize('scf')
oeprop('DIPOLE', 'QUADRUPOLE', 'MULLIKEN_CHARGES')
f=open( 'psi4out.xyz', 'w' )
f.write( "15  " )
f.write( str(ee) + "\n" )
f.write( MOL.save_string_xyz() )
f.close()
--------------------------------------------------------------------------

    Molecular point group: c1
  Charge       = 0
  Multiplicity = 1
  Basis Set: CC-PVTZ
  Basis Set:
  @DF-RHF Final Energy:  -286.13553909413190
    Total Energy =                       -286.1355390941318433
    Molecular point group: c1
  Basis Set: CC-PVTZ
  Basis Set:
  Basis Set: CC-PVTZ
  Basis Set:
  @DF-RHF Final Energy:  -286.13562358127058
    Total Energy =                       -286.1356235812705222
  Basis Set: CC-PVTZ
  Basis Set:
  Basis Set: CC-PVTZ
  Basis Set:
  @DF-RHF Final Energy:  -286.13551162941877
    Total Energy =                       -286.1355116294186018
  Basis Set: CC-PVTZ
  Basis Set:
  Basis Set: CC-PVTZ
  Basis Set:
  @DF-RHF Final Energy:  -286.13563729014231
    Total Energy =                       -286.1356372901423128
  Basis Set: CC-PVTZ
  Basis Set:
  Charge       = 0
  Multiplicity = 1
  Basis Set: CC-PVTZ
  Basis Set:

    Orbital Energies (a.u.)
    -----------------------

    Doubly Occupied:

       1A    -20.503854     2A    -15.578420     3A    -11.335124
       4A    -11.263959     5A    -11.246474     6A    -11.226491
       7A     -1.387457     8A     -1.246269     9A     -1.015111
      10A     -0.973151    11A     -0.920722    12A     -0.738978
      13A     -0.683268    14A     -0.661898    15A     -0.653829
      16A     -0.590176    17A     -0.578258    18A     -0.567628
      19A     -0.561825    20A     -0.548334    21A     -0.530364
      22A     -0.507191    23A     -0.413865    24A     -0.370634

  @DF-RHF Final Energy:  -286.13563806651484

   => Energetics <=

    Nuclear Repulsion Energy =            252.9092322189792696
    One-Electron Energy =                -889.8831777650550521
    Two-Electron Energy =                 350.8383074795607968
    DFT Exchange-Correlation Energy =       0.0000000000000000
    Empirical Dispersion Energy =           0.0000000000000000
    PCM Polarization Energy =               0.0000000000000000
    EFP Energy =                            0.0000000000000000
    Total Energy =                       -286.1356380665150141
    Molecular point group: c1
  Basis Set: CC-PVTZ
  Basis Set:

  -Total Gradient:
     Atom            X                  Y                   Z
    ------   -----------------  -----------------  -----------------
       1       -0.000071665038    -0.000114926976    -0.000043027304
       2       -0.000012296741     0.000012575199     0.000211117519
       3        0.000044828336     0.000014927911    -0.000051584102
       4        0.000045680164     0.000022885269    -0.000164208915
       5        0.000000983627     0.000032260203    -0.000006356967
       6        0.000008943017    -0.000000216156    -0.000002872474
       7        0.000009695975     0.000020096627     0.000003850792
       8        0.000023822736    -0.000028567747    -0.000018738663
       9        0.000004134341     0.000010732426     0.000074215449
      10       -0.000002271651     0.000004252294     0.000004025526
      11        0.000013824897     0.000003316941     0.000000693767
      12        0.000003070859    -0.000008860341     0.000012413593
      13       -0.000006275860    -0.000012862515     0.000014053275
      14       -0.000055933938     0.000020404718    -0.000044439794
      15       -0.000006540726     0.000023982153     0.000010858301

  **** Optimization is complete! (in 5 steps) ****
    Final optimized geometry and variables:
    Molecular point group: c1

    Geometry (in Angstrom), charge = 0, multiplicity = 1:

    O           -0.988175137664    -1.402890939690     0.050085164897
    C           -0.675048320139    -0.248292504699    -0.009686215598
    C           -1.742491506968     0.826599268115    -0.011538458048
    N            0.622280115184     0.144970211626    -0.099307331602
    H           -1.692153290238     1.431066397842    -0.908439685458
    H           -2.698310101068     0.331559729855     0.031352804349
    H           -1.642147891991     1.483784890708     0.843454277870
    C            1.664396120794    -0.854992434945     0.000771779584
    C            1.062627186572     1.511897054371     0.046840732785
    H            2.462727171434    -0.615152918049    -0.690869238752
    H            1.261797765632    -1.821848406711    -0.240651688502
    H            2.081615358868    -0.891604899362     1.003876283029
    H            1.933504775349     1.673570787155    -0.575308608264
    H            0.305296313974     2.210116209812    -0.265946575368
    H            1.339581768519     1.741688252029     1.073259892759

  Mulliken Charges: (a.u.)
   Center  Symbol    Alpha    Beta     Spin     Total
       1     O     4.22049  4.22049  0.00000 -0.44098
       2     C     2.84529  2.84529  0.00000  0.30943
       3     C     3.16083  3.16083  0.00000 -0.32165
       4     N     3.56216  3.56216  0.00000 -0.12432
       5     H     0.44884  0.44884  0.00000  0.10232
       6     H     0.42864  0.42864  0.00000  0.14272
       7     H     0.44919  0.44919  0.00000  0.10163
       8     C     3.09857  3.09857  0.00000 -0.19715
       9     C     3.09573  3.09573  0.00000 -0.19145
      10     H     0.45672  0.45672  0.00000  0.08657
      11     H     0.42658  0.42658  0.00000  0.14685
      12     H     0.45786  0.45786  0.00000  0.08428
      13     H     0.44931  0.44931  0.00000  0.10137
      14     H     0.44512  0.44512  0.00000  0.10977
      15     H     0.45469  0.45469  0.00000  0.09061

   Total alpha = 24.00000, Total beta = 24.00000, Total charge = -0.00000
