  ==> Input File <==

--------------------------------------------------------------------------
set {
	reference rhf
	basis cc-pvtz
}

set_num_threads( 4 )
memory 2 gb

molecule MOL {
0 1

H	 -2.497099	 1.070874	 1.365689
C	 -1.845530	 1.658130	 2.008706
O	 -0.510129	 1.333146	 1.812159
H	 -1.970277	 2.703782	 1.768001
H	 -2.148070	 1.498960	 3.042156
C	 -0.194356	 0.009390	 2.094287
C	 1.249132	 -0.256024	 1.747525
H	 -0.346606	 -0.197345	 3.153556
H	 -0.828851	 -0.667247	 1.525948
O	 1.401606	 -0.295166	 0.366636
H	 1.870427	 0.524455	 2.181434
H	 1.548584	 -1.207267	 2.187339
C	 2.714315	 -0.441627	 -0.061017
H	 2.765292	 -0.641548	 -1.128869
H	 3.305661	 0.447341	 0.150952
H	 3.143725	 -1.278506	 0.470147

	symmetry c1
}
set optking {
	frozen_dihedral = ("
		7 10 13 14
	")
}

ee = optimize('scf')
oeprop('DIPOLE', 'QUADRUPOLE', 'MULLIKEN_CHARGES')
f=open( 'psi4out.xyz', 'w' )
f.write( "16  " )
f.write( str(ee) + "\n" )
f.write( MOL.save_string_xyz() )
f.close()
--------------------------------------------------------------------------

    Molecular point group: c1
  Charge       = 0
  Multiplicity = 1
  Basis Set: CC-PVTZ
  Basis Set:
  @DF-RHF Final Energy:  -307.09669150089007
    Total Energy =                       -307.0966915008900742
    Molecular point group: c1
  Basis Set: CC-PVTZ
  Basis Set:
  Basis Set: CC-PVTZ
  Basis Set:
  @DF-RHF Final Energy:  -307.09751483823726
    Total Energy =                       -307.0975148382370890
  Basis Set: CC-PVTZ
  Basis Set:
  Basis Set: CC-PVTZ
  Basis Set:
  @DF-RHF Final Energy:  -307.09773607685469
    Total Energy =                       -307.0977360768547442
  Basis Set: CC-PVTZ
  Basis Set:
  Charge       = 0
  Multiplicity = 1
  Basis Set: CC-PVTZ
  Basis Set:

    Orbital Energies (a.u.)
    -----------------------

    Doubly Occupied:

       1A    -20.547847     2A    -20.547605     3A    -11.267570
       4A    -11.266888     5A    -11.261622     6A    -11.261575
       7A     -1.391702     8A     -1.374495     9A     -1.032082
      10A     -0.937199    11A     -0.892229    12A     -0.824438
      13A     -0.686474    14A     -0.682814    15A     -0.659441
      16A     -0.637832    17A     -0.632564    18A     -0.598335
      19A     -0.550591    20A     -0.537107    21A     -0.509467
      22A     -0.479869    23A     -0.464805    24A     -0.423067
      25A     -0.413689

  @DF-RHF Final Energy:  -307.09773710161573

   => Energetics <=

    Nuclear Repulsion Energy =            258.9116384442545495
    One-Electron Energy =                -932.2561337541256989
    Two-Electron Energy =                 366.2467582082555282
    DFT Exchange-Correlation Energy =       0.0000000000000000
    Empirical Dispersion Energy =           0.0000000000000000
    PCM Polarization Energy =               0.0000000000000000
    EFP Energy =                            0.0000000000000000
    Total Energy =                       -307.0977371016156212
    Molecular point group: c1
  Basis Set: CC-PVTZ
  Basis Set:

  -Total Gradient:
     Atom            X                  Y                   Z
    ------   -----------------  -----------------  -----------------
       1        0.000001681015    -0.000000679545    -0.000001104069
       2        0.000003310342     0.000000312089     0.000004433683
       3        0.000001669425     0.000016374770     0.000022253221
       4        0.000001760297    -0.000001586624     0.000000688473
       5       -0.000005229132     0.000002049167     0.000002033798
       6       -0.000009740432    -0.000018734628    -0.000166835057
       7        0.000025030365    -0.001027414151     0.000079472813
       8        0.000066646849    -0.000002139956    -0.000031497878
       9       -0.000041793415    -0.000028759112     0.000004168553
      10        0.000104246243     0.001185962835     0.000030745491
      11        0.000022025437     0.000006350894     0.000007565664
      12       -0.000009930091    -0.000006553299    -0.000025550306
      13        0.000051861540     0.001154080058    -0.000217251181
      14       -0.000129520552    -0.001291951962     0.000249986987
      15       -0.000046572423     0.000013142484     0.000018764424
      16       -0.000035445465    -0.000000453019     0.000022125383

  **** Optimization is complete! (in 4 steps) ****
    Final optimized geometry and variables:
    Molecular point group: c1

    Geometry (in Angstrom), charge = 0, multiplicity = 1:

    H           -2.963778407670     0.738985276018     0.031457681872
    C           -2.313844395956     1.323389585137     0.678691243322
    O           -0.978299104771     0.995707224383     0.487589398214
    H           -2.435046161219     2.369828206724     0.439636400242
    H           -2.621486819624     1.162756207521     1.710416220258
    C           -0.666882703074    -0.329376320338     0.768248681497
    C            0.777536921359    -0.597498246886     0.428012906166
    H           -0.824286653360    -0.537998519036     1.826385885268
    H           -1.300244490163    -1.003465484254     0.195583954511
    O            0.934984800152    -0.637630638395    -0.952325647293
    H            1.398045558856     0.181698452415     0.865695717772
    H            1.073454275501    -1.549661397274     0.867659908776
    C            2.249803898104    -0.780403739440    -1.375830765437
    H            2.236367655521    -0.976950312783    -2.438070574612
    H            2.829758172890     0.119407990968    -1.185805130397
    H            2.739624732476    -1.616638448871    -0.880219466747

  Mulliken Charges: (a.u.)
   Center  Symbol    Alpha    Beta     Spin     Total
       1     H     0.47016  0.47016  0.00000  0.05967
       2     C     3.03198  3.03198  0.00000 -0.06397
       3     O     4.17055  4.17055  0.00000 -0.34110
       4     H     0.44635  0.44635  0.00000  0.10731
       5     H     0.47367  0.47367  0.00000  0.05265
       6     C     2.96067  2.96067  0.00000  0.07866
       7     C     2.96046  2.96046  0.00000  0.07908
       8     H     0.47609  0.47609  0.00000  0.04781
       9     H     0.47077  0.47077  0.00000  0.05845
      10     O     4.17082  4.17082  0.00000 -0.34165
      11     H     0.47132  0.47132  0.00000  0.05736
      12     H     0.47541  0.47541  0.00000  0.04919
      13     C     3.03171  3.03171  0.00000 -0.06342
      14     H     0.44715  0.44715  0.00000  0.10571
      15     H     0.46766  0.46766  0.00000  0.06468
      16     H     0.47521  0.47521  0.00000  0.04957

   Total alpha = 25.00000, Total beta = 25.00000, Total charge =  0.00000
