                              Psi4 1.0.54 Driver

  ==> Input File <==

--------------------------------------------------------------------------
set {
	reference rhf
	basis cc-pvtz
}

set_num_threads( 4 )
memory 2 gb

molecule MOL {
0 1

H	 2.590083	 -0.420718	 -0.558736
O	 1.675515	 -0.612943	 -0.465627
C	 1.135873	 0.113391	 0.608264
C	 0.027642	 1.012027	 0.090274
H	 1.902972	 0.727968	 1.072615
H	 0.756163	 -0.561896	 1.370018
C	 -1.138737	 0.285728	 -0.581921
H	 0.464661	 1.708096	 -0.618252
H	 -0.340737	 1.603071	 0.925246
C	 -1.933983	 -0.631436	 0.343653
H	 -0.763151	 -0.285569	 -1.422081
H	 -1.808359	 1.035291	 -0.992333
H	 -2.789188	 -1.049673	 -0.174718
H	 -1.335629	 -1.461368	 0.700418
H	 -2.305435	 -0.092167	 1.209725

	symmetry c1
}
set optking {
	frozen_dihedral = ("
		1 2 3 4
	")
}

ee,wfn = optimize('scf', return_wfn=True)
oeprop( wfn, 'DIPOLE', 'QUADRUPOLE', 'MULLIKEN_CHARGES')
f=open( 'psi4out.xyz', 'w' )
f.write( "15  " )
f.write( str(ee) + "\n" )
f.write( MOL.save_string_xyz() )
f.close()
--------------------------------------------------------------------------

    Molecular point group: c1
  Charge       = 0
  Multiplicity = 1
  Basis Set: CC-PVTZ
  Basis Set:
  @DF-RHF Final Energy:  -232.23537269530414
    Total Energy =                       -232.2353726953043065
    Molecular point group: c1
  Basis Set: CC-PVTZ
  Basis Set:
  Basis Set: CC-PVTZ
  Basis Set:
  @DF-RHF Final Energy:  -232.23542769826196
    Total Energy =                       -232.2354276982620718
  Basis Set: CC-PVTZ
  Basis Set:
  Basis Set: CC-PVTZ
  Basis Set:
  @DF-RHF Final Energy:  -232.23580873768165
    Total Energy =                       -232.2358087376815661
  Basis Set: CC-PVTZ
  Basis Set:
  Basis Set: CC-PVTZ
  Basis Set:
  @DF-RHF Final Energy:  -232.23581230740660
    Total Energy =                       -232.2358123074065475
  Basis Set: CC-PVTZ
  Basis Set:
  Basis Set: CC-PVTZ
  Basis Set:
  @DF-RHF Final Energy:  -232.23581373304154
    Total Energy =                       -232.2358137330414820
  Basis Set: CC-PVTZ
  Basis Set:
  Charge       = 0
  Multiplicity = 1
  Basis Set: CC-PVTZ
  Basis Set:

    Orbital Energies (a.u.)
    -----------------------

    Doubly Occupied:

       1A    -20.545182     2A    -11.265761     3A    -11.210826
       4A    -11.207367     5A    -11.202012     6A     -1.362623
       7A     -1.065045     8A     -0.970655     9A     -0.870991
      10A     -0.779854    11A     -0.701041    12A     -0.644492
      13A     -0.616206    14A     -0.574688    15A     -0.563265
      16A     -0.533330    17A     -0.509361    18A     -0.483411
      19A     -0.467557    20A     -0.452584    21A     -0.428264

  @DF-RHF Final Energy:  -232.23581547153142

   => Energetics <=

    Nuclear Repulsion Energy =            191.6188711161928211
    One-Electron Energy =                -694.8003469972047697
    Two-Electron Energy =                 270.9456604094802969
    DFT Exchange-Correlation Energy =       0.0000000000000000
    Empirical Dispersion Energy =           0.0000000000000000
    PCM Polarization Energy =               0.0000000000000000
    EFP Energy =                            0.0000000000000000
    Total Energy =                       -232.2358154715316232
    Molecular point group: c1
  Basis Set: CC-PVTZ
  Basis Set:

  -Total Gradient:
     Atom            X                  Y                   Z
    ------   -----------------  -----------------  -----------------
       1       -0.000014422972     0.000054477728    -0.000050242196
       2        0.000028101900    -0.000070638953     0.000022176733
       3       -0.000056220279    -0.000002424529     0.000052677789
       4        0.000034211886     0.000018965607    -0.000020436274
       5        0.000003670291     0.000004945418    -0.000000488896
       6       -0.000000266595    -0.000003166451    -0.000001626619
       7        0.000011202028     0.000013224749    -0.000007502960
       8        0.000008845259     0.000000849295     0.000002355566
       9        0.000002794628    -0.000001722192     0.000000439214
      10       -0.000007703373    -0.000006729314     0.000013931480
      11        0.000001407456    -0.000001229609    -0.000011240079
      12       -0.000006226801     0.000004145879    -0.000009893344
      13       -0.000000953949    -0.000002915914     0.000001741382
      14       -0.000001398611    -0.000008058968     0.000006185513
      15       -0.000003040864     0.000000277250     0.000001922690

  **** Optimization is complete! (in 6 steps) ****
    Final optimized geometry and variables:
    Molecular point group: c1

    Geometry (in Angstrom), charge = 0, multiplicity = 1:

    H            2.571214275071    -0.633294466989    -0.467443939454
    O            1.648696673930    -0.764407870956    -0.366300445263
    C            1.129865419005     0.104247727885     0.612971658768
    C            0.065496744972     1.018029088692     0.026414054049
    H            1.921699294543     0.709382065748     1.042983783371
    H            0.718558027062    -0.495273863324     1.416913424950
    C           -1.118127320979     0.295616947146    -0.619145198277
    H            0.535946913497     1.655163230805    -0.716507086475
    H           -0.292542706625     1.671385637306     0.819289847265
    C           -1.970383999893    -0.517807694800     0.351796626900
    H           -0.749613718854    -0.351107192328    -1.406442729078
    H           -1.746489261164     1.039638463991    -1.098966751746
    H           -2.829002851958    -0.941656865445    -0.156189603920
    H           -1.413875089143    -1.339780460719     0.785816447064
    H           -2.340504843573     0.100080456900     1.164217984922

  Mulliken Charges: (a.u.)
   Center  Symbol    Alpha    Beta     Spin     Total
       1     H     0.39268  0.39268  0.00000  0.21464
       2     O     4.20442  4.20442  0.00000 -0.40883
       3     C     2.97993  2.97993  0.00000  0.04014
       4     C     3.08855  3.08855  0.00000 -0.17711
       5     H     0.46215  0.46215  0.00000  0.07571
       6     H     0.46514  0.46514  0.00000  0.06971
       7     C     3.08829  3.08829  0.00000 -0.17657
       8     H     0.45367  0.45367  0.00000  0.09266
       9     H     0.45727  0.45727  0.00000  0.08545
      10     C     3.15418  3.15418  0.00000 -0.30835
      11     H     0.44714  0.44714  0.00000  0.10572
      12     H     0.45062  0.45062  0.00000  0.09875
      13     H     0.44702  0.44702  0.00000  0.10597
      14     H     0.45157  0.45157  0.00000  0.09686
      15     H     0.45738  0.45738  0.00000  0.08524

   Total alpha = 21.00000, Total beta = 21.00000, Total charge =  0.00000

*** Psi4 exiting successfully. Buy a developer a beer!
