                              Psi4 1.0.54 Driver

  ==> Input File <==

--------------------------------------------------------------------------
set {
	reference rhf
	basis cc-pvtz
}

set_num_threads( 4 )
memory 2 gb

molecule MOL {
0 1

H	 -2.931752	 1.714088	 1.166502
O	 -2.182256	 1.679143	 1.733499
C	 -1.014524	 1.754058	 0.975596
C	 -0.793473	 0.591216	 0.050087
H	 -0.193934	 1.809210	 1.681211
H	 -0.986884	 2.674821	 0.395828
C	 -1.534243	 -0.493009	 -0.013340
H	 0.058438	 0.692161	 -0.602067
H	 -1.101195	 -1.466332	 -0.144046
H	 -2.604242	 -0.437780	 0.050785

	symmetry c1
}
set optking {
	frozen_dihedral = ("
		3 4 7 9
	")
}

ee,wfn = optimize('scf', return_wfn=True)
oeprop( wfn, 'DIPOLE', 'QUADRUPOLE', 'MULLIKEN_CHARGES')
f=open( 'psi4out.xyz', 'w' )
f.write( "10  " )
f.write( str(ee) + "\n" )
f.write( MOL.save_string_xyz() )
f.close()
--------------------------------------------------------------------------

    Molecular point group: c1
  Charge       = 0
  Multiplicity = 1
  Basis Set: CC-PVTZ
  Basis Set:
  @DF-RHF Final Energy:  -191.96071627889944
    Total Energy =                       -191.9607162788994685
    Molecular point group: c1
  Basis Set: CC-PVTZ
  Basis Set:
  Basis Set: CC-PVTZ
  Basis Set:
  @DF-RHF Final Energy:  -191.97613193837765
    Total Energy =                       -191.9761319383776481
  Basis Set: CC-PVTZ
  Basis Set:
  Basis Set: CC-PVTZ
  Basis Set:
  @DF-RHF Final Energy:  -191.98270554075472
    Total Energy =                       -191.9827055407546652
  Basis Set: CC-PVTZ
  Basis Set:
  Basis Set: CC-PVTZ
  Basis Set:
  @DF-RHF Final Energy:  -191.98345256991934
    Total Energy =                       -191.9834525699193080
  Basis Set: CC-PVTZ
  Basis Set:
  Basis Set: CC-PVTZ
  Basis Set:
  @DF-RHF Final Energy:  -191.98345899144124
    Total Energy =                       -191.9834589914412959
  Basis Set: CC-PVTZ
  Basis Set:
  Charge       = 0
  Multiplicity = 1
  Basis Set: CC-PVTZ
  Basis Set:

    Orbital Energies (a.u.)
    -----------------------

    Doubly Occupied:

       1A    -20.555543     2A    -11.281667     3A    -11.231605
       4A    -11.215790     5A     -1.375642     6A     -1.062552
       7A     -0.932415     8A     -0.771608     9A     -0.692657
      10A     -0.660637    11A     -0.622218    12A     -0.576506
      13A     -0.541067    14A     -0.491982    15A     -0.454906
      16A     -0.361061

  @DF-RHF Final Energy:  -191.98345919151012

   => Energetics <=

    Nuclear Repulsion Energy =            119.1967408763834442
    One-Electron Energy =                -496.7046893844388933
    Two-Electron Energy =                 185.5244893165453846
    DFT Exchange-Correlation Energy =       0.0000000000000000
    Empirical Dispersion Energy =           0.0000000000000000
    PCM Polarization Energy =               0.0000000000000000
    EFP Energy =                            0.0000000000000000
    Total Energy =                       -191.9834591915100646
    Molecular point group: c1
  Basis Set: CC-PVTZ
  Basis Set:

  -Total Gradient:
     Atom            X                  Y                   Z
    ------   -----------------  -----------------  -----------------
       1        0.000035495351    -0.000020010142     0.000065907379
       2       -0.000074302711     0.000078505330    -0.000108789526
       3        0.012974354631    -0.007951504986     0.011323469708
       4       -0.019625575034     0.011658762606    -0.008145426992
       5        0.000027942642     0.000003085603    -0.000028051932
       6       -0.000044169654    -0.000016576136     0.000015623032
       7        0.001822430131    -0.000117096669    -0.027353399653
       8       -0.000073166751    -0.000007022050    -0.000103505348
       9        0.004767096542    -0.003621429257     0.024456668359
      10        0.000189894851    -0.000006714298    -0.000122495028

  **** Optimization is complete! (in 6 steps) ****
    Final optimized geometry and variables:
    Molecular point group: c1

    Geometry (in Angstrom), charge = 0, multiplicity = 1:

    H           -1.502290678516     0.969874612788     0.400782441887
    O           -0.789127177898     0.771098094185     0.980220685617
    C            0.415012079274     0.799163678302     0.277359002427
    C            0.597660731604    -0.312363546875    -0.720507836341
    H            1.204664564303     0.674914992148     1.007673416425
    H            0.567004186192     1.771425975694    -0.187121583935
    C           -0.065787732316    -1.449539350220    -0.762160166091
    H            1.552660618337    -0.261206326684    -1.222370638510
    H            0.412742594680    -2.383259333070    -0.992230778370
    H           -0.985158729851    -1.546465302448    -0.212138692904

  Mulliken Charges: (a.u.)
   Center  Symbol    Alpha    Beta     Spin     Total
       1     H     0.39110  0.39110  0.00000  0.21781
       2     O     4.19795  4.19795  0.00000 -0.39589
       3     C     2.95279  2.95279  0.00000  0.09442
       4     C     3.08824  3.08824  0.00000 -0.17647
       5     H     0.45093  0.45093  0.00000  0.09813
       6     H     0.46521  0.46521  0.00000  0.06959
       7     C     3.16750  3.16750  0.00000 -0.33500
       8     H     0.42851  0.42851  0.00000  0.14299
       9     H     0.42550  0.42550  0.00000  0.14899
      10     H     0.43228  0.43228  0.00000  0.13545

   Total alpha = 16.00000, Total beta = 16.00000, Total charge = -0.00000

*** Psi4 exiting successfully. Buy a developer a beer!
