  ==> Input File <==

--------------------------------------------------------------------------
set {
	reference rhf
	basis 6-31G*
}

set_num_threads( 4 )
memory 2 gb

molecule MOL {
0 1

H	 -0.397229	 2.510568	 0.221735
C	 0.387990	 1.946917	 0.739934
C	 0.692068	 0.589600	 0.160137
O	 0.932195	 2.414713	 1.687106
C	 -0.558097	 -0.297372	 0.091132
H	 1.469834	 0.130641	 0.759235
H	 1.084618	 0.738356	 -0.845153
C	 -1.850991	 0.512573	 -0.019058
H	 -0.476753	 -0.965681	 -0.762987
H	 -0.604799	 -0.930658	 0.975228
C	 -3.096943	 -0.368295	 -0.099594
H	 -1.800724	 1.150330	 -0.898172
H	 -1.931651	 1.177355	 0.838044
H	 -3.060452	 -1.020287	 -0.967456
H	 -3.996858	 0.233488	 -0.175704
H	 -3.191959	 -0.995686	 0.782074

	symmetry c1
}
set optking {
	frozen_dihedral = ("
		6 3 5 9
	")
}

ee = optimize('scf')
oeprop('DIPOLE', 'QUADRUPOLE', 'MULLIKEN_CHARGES')
f=open( 'psi4out.xyz', 'w' )
f.write( "16  " )
f.write( str(ee) + "\n" )
f.write( MOL.save_string_xyz() )
f.close()
--------------------------------------------------------------------------

    Molecular point group: c1
  Charge       = 0
  Multiplicity = 1
  Basis Set: 6-31G*
  Basis Set:
  @DF-RHF Final Energy:  -270.01039661061725
    Total Energy =                       -270.0103966106174198
    Molecular point group: c1
  Basis Set: 6-31G*
  Basis Set:
  Basis Set: 6-31G*
  Basis Set:
  @DF-RHF Final Energy:  -270.01087039382639
    Total Energy =                       -270.0108703938266217
  Basis Set: 6-31G*
  Basis Set:
  Basis Set: 6-31G*
  Basis Set:
  @DF-RHF Final Energy:  -270.01315733893051
    Total Energy =                       -270.0131573389306254
  Basis Set: 6-31G*
  Basis Set:
  Basis Set: 6-31G*
  Basis Set:
  @DF-RHF Final Energy:  -270.01356637881543
    Total Energy =                       -270.0135663788153124
  Basis Set: 6-31G*
  Basis Set:
  @DF-RHF Final Energy:  -270.01061157380298
    Total Energy =                       -270.0106115738029757
  @DF-RHF Final Energy:  -270.01385134566851
    Total Energy =                       -270.0138513456683995
  @DF-RHF Final Energy:  -270.01390468803618
    Total Energy =                       -270.0139046880363480
  Basis Set: 6-31G*
  Basis Set:
  @DF-RHF Final Energy:  -270.01389396265171
    Total Energy =                       -270.0138939626518777
  Basis Set: 6-31G*
  Basis Set:
  Basis Set: 6-31G*
  Basis Set:
  @DF-RHF Final Energy:  -270.01395269031718
    Total Energy =                       -270.0139526903169553
  Basis Set: 6-31G*
  Basis Set:
  Basis Set: 6-31G*
  Basis Set:
  @DF-RHF Final Energy:  -270.01395397580427
    Total Energy =                       -270.0139539758043838
  Basis Set: 6-31G*
  Basis Set:
  Charge       = 0
  Multiplicity = 1
  Basis Set: 6-31G*
  Basis Set:

    Orbital Energies (a.u.)
    -----------------------

    Doubly Occupied:

       1A    -20.561348     2A    -11.325149     3A    -11.236219
       4A    -11.234585     5A    -11.230415     6A    -11.218834
       7A     -1.401136     8A     -1.093659     9A     -1.015439
      10A     -0.905063    11A     -0.833321    12A     -0.770663
      13A     -0.681379    14A     -0.645048    15A     -0.622695
      16A     -0.602748    17A     -0.581030    18A     -0.560223
      19A     -0.524122    20A     -0.514625    21A     -0.491916
      22A     -0.477396    23A     -0.469439    24A     -0.407085

  @DF-RHF Final Energy:  -270.01395412361569

   => Energetics <=

    Nuclear Repulsion Energy =            234.0883819657589413
    One-Electron Energy =                -829.3976025413735442
    Two-Electron Energy =                 325.2952664519987138
    DFT Exchange-Correlation Energy =       0.0000000000000000
    Empirical Dispersion Energy =           0.0000000000000000
    PCM Polarization Energy =               0.0000000000000000
    EFP Energy =                            0.0000000000000000
    Total Energy =                       -270.0139541236159175
    Molecular point group: c1
  Basis Set: 6-31G*
  Basis Set:

  -Total Gradient:
     Atom            X                  Y                   Z
    ------   -----------------  -----------------  -----------------
       1        0.000007017593     0.000013046287    -0.000006290996
       2       -0.000023646683    -0.000024615912     0.000017917228
       3        0.001574371726    -0.002233808732    -0.005675295609
       4        0.000004116853     0.000013970275    -0.000005784993
       5        0.002345001950    -0.003493590513     0.004452773650
       6       -0.001646596842     0.002379073428     0.004077539330
       7       -0.000005502791    -0.000002988031    -0.000001162544
       8        0.000006373752    -0.000004928987    -0.000008293440
       9       -0.002248902444     0.003334565968    -0.002863877131
      10        0.000007948208     0.000004187764     0.000005946620
      11       -0.000001643435     0.000008529444     0.000012421279
      12        0.000000004431     0.000000161333     0.000001148056
      13       -0.000022399837     0.000001598064    -0.000004490519
      14        0.000001123178     0.000008792835    -0.000005009846
      15       -0.000002729029    -0.000001971994     0.000004904256
      16        0.000005463363    -0.000002021234    -0.000002445342

  **** Optimization is complete! (in 11 steps) ****
    Final optimized geometry and variables:
    Molecular point group: c1

    Geometry (in Angstrom), charge = 0, multiplicity = 1:

    H            0.571123388309     1.932327301071    -0.328703913339
    C            1.097225050806     1.194600165666     0.285147420091
    C            1.297092708346    -0.169443203975    -0.334971787882
    O            1.478088900773     1.490735951023     1.372044434818
    C            0.017219960404    -1.042100503033    -0.340255354971
    H            2.067792307238    -0.648385116798     0.256429883478
    H            1.657357134686    -0.028267839418    -1.350222837202
    C           -1.304780007375    -0.274528811978    -0.474772204979
    H            0.078972679315    -1.724232763326    -1.182858115491
    H           -0.010971537877    -1.638529409198     0.565297313302
    C           -2.506340378582    -1.214554723868    -0.562390776635
    H           -1.277260654439     0.354845751760    -1.362166904355
    H           -1.438973767320     0.391826661462     0.373621668711
    H           -2.431568265858    -1.867818299250    -1.426935791280
    H           -3.433458921987    -0.657062515511    -0.647326374376
    H           -2.576764802541    -1.841758712856     0.321458592941

  Mulliken Charges: (a.u.)
   Center  Symbol    Alpha    Beta     Spin     Total
       1     H     0.42921  0.42921  0.00000  0.14158
       2     C     2.83830  2.83830  0.00000  0.32340
       3     C     3.20724  3.20724  0.00000 -0.41449
       4     O     4.23734  4.23734  0.00000 -0.47467
       5     C     3.15552  3.15552  0.00000 -0.31104
       6     H     0.39796  0.39796  0.00000  0.20408
       7     H     0.41223  0.41223  0.00000  0.17553
       8     C     3.16513  3.16513  0.00000 -0.33026
       9     H     0.41550  0.41550  0.00000  0.16900
      10     H     0.41040  0.41040  0.00000  0.17920
      11     C     3.23959  3.23959  0.00000 -0.47917
      12     H     0.42159  0.42159  0.00000  0.15683
      13     H     0.41523  0.41523  0.00000  0.16954
      14     H     0.42034  0.42034  0.00000  0.15933
      15     H     0.41593  0.41593  0.00000  0.16814
      16     H     0.41849  0.41849  0.00000  0.16301

   Total alpha = 24.00000, Total beta = 24.00000, Total charge =  0.00000
