  ==> Input File <==

--------------------------------------------------------------------------
set {
	reference rhf
	basis 6-31G*
}

set_num_threads( 1 )
memory 2 gb

molecule MOL {
0 1

O	 -2.821601	 1.309235	 -0.001213
C	 -2.668563	 0.129746	 -0.000350
C	 -3.801572	 -0.864014	 -0.000442
O	 -1.481751	 -0.454642	 0.000584
H	 -4.417280	 -0.689587	 -0.874708
H	 -3.443784	 -1.883046	 -0.000565
H	 -4.417179	 -0.689832	 0.873954
C	 -0.334255	 0.388708	 0.000906
C	 0.891947	 -0.504646	 0.000751
H	 -0.365390	 1.025305	 -0.873475
H	 -0.365484	 1.024911	 0.875569
C	 2.191998	 0.301789	 0.000897
H	 0.855148	 -1.151283	 -0.871571
H	 0.855132	 -1.151660	 0.872805
C	 2.405767	 1.087437	 1.296036
H	 3.035770	 -0.368280	 -0.154482
H	 2.191789	 0.992401	 -0.840611
C	 3.704929	 1.891827	 1.296662
H	 2.406603	 0.398787	 2.137960
H	 1.564605	 1.759219	 1.451680
H	 4.567966	 1.243169	 1.176563
H	 3.828275	 2.437252	 2.227003
H	 3.719503	 2.614039	 0.485362

	symmetry c1
}
set optking {
	frozen_dihedral = ("
		13 9 8 10,
		2 4 8 10,
		19 15 12 16,
		1 2 4 8
	")
}

ee = energy('scf')
oeprop('DIPOLE', 'QUADRUPOLE', 'MULLIKEN_CHARGES')
f=open( 'psi4out.xyz', 'w' )
f.write( "23  " )
f.write( str(ee) + "\n" )
f.write( MOL.save_string_xyz() )
f.close()
--------------------------------------------------------------------------

    Molecular point group: c1

    Geometry (in Angstrom), charge = 0, multiplicity = 1:

       Center              X                  Y                   Z               Mass
    ------------   -----------------  -----------------  -----------------  -----------------
           O         -2.590587686026     0.936871816718    -0.290681653957    15.994914619560
           C         -2.437549686026    -0.242617183282    -0.289818653957    12.000000000000
           C         -3.570558686026    -1.236377183282    -0.289910653957    12.000000000000
           O         -1.250737686026    -0.827005183282    -0.288884653957    15.994914619560
           H         -4.186266686026    -1.061950183282    -1.164176653957     1.007825032070
           H         -3.212770686026    -2.255409183282    -0.290033653957     1.007825032070
           H         -4.186165686026    -1.062195183282     0.584485346043     1.007825032070
           C         -0.103241686026     0.016344816718    -0.288562653957    12.000000000000
           C          1.122960313974    -0.877009183282    -0.288717653957    12.000000000000
           H         -0.134376686026     0.652941816718    -1.162943653957     1.007825032070
           H         -0.134470686026     0.652547816718     0.586100346043     1.007825032070
           C          2.423011313974    -0.070574183282    -0.288571653957    12.000000000000
           H          1.086161313974    -1.523646183282    -1.161039653957     1.007825032070
           H          1.086145313974    -1.524023183282     0.583336346043     1.007825032070
           C          2.636780313974     0.715073816718     1.006567346043    12.000000000000
           H          3.266783313974    -0.740643183282    -0.443950653957     1.007825032070
           H          2.422802313974     0.620037816718    -1.130079653957     1.007825032070
           C          3.935942313974     1.519463816718     1.007193346043    12.000000000000
           H          2.637616313974     0.026423816718     1.848491346043     1.007825032070
           H          1.795618313974     1.386855816718     1.162211346043     1.007825032070
           H          4.798979313974     0.870805816718     0.887094346043     1.007825032070
           H          4.059288313974     2.064888816718     1.937534346043     1.007825032070
           H          3.950516313974     2.241675816718     0.195893346043     1.007825032070

  Charge       = 0
  Multiplicity = 1
  Basis Set: 6-31G*
  Basis Set:

    Orbital Energies (a.u.)
    -----------------------

    Doubly Occupied:

       1A    -20.602945     2A    -20.540581     3A    -11.374106
       4A    -11.280841     5A    -11.232417     6A    -11.224184
       7A    -11.223539     8A    -11.221173     9A    -11.212794
      10A     -1.467911    11A     -1.360733    12A     -1.096273
      13A     -1.039951    14A     -1.002587    15A     -0.931013
      16A     -0.849449    17A     -0.792154    18A     -0.780606
      19A     -0.688433    20A     -0.684711    21A     -0.672383
      22A     -0.634981    23A     -0.614945    24A     -0.587239
      25A     -0.577820    26A     -0.573200    27A     -0.562685
      28A     -0.528947    29A     -0.527173    30A     -0.510944
      31A     -0.494624    32A     -0.476952    33A     -0.469587
      34A     -0.461444    35A     -0.448130    36A     -0.435872

  @DF-RHF Final Energy:  -422.97721687289987

   => Energetics <=

    Nuclear Repulsion Energy =            457.2522218529505267
    One-Electron Energy =               -1482.0924936687738409
    Two-Electron Energy =                 601.8630549429246912
    DFT Exchange-Correlation Energy =       0.0000000000000000
    Empirical Dispersion Energy =           0.0000000000000000
    PCM Polarization Energy =               0.0000000000000000
    EFP Energy =                            0.0000000000000000
    Total Energy =                       -422.9772168728986799

  Mulliken Charges: (a.u.)
   Center  Symbol    Alpha    Beta     Spin     Total
       1     O     4.28409  4.28409  0.00000 -0.56817
       2     C     2.61535  2.61535  0.00000  0.76929
       3     C     3.28781  3.28781  0.00000 -0.57563
       4     O     4.31294  4.31294  0.00000 -0.62588
       5     H     0.39750  0.39750  0.00000  0.20501
       6     H     0.39982  0.39982  0.00000  0.20036
       7     H     0.39753  0.39753  0.00000  0.20495
       8     C     2.99755  2.99755  0.00000  0.00489
       9     C     3.16576  3.16576  0.00000 -0.33153
      10     H     0.41084  0.41084  0.00000  0.17832
      11     H     0.40882  0.40882  0.00000  0.18236
      12     C     3.16162  3.16162  0.00000 -0.32325
      13     H     0.41210  0.41210  0.00000  0.17580
      14     H     0.41444  0.41444  0.00000  0.17112
      15     C     3.15653  3.15653  0.00000 -0.31305
      16     H     0.41671  0.41671  0.00000  0.16658
      17     H     0.42100  0.42100  0.00000  0.15800
      18     C     3.23894  3.23894  0.00000 -0.47788
      19     H     0.42108  0.42108  0.00000  0.15785
      20     H     0.42010  0.42010  0.00000  0.15980
      21     H     0.42122  0.42122  0.00000  0.15756
      22     H     0.41768  0.41768  0.00000  0.16464
      23     H     0.42057  0.42057  0.00000  0.15885

   Total alpha = 36.00000, Total beta = 36.00000, Total charge =  0.00000
