  ==> Input File <==

--------------------------------------------------------------------------
set {
	reference rhf
	basis 6-31G*
}

set_num_threads( 4 )
memory 2 gb

molecule MOL {
0 1

H	 -3.420663	 1.227371	 -1.044276
O	 -3.452007	 0.283848	 -0.965577
C	 -3.181085	 -0.079926	 0.364119
C	 -1.765924	 0.277073	 0.805136
H	 -3.327791	 -1.152017	 0.410903
H	 -3.905698	 0.375695	 1.036898
C	 -0.677594	 -0.417312	 -0.014550
H	 -1.637766	 1.358238	 0.744969
H	 -1.659588	 0.017670	 1.857098
C	 0.738335	 -0.034840	 0.421385
H	 -0.814977	 -0.178223	 -1.064632
H	 -0.802730	 -1.495410	 0.071702
C	 1.822265	 -0.738362	 -0.399735
H	 0.853533	 1.043532	 0.342250
H	 0.871597	 -0.279636	 1.474438
C	 3.258060	 -0.455774	 0.057203
H	 1.718003	 -0.459167	 -1.447053
H	 1.651028	 -1.811884	 -0.354513
C	 3.424607	 0.826987	 0.874022
H	 3.893276	 -0.392758	 -0.823035
H	 3.624674	 -1.301932	 0.634969
H	 3.054404	 1.689250	 0.325760
H	 4.471029	 1.005895	 1.101682
H	 2.890583	 0.780490	 1.817325

	symmetry c1
}
set optking {
	frozen_dihedral = ("
		20 16 13 17
	")
}

ee = optimize('scf')
oeprop('DIPOLE', 'QUADRUPOLE', 'MULLIKEN_CHARGES')
f=open( 'psi4out.xyz', 'w' )
f.write( "24  " )
f.write( str(ee) + "\n" )
f.write( MOL.save_string_xyz() )
f.close()
--------------------------------------------------------------------------

    Molecular point group: c1
  Charge       = 0
  Multiplicity = 1
  Basis Set: 6-31G*
  Basis Set:
  @DF-RHF Final Energy:  -349.24029626623508
    Total Energy =                       -349.2402962662349637
    Molecular point group: c1
  Basis Set: 6-31G*
  Basis Set:
  Basis Set: 6-31G*
  Basis Set:
  @DF-RHF Final Energy:  -349.24077971196709
    Total Energy =                       -349.2407797119671500
  Basis Set: 6-31G*
  Basis Set:
  Basis Set: 6-31G*
  Basis Set:
  @DF-RHF Final Energy:  -349.24166949569525
    Total Energy =                       -349.2416694956955325
  Basis Set: 6-31G*
  Basis Set:
  Basis Set: 6-31G*
  Basis Set:
  @DF-RHF Final Energy:  -349.24170217260894
    Total Energy =                       -349.2417021726089388
  Basis Set: 6-31G*
  Basis Set:
  Basis Set: 6-31G*
  Basis Set:
  @DF-RHF Final Energy:  -349.24169650348188
    Total Energy =                       -349.2416965034819896
  Basis Set: 6-31G*
  Basis Set:
  Basis Set: 6-31G*
  Basis Set:
  @DF-RHF Final Energy:  -349.24170513195003
    Total Energy =                       -349.2417051319500843
  Basis Set: 6-31G*
  Basis Set:
  Charge       = 0
  Multiplicity = 1
  Basis Set: 6-31G*
  Basis Set:

    Orbital Energies (a.u.)
    -----------------------

    Doubly Occupied:

       1A    -20.553574     2A    -11.267702     3A    -11.217443
       4A    -11.214390     5A    -11.212727     6A    -11.211578
       7A    -11.211077     8A    -11.206941     9A     -1.360173
      10A     -1.087357    11A     -1.046365    12A     -0.985072
      13A     -0.915018    14A     -0.853913    15A     -0.802027
      16A     -0.769521    17A     -0.679091    18A     -0.655614
      19A     -0.628780    20A     -0.617925    21A     -0.591937
      22A     -0.586306    23A     -0.554504    24A     -0.543949
      25A     -0.513183    26A     -0.508822    27A     -0.502078
      28A     -0.472687    29A     -0.467931    30A     -0.458004
      31A     -0.452021    32A     -0.447556    33A     -0.419379

  @DF-RHF Final Energy:  -349.24170573806083

   => Energetics <=

    Nuclear Repulsion Energy =            385.2299839642493566
    One-Electron Energy =               -1236.9140818535097424
    Two-Electron Energy =                 502.4423921511994422
    DFT Exchange-Correlation Energy =       0.0000000000000000
    Empirical Dispersion Energy =           0.0000000000000000
    PCM Polarization Energy =               0.0000000000000000
    EFP Energy =                            0.0000000000000000
    Total Energy =                       -349.2417057380608867
    Molecular point group: c1
  Basis Set: 6-31G*
  Basis Set:

  -Total Gradient:
     Atom            X                  Y                   Z
    ------   -----------------  -----------------  -----------------
       1        0.000000680979    -0.000001154306     0.000000794174
       2        0.000003941058    -0.000002639815    -0.000002462233
       3        0.000008052313    -0.000005158041    -0.000007315588
       4        0.000015222903    -0.000007870772     0.000014677756
       5       -0.000002080266    -0.000000265793    -0.000000224520
       6        0.000008420867     0.000001107056     0.000002352237
       7        0.000001365389     0.000013402232    -0.000019576595
       8       -0.000001757399    -0.000005148742    -0.000004797104
       9        0.000003079169     0.000002543338     0.000006224448
      10        0.000014441347     0.000015010803     0.000053162566
      11       -0.000012300494     0.000009520372    -0.000011730319
      12        0.000000830155    -0.000000002848    -0.000002520462
      13       -0.001884290035     0.008162906785     0.001759389268
      14        0.000015507518     0.000022857896     0.000003801931
      15       -0.000022655590     0.000004699043     0.000008382788
      16        0.001352978088    -0.008452102487     0.000184478565
      17        0.001423612598    -0.005572581451    -0.001538335769
      18        0.000057231932    -0.000004983096     0.000009778218
      19       -0.000070690545     0.000036552799     0.000021335540
      20       -0.000885877798     0.005799439714    -0.000458545718
      21       -0.000020364844    -0.000033956660    -0.000012585039
      22       -0.000016122405     0.000018312104     0.000001500702
      23       -0.000011907410    -0.000012707668    -0.000025061335
      24        0.000022682470     0.000012219537     0.000017276491

  **** Optimization is complete! (in 7 steps) ****
    Final optimized geometry and variables:
    Molecular point group: c1

    Geometry (in Angstrom), charge = 0, multiplicity = 1:

    H           -3.385423828360     1.274358797077    -1.164437639392
    O           -3.413855180973     0.328494958279    -1.121108637375
    C           -3.169991748502    -0.082735616446     0.199981581789
    C           -1.766444101775     0.263660017153     0.684457237566
    H           -3.312302497373    -1.156339703864     0.204121493094
    H           -3.911187645064     0.344731977265     0.873096952161
    C           -0.657501477351    -0.394241736684    -0.137690263609
    H           -1.642892636312     1.346873840213     0.667915736793
    H           -1.681101495324    -0.034975216394     1.727906691075
    C            0.746472052619    -0.019503857085     0.341627472005
    H           -0.774815336347    -0.117144274189    -1.180839899990
    H           -0.778051488655    -1.475362944937    -0.093864510860
    C            1.842281273302    -0.691083813163    -0.488182255155
    H            0.857003718550     1.061161017329     0.304756223447
    H            0.856245600908    -0.302448858447     1.387238964822
    C            3.305803831219    -0.443302882325    -0.050548710972
    H            1.729738458225    -0.431835765500    -1.538421511531
    H            1.668173341037    -1.765325913862    -0.462792941410
    C            3.566440008068     0.871785706824     0.693233853841
    H            3.927632733187    -0.419785168308    -0.940867041428
    H            3.652420929512    -1.267328097466     0.565536945304
    H            3.266184161979     1.730800420722     0.099976434629
    H            4.626192117908     0.976698687452     0.905479984563
    H            3.038123966171     0.921374876014     1.639255441328

  Mulliken Charges: (a.u.)
   Center  Symbol    Alpha    Beta     Spin     Total
       1     H     0.28339  0.28339  0.00000  0.43322
       2     O     4.36830  4.36830  0.00000 -0.73660
       3     C     2.99613  2.99613  0.00000  0.00773
       4     C     3.16901  3.16901  0.00000 -0.33801
       5     H     0.41632  0.41632  0.00000  0.16735
       6     H     0.42816  0.42816  0.00000  0.14368
       7     C     3.15211  3.15211  0.00000 -0.30422
       8     H     0.42826  0.42826  0.00000  0.14348
       9     H     0.42244  0.42244  0.00000  0.15513
      10     C     3.15411  3.15411  0.00000 -0.30821
      11     H     0.41199  0.41199  0.00000  0.17602
      12     H     0.42350  0.42350  0.00000  0.15300
      13     C     3.15600  3.15600  0.00000 -0.31199
      14     H     0.42222  0.42222  0.00000  0.15556
      15     H     0.42461  0.42461  0.00000  0.15078
      16     C     3.15278  3.15278  0.00000 -0.30556
      17     H     0.42143  0.42143  0.00000  0.15714
      18     H     0.42210  0.42210  0.00000  0.15580
      19     C     3.24253  3.24253  0.00000 -0.48507
      20     H     0.42065  0.42065  0.00000  0.15871
      21     H     0.42121  0.42121  0.00000  0.15757
      22     H     0.42236  0.42236  0.00000  0.15529
      23     H     0.41993  0.41993  0.00000  0.16013
      24     H     0.42047  0.42047  0.00000  0.15906

   Total alpha = 33.00000, Total beta = 33.00000, Total charge = -0.00000
