  ==> Input File <==

--------------------------------------------------------------------------
set {
	reference rhf
	basis 6-31G*
}

set_num_threads( 4 )
memory 2 gb

molecule MOL {
0 1

H	 0.967521	 -2.536958	 0.855469
C	 0.913559	 -1.708911	 1.572566
C	 -0.339061	 -0.874650	 1.495827
O	 1.804309	 -1.522192	 2.336654
C	 -0.558097	 -0.297372	 0.091132
H	 -0.270512	 -0.089469	 2.239651
H	 -1.180790	 -1.514653	 1.757971
C	 -1.850991	 0.512573	 -0.019058
H	 0.287164	 0.334039	 -0.172739
H	 -0.577760	 -1.106760	 -0.636442
C	 -3.096943	 -0.368295	 -0.099594
H	 -1.800724	 1.150330	 -0.898172
H	 -1.931651	 1.177355	 0.838044
H	 -3.060452	 -1.020287	 -0.967456
H	 -3.996858	 0.233488	 -0.175704
H	 -3.191959	 -0.995686	 0.782074

	symmetry c1
}
set optking {
	frozen_dihedral = ("
		9 5 8 12
	")
}

ee = optimize('scf')
oeprop('DIPOLE', 'QUADRUPOLE', 'MULLIKEN_CHARGES')
f=open( 'psi4out.xyz', 'w' )
f.write( "16  " )
f.write( str(ee) + "\n" )
f.write( MOL.save_string_xyz() )
f.close()
--------------------------------------------------------------------------

    Molecular point group: c1
  Charge       = 0
  Multiplicity = 1
  Basis Set: 6-31G*
  Basis Set:
  @DF-RHF Final Energy:  -270.01778377900251
    Total Energy =                       -270.0177837790027979
    Molecular point group: c1
  Basis Set: 6-31G*
  Basis Set:
  Basis Set: 6-31G*
  Basis Set:
  @DF-RHF Final Energy:  -270.01790410992521
    Total Energy =                       -270.0179041099252117
  Basis Set: 6-31G*
  Basis Set:
  Basis Set: 6-31G*
  Basis Set:
  @DF-RHF Final Energy:  -270.01488154022252
    Total Energy =                       -270.0148815402224045
  Basis Set: 6-31G*
  Basis Set:
  Basis Set: 6-31G*
  Basis Set:
  @DF-RHF Final Energy:  -270.01799239584727
    Total Energy =                       -270.0179923958472727
  Basis Set: 6-31G*
  Basis Set:
  Basis Set: 6-31G*
  Basis Set:
  @DF-RHF Final Energy:  -270.01802326161106
    Total Energy =                       -270.0180232616113472
  Basis Set: 6-31G*
  Basis Set:
  Charge       = 0
  Multiplicity = 1
  Basis Set: 6-31G*
  Basis Set:

    Orbital Energies (a.u.)
    -----------------------

    Doubly Occupied:

       1A    -20.562337     2A    -11.326479     3A    -11.236795
       4A    -11.235066     5A    -11.229546     6A    -11.219960
       7A     -1.402158     8A     -1.096193     9A     -1.016511
      10A     -0.912542    11A     -0.809253    12A     -0.792902
      13A     -0.676805    14A     -0.644064    15A     -0.634594
      16A     -0.602306    17A     -0.574124    18A     -0.565623
      19A     -0.522741    20A     -0.515714    21A     -0.487962
      22A     -0.482871    23A     -0.470800    24A     -0.409345

  @DF-RHF Final Energy:  -270.01802354408824

   => Energetics <=

    Nuclear Repulsion Energy =            231.1510928226951194
    One-Electron Energy =                -823.4848454260936705
    Two-Electron Energy =                 322.3157290593102289
    DFT Exchange-Correlation Energy =       0.0000000000000000
    Empirical Dispersion Energy =           0.0000000000000000
    PCM Polarization Energy =               0.0000000000000000
    EFP Energy =                            0.0000000000000000
    Total Energy =                       -270.0180235440883507
    Molecular point group: c1
  Basis Set: 6-31G*
  Basis Set:

  -Total Gradient:
     Atom            X                  Y                   Z
    ------   -----------------  -----------------  -----------------
       1        0.000009806141     0.000006383187     0.000006632230
       2       -0.000016848733    -0.000003668648    -0.000025601513
       3        0.000006748583     0.000010819766    -0.000009476055
       4        0.000004911286    -0.000010076773     0.000009819349
       5        0.000329231247     0.000883705390     0.002334366837
       6        0.000020881623    -0.000005127466     0.000001616928
       7       -0.000011540565     0.000025186426     0.000016537594
       8       -0.000917688766    -0.001743983798    -0.001549823798
       9       -0.000157702619    -0.000481319388    -0.001742163046
      10        0.000022126236    -0.000029885421    -0.000003289799
      11        0.000004689329     0.000022622254    -0.000064321990
      12        0.000684965987     0.001326687393     0.000999999361
      13        0.000003596541    -0.000007932967     0.000030432834
      14        0.000017893079    -0.000025317520     0.000027566078
      15       -0.000003413896    -0.000000601114    -0.000025357784
      16        0.000002344523     0.000032508682    -0.000006937230

  **** Optimization is complete! (in 6 steps) ****
    Final optimized geometry and variables:
    Molecular point group: c1

    Geometry (in Angstrom), charge = 0, multiplicity = 1:

    H            1.510641625632    -1.814268328674    -0.056878402518
    C            1.453621328610    -0.992422717506     0.666875680097
    C            0.191684535863    -0.171202745376     0.606930127256
    O            2.349747241343    -0.800278247821     1.423342739430
    C           -0.036141994845     0.418099631923    -0.792089235855
    H            0.259231525126     0.609843535258     1.355204225704
    H           -0.636870878484    -0.824175969140     0.874557488966
    C           -1.338521017785     1.218592645651    -0.921292233547
    H            0.803201932951     1.058219415826    -1.050385032990
    H           -0.037058005441    -0.384217903885    -1.528328408916
    C           -2.598798780487     0.357489007166    -1.005692053089
    H           -1.272450551730     1.847283639159    -1.804794714669
    H           -1.421343821203     1.902147382426    -0.079236709708
    H           -2.554901977276    -0.315890654600    -1.857009268661
    H           -3.482050135280     0.977557399309    -1.120402381012
    H           -2.739639812675    -0.244787858259    -0.113653879090

  Mulliken Charges: (a.u.)
   Center  Symbol    Alpha    Beta     Spin     Total
       1     H     0.43210  0.43210  0.00000  0.13580
       2     C     2.82974  2.82974  0.00000  0.34052
       3     C     3.20868  3.20868  0.00000 -0.41736
       4     O     4.23718  4.23718  0.00000 -0.47436
       5     C     3.16681  3.16681  0.00000 -0.33363
       6     H     0.39936  0.39936  0.00000  0.20128
       7     H     0.40873  0.40873  0.00000  0.18254
       8     C     3.15375  3.15375  0.00000 -0.30749
       9     H     0.41069  0.41069  0.00000  0.17862
      10     H     0.41959  0.41959  0.00000  0.16082
      11     C     3.24211  3.24211  0.00000 -0.48421
      12     H     0.41607  0.41607  0.00000  0.16786
      13     H     0.41890  0.41890  0.00000  0.16220
      14     H     0.42028  0.42028  0.00000  0.15944
      15     H     0.41546  0.41546  0.00000  0.16908
      16     H     0.42055  0.42055  0.00000  0.15890

   Total alpha = 24.00000, Total beta = 24.00000, Total charge = -0.00000
