                              Psi4 1.0.54 Driver

  ==> Input File <==

--------------------------------------------------------------------------
set {
	reference rhf
	basis cc-pvtz
}

set_num_threads( 4 )
memory 2 gb

molecule MOL {
0 1

H	 3.083659	 -1.378387	 0.000000
O	 2.179005	 -1.633391	 0.000000
C	 1.366950	 -0.558201	 0.000000
C	 0.758182	 -0.089934	 -1.154473
C	 1.148894	 0.082347	 1.202568
H	 0.929149	 -0.590130	 -2.090424
C	 -0.065973	 1.016040	 -1.104018
H	 1.617605	 -0.276871	 2.095942
C	 0.321469	 1.190050	 1.244145
H	 -0.531568	 1.369315	 -2.003597
C	 -0.289295	 1.662517	 0.094987
C	 0.078365	 1.889065	 2.533198
H	 -0.929659	 2.522768	 0.137323
O	 0.547827	 1.571247	 3.571474
H	 -0.589380	 2.753454	 2.465765

	symmetry c1
}
set optking {
	frozen_dihedral = ("
		4 3 2 1
	")
}

ee,wfn = optimize('scf', return_wfn=True)
oeprop( wfn, 'DIPOLE', 'QUADRUPOLE', 'MULLIKEN_CHARGES')
f=open( 'psi4out.xyz', 'w' )
f.write( "15  " )
f.write( str(ee) + "\n" )
f.write( MOL.save_string_xyz() )
f.close()
--------------------------------------------------------------------------

    Molecular point group: c1
  Charge       = 0
  Multiplicity = 1
  Basis Set: CC-PVTZ
  Basis Set:
  @DF-RHF Final Energy:  -418.43444310254108
    Total Energy =                       -418.4344431025408539
    Molecular point group: c1
  Basis Set: CC-PVTZ
  Basis Set:
  Basis Set: CC-PVTZ
  Basis Set:
  @DF-RHF Final Energy:  -418.43540209183658
    Total Energy =                       -418.4354020918364085
  Basis Set: CC-PVTZ
  Basis Set:
  Basis Set: CC-PVTZ
  Basis Set:
  @DF-RHF Final Energy:  -418.43445849159724
    Total Energy =                       -418.4344584915971836
  Basis Set: CC-PVTZ
  Basis Set:
  Basis Set: CC-PVTZ
  Basis Set:
  @DF-RHF Final Energy:  -418.43549089465114
    Total Energy =                       -418.4354908946513660
  Basis Set: CC-PVTZ
  Basis Set:
  Basis Set: CC-PVTZ
  Basis Set:
  @DF-RHF Final Energy:  -418.43550931328724
    Total Energy =                       -418.4355093132874117
  Basis Set: CC-PVTZ
  Basis Set:
  Charge       = 0
  Multiplicity = 1
  Basis Set: CC-PVTZ
  Basis Set:

    Orbital Energies (a.u.)
    -----------------------

    Doubly Occupied:

       1A    -20.581860     2A    -20.555474     3A    -11.329256
       4A    -11.303196     5A    -11.251297     6A    -11.250091
       7A    -11.248756     8A    -11.246820     9A    -11.242936
      10A     -1.411577    11A     -1.409684    12A     -1.175323
      13A     -1.052810    14A     -1.030233    15A     -0.900731
      16A     -0.851222    17A     -0.803348    18A     -0.748655
      19A     -0.702046    20A     -0.683142    21A     -0.658863
      22A     -0.638572    23A     -0.623268    24A     -0.610821
      25A     -0.562679    26A     -0.549358    27A     -0.535025
      28A     -0.504578    29A     -0.492219    30A     -0.427723
      31A     -0.357179    32A     -0.346852

  @DF-RHF Final Energy:  -418.43551168230152

   => Energetics <=

    Nuclear Repulsion Energy =            403.5499847708082939
    One-Electron Energy =               -1369.7998054805832453
    Two-Electron Energy =                 547.8143090274735414
    DFT Exchange-Correlation Energy =       0.0000000000000000
    Empirical Dispersion Energy =           0.0000000000000000
    PCM Polarization Energy =               0.0000000000000000
    EFP Energy =                            0.0000000000000000
    Total Energy =                       -418.4355116823013532
    Molecular point group: c1
  Basis Set: CC-PVTZ
  Basis Set:

  -Total Gradient:
     Atom            X                  Y                   Z
    ------   -----------------  -----------------  -----------------
       1       -0.000037479425     0.000012460783    -0.001039480713
       2        0.000423476351     0.000152487614     0.001262357986
       3       -0.001081433683    -0.000583585227    -0.000320546623
       4        0.000758360808     0.000248092184    -0.000043010279
       5       -0.000042614090     0.000101258535     0.000115565179
       6       -0.000003274479    -0.000008045075     0.000004533716
       7       -0.000090538582     0.000264127998     0.000134392674
       8       -0.000016707410     0.000007230453    -0.000012098758
       9        0.000156836424    -0.000091811891     0.000204049509
      10        0.000010150001    -0.000020837216    -0.000001659424
      11       -0.000074592541    -0.000082211766    -0.000292993241
      12       -0.000037229953     0.000087826083     0.000096115392
      13        0.000005187320     0.000000333592     0.000038173255
      14       -0.000077283171     0.000046007985    -0.000169985306
      15        0.000107142431    -0.000133334057     0.000024586635

  **** Optimization is complete! (in 6 steps) ****
    Final optimized geometry and variables:
    Molecular point group: c1

    Geometry (in Angstrom), charge = 0, multiplicity = 1:

    H            2.363673165460    -1.963067588445    -0.818454648346
    O            1.453200002208    -2.200429417714    -0.791258203725
    C            0.664215808701    -1.087899888718    -0.735798798974
    C            0.058127525671    -0.628151156777    -1.894819402795
    C            0.437972896219    -0.451142574468     0.462328049123
    H            0.241030732645    -1.146734479765    -2.815780163802
    C           -0.773842619788     0.470804086196    -1.852149151494
    H            0.894043758093    -0.810535955548     1.363011498883
    C           -0.395248658694     0.658098622912     0.502547463461
    H           -1.242465153960     0.820643727539    -2.751331815885
    C           -1.001288553465     1.118255279728    -0.651237151524
    C           -0.645247899150     1.358235672096     1.787147919128
    H           -1.648359273045     1.974364455503    -0.613294931205
    O           -0.166027054144     1.052986966629     2.825154559874
    H           -1.326781538683     2.211672717222     1.718279490958

  Mulliken Charges: (a.u.)
   Center  Symbol    Alpha    Beta     Spin     Total
       1     H     0.38676  0.38676  0.00000  0.22648
       2     O     4.18872  4.18872  0.00000 -0.37744
       3     C     2.86104  2.86104  0.00000  0.27792
       4     C     3.10157  3.10157  0.00000 -0.20313
       5     C     3.12337  3.12337  0.00000 -0.24674
       6     H     0.41300  0.41300  0.00000  0.17400
       7     C     3.06687  3.06687  0.00000 -0.13374
       8     H     0.40319  0.40319  0.00000  0.19363
       9     C     2.98118  2.98118  0.00000  0.03763
      10     H     0.41858  0.41858  0.00000  0.16284
      11     C     3.09740  3.09740  0.00000 -0.19480
      12     C     2.90879  2.90879  0.00000  0.18242
      13     H     0.42233  0.42233  0.00000  0.15534
      14     O     4.17096  4.17096  0.00000 -0.34191
      15     H     0.45625  0.45625  0.00000  0.08750

   Total alpha = 32.00000, Total beta = 32.00000, Total charge = -0.00000

*** Psi4 exiting successfully. Buy a developer a beer!
