  ==> Input File <==

--------------------------------------------------------------------------
set {
	reference rhf
	basis 6-31G*
}

set_num_threads( 4 )
memory 2 gb

molecule MOL {
0 1

O	 1.479645	 0.328424	 -1.034310
C	 0.861134	 0.272526	 -0.014869
C	 -0.623889	 -0.118271	 -0.003699
C	 1.547379	 0.598012	 1.300095
C	 -0.895332	 -1.256461	 -1.002431
C	 -1.473649	 1.103340	 -0.370799
C	 -0.983900	 -0.581483	 1.422328
H	 -0.615301	 -0.972064	 -2.012700
H	 -1.954261	 -1.493213	 -1.010207
H	 -0.360539	 -2.164946	 -0.747760
H	 -1.227476	 1.468527	 -1.361691
H	 -2.526716	 0.838935	 -0.358521
H	 -1.314819	 1.915855	 0.325860
H	 -2.039679	 -0.828001	 1.472951
H	 -0.427637	 -1.464071	 1.720694
H	 -0.789023	 0.202493	 2.147048
H	 1.801855	 -0.324688	 1.813249
H	 2.460488	 1.137731	 1.090209
H	 0.922265	 1.179673	 1.966521

	symmetry c1
}
set optking {
	frozen_dihedral = ("
		1 2 3 5
	")
}

ee = optimize('scf')
oeprop('DIPOLE', 'QUADRUPOLE', 'MULLIKEN_CHARGES')
f=open( 'psi4out.xyz', 'w' )
f.write( "19  " )
f.write( str(ee) + "\n" )
f.write( MOL.save_string_xyz() )
f.close()
--------------------------------------------------------------------------

    Molecular point group: c1
  Charge       = 0
  Multiplicity = 1
  Basis Set: 6-31G*
  Basis Set:
  @DF-RHF Final Energy:  -309.05856925172804
    Total Energy =                       -309.0585692517284429
    Molecular point group: c1
  Basis Set: 6-31G*
  Basis Set:
  Basis Set: 6-31G*
  Basis Set:
  @DF-RHF Final Energy:  -309.05955917248281
    Total Energy =                       -309.0595591724828637
  Basis Set: 6-31G*
  Basis Set:
  Basis Set: 6-31G*
  Basis Set:
  @DF-RHF Final Energy:  -309.06147876904947
    Total Energy =                       -309.0614787690492449
  Basis Set: 6-31G*
  Basis Set:
  Basis Set: 6-31G*
  Basis Set:
  @DF-RHF Final Energy:  -309.06135067449623
    Total Energy =                       -309.0613506744963388
  Basis Set: 6-31G*
  Basis Set:
  @DF-RHF Final Energy:  -309.06229967794479
    Total Energy =                       -309.0622996779448499
  @DF-RHF Final Energy:  -309.06230601531706
    Total Energy =                       -309.0623060153171195
  Basis Set: 6-31G*
  Basis Set:
  @DF-RHF Final Energy:  -309.06234027215771
    Total Energy =                       -309.0623402721579396
  Basis Set: 6-31G*
  Basis Set:
  Basis Set: 6-31G*
  Basis Set:
  @DF-RHF Final Energy:  -309.06234383519188
    Total Energy =                       -309.0623438351921664
  Basis Set: 6-31G*
  Basis Set:
  Basis Set: 6-31G*
  Basis Set:
  @DF-RHF Final Energy:  -309.06234502357432
    Total Energy =                       -309.0623450235742666
  Basis Set: 6-31G*
  Basis Set:
  Charge       = 0
  Multiplicity = 1
  Basis Set: 6-31G*
  Basis Set:

    Orbital Energies (a.u.)
    -----------------------

    Doubly Occupied:

       1A    -20.547644     2A    -11.323325     3A    -11.246337
       4A    -11.227456     5A    -11.222500     6A    -11.221622
       7A    -11.211496     8A     -1.394513     9A     -1.108473
      10A     -1.003194    11A     -0.944147    12A     -0.936831
      13A     -0.833862    14A     -0.703869    15A     -0.664650
      16A     -0.631266    17A     -0.621973    18A     -0.589957
      19A     -0.587426    20A     -0.570201    21A     -0.549731
      22A     -0.545866    23A     -0.524357    24A     -0.512827
      25A     -0.500231    26A     -0.471314    27A     -0.462032
      28A     -0.391838

  @DF-RHF Final Energy:  -309.06234537940037

   => Energetics <=

    Nuclear Repulsion Energy =            326.2414517255373880
    One-Electron Energy =               -1065.5097164047251681
    Two-Electron Energy =                 430.2059192997875243
    DFT Exchange-Correlation Energy =       0.0000000000000000
    Empirical Dispersion Energy =           0.0000000000000000
    PCM Polarization Energy =               0.0000000000000000
    EFP Energy =                            0.0000000000000000
    Total Energy =                       -309.0623453794001989
    Molecular point group: c1
  Basis Set: 6-31G*
  Basis Set:

  -Total Gradient:
     Atom            X                  Y                   Z
    ------   -----------------  -----------------  -----------------
       1       -0.000348204444     0.001271428046    -0.000069600093
       2        0.000570975281    -0.001973560630     0.000315762422
       3       -0.000408893883     0.001350600743    -0.000880846119
       4       -0.000001907064     0.000015998621    -0.000005787923
       5        0.000196869066    -0.000651866747     0.000646556475
       6       -0.000006288123     0.000000023740     0.000004260872
       7       -0.000003603805    -0.000003817074    -0.000010504210
       8       -0.000002153001     0.000000452903     0.000004747844
       9       -0.000001760218    -0.000003662870    -0.000001920914
      10        0.000000102342    -0.000001215554    -0.000000333290
      11        0.000001508589    -0.000002593789     0.000002856785
      12       -0.000003509762     0.000002206913    -0.000000220275
      13        0.000000364365    -0.000000608626    -0.000000741648
      14       -0.000001275388    -0.000001301123    -0.000000551088
      15       -0.000001640674     0.000000490081    -0.000000746472
      16        0.000001574610     0.000003509394    -0.000001293986
      17        0.000001244609    -0.000001676427    -0.000004355029
      18        0.000004685033    -0.000000156968     0.000003780915
      19        0.000001912464    -0.000004250635    -0.000001064266

  **** Optimization is complete! (in 10 steps) ****
    Final optimized geometry and variables:
    Molecular point group: c1

    Geometry (in Angstrom), charge = 0, multiplicity = 1:

    O            1.428638520806     0.312821482000    -1.118568771832
    C            0.875904639049     0.221984919046    -0.063928123329
    C           -0.605205962914    -0.193095388156    -0.003967270530
    C            1.611888217860     0.584070631038     1.210885882248
    C           -0.849836267007    -1.299652497993    -1.040125435134
    C           -1.425288144692     1.058208825747    -0.373388190238
    C           -1.030845494380    -0.695824147251     1.383804085868
    H           -0.558094303657    -0.976664814393    -2.029957592528
    H           -1.901956369802    -1.567519909256    -1.057943683828
    H           -0.282255184228    -2.193470939989    -0.798997757437
    H           -1.156819824107     1.415404951659    -1.360516808708
    H           -2.485223048748     0.823647136997    -0.369801529189
    H           -1.264560733628     1.866488121302     0.334985676745
    H           -2.075893422854    -0.986848272942     1.360364508207
    H           -0.458314526792    -1.566603177258     1.689290394882
    H           -0.923707224087     0.063496965203     2.150826798303
    H            1.698770514454    -0.276112065965     1.866346827060
    H            2.599527406733     0.938633545659     0.951874733378
    H            1.082974330264     1.356320250167     1.760381032248

  Mulliken Charges: (a.u.)
   Center  Symbol    Alpha    Beta     Spin     Total
       1     O     4.26680  4.26680  0.00000 -0.53360
       2     C     2.72671  2.72671  0.00000  0.54659
       3     C     3.06270  3.06270  0.00000 -0.12539
       4     C     3.28996  3.28996  0.00000 -0.57993
       5     C     3.23290  3.23290  0.00000 -0.46580
       6     C     3.23924  3.23924  0.00000 -0.47848
       7     C     3.24085  3.24085  0.00000 -0.48170
       8     H     0.40104  0.40104  0.00000  0.19792
       9     H     0.42109  0.42109  0.00000  0.15783
      10     H     0.41943  0.41943  0.00000  0.16114
      11     H     0.40457  0.40457  0.00000  0.19086
      12     H     0.41492  0.41492  0.00000  0.17016
      13     H     0.41994  0.41994  0.00000  0.16013
      14     H     0.41406  0.41406  0.00000  0.17188
      15     H     0.41758  0.41758  0.00000  0.16483
      16     H     0.41801  0.41801  0.00000  0.16398
      17     H     0.40617  0.40617  0.00000  0.18766
      18     H     0.39553  0.39553  0.00000  0.20894
      19     H     0.40850  0.40850  0.00000  0.18299

   Total alpha = 28.00000, Total beta = 28.00000, Total charge =  0.00000
