                              Psi4 1.0.54 Driver

  ==> Input File <==

--------------------------------------------------------------------------
set {
	reference rhf
	basis cc-pvtz
}

set_num_threads( 4 )
memory 2 gb

molecule MOL {
0 1

O	 2.868453	 1.353349	 -0.000734
C	 2.841259	 0.166180	 -0.000295
C	 1.542794	 -0.614730	 -0.000853
C	 4.113372	 -0.651103	 0.000743
C	 0.288398	 0.247429	 0.000314
H	 1.557171	 -1.273139	 -0.866508
H	 1.557484	 -1.274998	 0.863344
C	 -0.856197	 -0.383264	 0.788502
H	 -0.022414	 0.424184	 -1.023047
H	 0.526816	 1.221325	 0.412401
C	 -2.120315	 0.471287	 0.797283
H	 -1.088225	 -1.360646	 0.371175
H	 -0.536642	 -0.559485	 1.813243
C	 -3.269837	 -0.152881	 1.583252
H	 -2.440656	 0.647780	 -0.226604
H	 -1.889577	 1.448223	 1.214998
C	 -4.529494	 0.706792	 1.587383
H	 -3.501952	 -1.128936	 1.165665
H	 -2.950950	 -0.328476	 2.607164
H	 -4.893711	 0.871947	 0.578864
H	 -5.325178	 0.235629	 2.152992
H	 -4.338712	 1.678201	 2.031240
H	 4.145311	 -1.294584	 -0.871587
H	 4.970080	 0.004978	 -0.000091
H	 4.145223	 -1.291980	 0.874988

	symmetry c1
}
set optking {
	frozen_dihedral = ("
		9 5 3 6
	")
}

ee,wfn = optimize('scf', return_wfn=True)
oeprop( wfn, 'DIPOLE', 'QUADRUPOLE', 'MULLIKEN_CHARGES')
f=open( 'psi4out.xyz', 'w' )
f.write( "25  " )
f.write( str(ee) + "\n" )
f.write( MOL.save_string_xyz() )
f.close()
--------------------------------------------------------------------------

    Molecular point group: c1
  Charge       = 0
  Multiplicity = 1
  Basis Set: CC-PVTZ
  Basis Set:
  @DF-RHF Final Energy:  -387.27166272466667
    Total Energy =                       -387.2716627246674079
    Molecular point group: c1
  Basis Set: CC-PVTZ
  Basis Set:
  Basis Set: CC-PVTZ
  Basis Set:
  @DF-RHF Final Energy:  -387.27194282483828
    Total Energy =                       -387.2719428248387885
  Basis Set: CC-PVTZ
  Basis Set:
  Basis Set: CC-PVTZ
  Basis Set:
  @DF-RHF Final Energy:  -387.27186975022317
    Total Energy =                       -387.2718697502235727
  Basis Set: CC-PVTZ
  Basis Set:
  Basis Set: CC-PVTZ
  Basis Set:
  @DF-RHF Final Energy:  -387.27199523787937
    Total Energy =                       -387.2719952378788548
  Basis Set: CC-PVTZ
  Basis Set:
  Basis Set: CC-PVTZ
  Basis Set:
  @DF-RHF Final Energy:  -387.27200072043524
    Total Energy =                       -387.2720007204354715
  Basis Set: CC-PVTZ
  Basis Set:
  Charge       = 0
  Multiplicity = 1
  Basis Set: CC-PVTZ
  Basis Set:

    Orbital Energies (a.u.)
    -----------------------

    Doubly Occupied:

       1A    -20.539245     2A    -11.320997     3A    -11.230499
       4A    -11.226704     5A    -11.214723     6A    -11.213889
       7A    -11.213254     8A    -11.211081     9A    -11.206232
      10A     -1.399425    11A     -1.094218    12A     -1.057076
      13A     -1.015564    14A     -0.969498    15A     -0.891701
      16A     -0.814816    17A     -0.791064    18A     -0.730240
      19A     -0.665964    20A     -0.649715    21A     -0.634116
      22A     -0.626217    23A     -0.596803    24A     -0.584691
      25A     -0.570354    26A     -0.559799    27A     -0.539126
      28A     -0.526791    29A     -0.514730    30A     -0.495688
      31A     -0.486256    32A     -0.473241    33A     -0.463797
      34A     -0.462152    35A     -0.450413    36A     -0.401691

  @DF-RHF Final Energy:  -387.27200142730265

   => Energetics <=

    Nuclear Repulsion Energy =            439.3876163222024047
    One-Electron Energy =               -1395.6356961510987276
    Two-Electron Energy =                 568.9760784015934405
    DFT Exchange-Correlation Energy =       0.0000000000000000
    Empirical Dispersion Energy =           0.0000000000000000
    PCM Polarization Energy =               0.0000000000000000
    EFP Energy =                            0.0000000000000000
    Total Energy =                       -387.2720014273029392
    Molecular point group: c1
  Basis Set: CC-PVTZ
  Basis Set:

  -Total Gradient:
     Atom            X                  Y                   Z
    ------   -----------------  -----------------  -----------------
       1        0.000024089822    -0.000048810658     0.000018213987
       2        0.000021655984    -0.000028813087    -0.000013990417
       3       -0.002532354334    -0.003738666469     0.002266625615
       4        0.000023976339     0.000039337791    -0.000026813935
       5        0.002824991848     0.004118780085    -0.000489683946
       6        0.001676088306     0.002472728791    -0.001784543946
       7        0.000006910184    -0.000015181191    -0.000004771295
       8       -0.000018227087     0.000014958974    -0.000084645166
       9       -0.001990275919    -0.002855600054     0.000121201632
      10       -0.000022386600     0.000029118948    -0.000031856664
      11       -0.000017052591    -0.000014447923     0.000013781610
      12       -0.000014982316    -0.000010062898    -0.000003077422
      13        0.000024248685     0.000012196253    -0.000029600914
      14       -0.000006101840     0.000022659558     0.000010045330
      15        0.000007823670    -0.000007364322     0.000004500486
      16       -0.000003539493    -0.000000815116    -0.000001607772
      17       -0.000005906613    -0.000006046160     0.000008442914
      18        0.000003048683     0.000006686994    -0.000003588534
      19       -0.000001832917    -0.000002026595     0.000005432481
      20        0.000002209559    -0.000000897764     0.000000886986
      21       -0.000004666267     0.000003299462    -0.000001444632
      22       -0.000000728830    -0.000001155693     0.000001545354
      23       -0.000006406268     0.000003780396     0.000014876420
      24        0.000016384526    -0.000006926998     0.000005835451
      25       -0.000006966533     0.000013267676     0.000004236379

  **** Optimization is complete! (in 6 steps) ****
    Final optimized geometry and variables:
    Molecular point group: c1

    Geometry (in Angstrom), charge = 0, multiplicity = 1:

    O            2.819240591317     1.240445658757    -0.534511005836
    C            2.769830248753     0.054331052908    -0.530858288247
    C            1.461111536613    -0.715081897866    -0.492961380303
    C            4.028402602739    -0.783727191835    -0.567709132614
    C            0.203518208756     0.154461598720    -0.467722880088
    H            1.469513614638    -1.359531853262    -1.367961989133
    H            1.502368803156    -1.375749350428     0.368638046995
    C           -0.953704794218    -0.510360905715     0.276808339788
    H           -0.115276744742     0.349653739058    -1.486129857870
    H            0.432959687391     1.110113873494    -0.017633496104
    C           -2.232098136884     0.321959256977     0.263742959534
    H           -1.156826870650    -1.485901521028    -0.160122753056
    H           -0.657078826427    -0.694879229435     1.306813812694
    C           -3.387415312577    -0.326700637721     1.020942182176
    H           -2.534160781924     0.499898772706    -0.765632443695
    H           -2.026634090697     1.299832284563     0.692293332938
    C           -4.661741710321     0.510867865980     1.002422298142
    H           -3.593277359798    -1.304246997348     0.593099159173
    H           -3.087783384271    -0.502557371820     2.050564080414
    H           -5.007135745205     0.675382573739    -0.012855427285
    H           -5.461051914923     0.022770000961     1.548246894851
    H           -4.497490446924     1.482891353027     1.455417916707
    H            4.026929286283    -1.422052568348    -1.444328515833
    H            4.895362376584    -0.141560473654    -0.587910478597
    H            4.073076666823    -1.430412759428     0.301630303177

  Mulliken Charges: (a.u.)
   Center  Symbol    Alpha    Beta     Spin     Total
       1     O     4.16993  4.16993  0.00000 -0.33987
       2     C     2.86079  2.86079  0.00000  0.27841
       3     C     3.11574  3.11574  0.00000 -0.23148
       4     C     3.15139  3.15139  0.00000 -0.30277
       5     C     3.08967  3.08967  0.00000 -0.17934
       6     H     0.44275  0.44275  0.00000  0.11450
       7     H     0.44470  0.44470  0.00000  0.11059
       8     C     3.09179  3.09179  0.00000 -0.18359
       9     H     0.45249  0.45249  0.00000  0.09502
      10     H     0.43665  0.43665  0.00000  0.12671
      11     C     3.08706  3.08706  0.00000 -0.17411
      12     H     0.45539  0.45539  0.00000  0.08921
      13     H     0.45547  0.45547  0.00000  0.08905
      14     C     3.08377  3.08377  0.00000 -0.16753
      15     H     0.45471  0.45471  0.00000  0.09057
      16     H     0.45268  0.45268  0.00000  0.09465
      17     C     3.15049  3.15049  0.00000 -0.30097
      18     H     0.45544  0.45544  0.00000  0.08912
      19     H     0.45494  0.45494  0.00000  0.09011
      20     H     0.45515  0.45515  0.00000  0.08971
      21     H     0.44867  0.44867  0.00000  0.10266
      22     H     0.45453  0.45453  0.00000  0.09095
      23     H     0.45014  0.45014  0.00000  0.09972
      24     H     0.43528  0.43528  0.00000  0.12944
      25     H     0.45037  0.45037  0.00000  0.09925

   Total alpha = 36.00000, Total beta = 36.00000, Total charge = -0.00000

*** Psi4 exiting successfully. Buy a developer a beer!
