  ==> Input File <==

--------------------------------------------------------------------------
set {
	reference rhf
	basis cc-pvtz
}

set_num_threads( 4 )
memory 2 gb

molecule MOL {
0 1

H	 4.350750	 -0.135346	 -1.839792
C	 3.556900	 -0.664599	 -1.326176
C	 2.267697	 0.149402	 -1.322720
H	 3.417518	 -1.616581	 -1.827517
H	 3.897032	 -0.870253	 -0.316705
C	 1.124569	 -0.557498	 -0.609616
H	 1.960912	 0.366292	 -2.339876
H	 2.449046	 1.108530	 -0.843384
N	 -0.089360	 0.229224	 -0.643975
H	 0.925810	 -1.504468	 -1.102477
H	 1.430168	 -0.800378	 0.412491
C	 -1.215959	 -0.382435	 0.027143
H	 0.083746	 1.133086	 -0.256178
C	 -2.451944	 0.502410	 -0.038737
H	 -1.426122	 -1.328554	 -0.462619
H	 -0.995048	 -0.618988	 1.072284
C	 -3.752217	 -0.292550	 0.005776
H	 -2.407325	 1.093801	 -0.946480
H	 -2.431979	 1.206234	 0.790023
H	 -3.817783	 -0.982946	 -0.828547
H	 -4.612613	 0.364348	 -0.042306
H	 -3.830160	 -0.871666	 0.919868

	symmetry c1
}
set optking {
	frozen_dihedral = ("
		15 12 14 18
	")
}

ee = optimize('scf')
oeprop('DIPOLE', 'QUADRUPOLE', 'MULLIKEN_CHARGES')
f=open( 'psi4out.xyz', 'w' )
f.write( "22  " )
f.write( str(ee) + "\n" )
f.write( MOL.save_string_xyz() )
f.close()
--------------------------------------------------------------------------

    Molecular point group: c1
  Charge       = 0
  Multiplicity = 1
  Basis Set: CC-PVTZ
  Basis Set:
  @DF-RHF Final Energy:  -290.48751199015533
    Total Energy =                       -290.4875119901552125
    Molecular point group: c1
  Basis Set: CC-PVTZ
  Basis Set:
  Basis Set: CC-PVTZ
  Basis Set:
  @DF-RHF Final Energy:  -290.48777026674412
    Total Energy =                       -290.4877702667440644
  Basis Set: CC-PVTZ
  Basis Set:
  Basis Set: CC-PVTZ
  Basis Set:
  @DF-RHF Final Energy:  -290.48781202771437
    Total Energy =                       -290.4878120277145399
  Basis Set: CC-PVTZ
  Basis Set:
  Basis Set: CC-PVTZ
  Basis Set:
  @DF-RHF Final Energy:  -290.48781358777080
    Total Energy =                       -290.4878135877708587
  Basis Set: CC-PVTZ
  Basis Set:
  Charge       = 0
  Multiplicity = 1
  Basis Set: CC-PVTZ
  Basis Set:

    Orbital Energies (a.u.)
    -----------------------

    Doubly Occupied:

       1A    -15.528958     2A    -11.236296     3A    -11.236075
       4A    -11.211882     5A    -11.211608     6A    -11.207805
       7A    -11.207608     8A     -1.207756     9A     -1.059871
      10A     -1.026953    11A     -0.928755    12A     -0.869170
      13A     -0.812771    14A     -0.794480    15A     -0.666876
      16A     -0.628189    17A     -0.617263    18A     -0.613973
      19A     -0.573757    20A     -0.563393    21A     -0.532590
      22A     -0.528372    23A     -0.516112    24A     -0.486872
      25A     -0.480604    26A     -0.474337    27A     -0.464377
      28A     -0.451804    29A     -0.361254

  @DF-RHF Final Energy:  -290.48781372994324

   => Energetics <=

    Nuclear Repulsion Energy =            313.6239872862377069
    One-Electron Energy =               -1013.2240804041283582
    Two-Electron Energy =                 409.1122793879475239
    DFT Exchange-Correlation Energy =       0.0000000000000000
    Empirical Dispersion Energy =           0.0000000000000000
    PCM Polarization Energy =               0.0000000000000000
    EFP Energy =                            0.0000000000000000
    Total Energy =                       -290.4878137299431273
    Molecular point group: c1
  Basis Set: CC-PVTZ
  Basis Set:

  -Total Gradient:
     Atom            X                  Y                   Z
    ------   -----------------  -----------------  -----------------
       1       -0.000003966595     0.000003007425     0.000001821915
       2       -0.000004659299    -0.000002339421     0.000008267148
       3       -0.000001289390     0.000005638349    -0.000001266699
       4       -0.000001074750     0.000001703568    -0.000001315806
       5        0.000002424535    -0.000002685108     0.000001558846
       6        0.000037805985    -0.000031512607    -0.000009811853
       7       -0.000005332257    -0.000004229608     0.000000209348
       8        0.000003388915     0.000002432617    -0.000000692658
       9       -0.000031664355    -0.000005236521     0.000012065659
      10       -0.000002535235     0.000000808319    -0.000002543901
      11       -0.000005675724     0.000009715980    -0.000005742876
      12        0.002107810538     0.002860330165    -0.004267575963
      13        0.000001072751     0.000011736942     0.000004515287
      14       -0.003057939731    -0.004259689747    -0.001730036207
      15       -0.001303251520    -0.001722058520     0.003820049596
      16        0.000013654897     0.000001047014     0.000018629116
      17        0.000010857097     0.000017243523    -0.000001292688
      18        0.002236611993     0.003102076348     0.002133769861
      19       -0.000000282393     0.000009583008     0.000013824945
      20        0.000002804203     0.000011202588     0.000006348813
      21       -0.000003554133    -0.000007767694    -0.000000390600
      22        0.000004794469    -0.000001006619    -0.000000391281

  **** Optimization is complete! (in 5 steps) ****
    Final optimized geometry and variables:
    Molecular point group: c1

    Geometry (in Angstrom), charge = 0, multiplicity = 1:

    H            4.451754605752     0.031120882222    -1.237604917033
    C            3.654281477671    -0.498294929564    -0.729780043887
    C            2.356496247367     0.301140252589    -0.764150579935
    H            3.534634144494    -1.460118164407    -1.217245067815
    H            3.977643808399    -0.682962786985     0.289219696221
    C            1.207873360673    -0.407014787463    -0.061295437538
    H            2.066891195136     0.498025060676    -1.790329003827
    H            2.518042913115     1.269839078333    -0.297123024745
    N           -0.013596630003     0.365602181705    -0.130861655937
    H            1.027705037929    -1.363531004594    -0.542855239134
    H            1.496288650303    -0.630815969954     0.969979898866
    C           -1.146870385264    -0.254010051545     0.519434857019
    H            0.140075354566     1.274094122282     0.255176906847
    C           -2.379745326439     0.647568470464     0.503629409513
    H           -1.372319366607    -1.193046808831     0.022968634832
    H           -0.923752984321    -0.527209273141     1.555633628859
    C           -3.690453199297    -0.120664745264     0.612285822097
    H           -2.355995629010     1.253228653832    -0.395635074820
    H           -2.311084779937     1.352007886962     1.329427436678
    H           -3.831494667182    -0.773771431866    -0.241847620865
    H           -4.537209496614     0.553952491591     0.658460301005
    H           -3.711101129517    -0.736173419706     1.505988063065

  Mulliken Charges: (a.u.)
   Center  Symbol    Alpha    Beta     Spin     Total
       1     H     0.44769  0.44769  0.00000  0.10462
       2     C     3.15362  3.15362  0.00000 -0.30723
       3     C     3.08006  3.08006  0.00000 -0.16011
       4     H     0.45473  0.45473  0.00000  0.09054
       5     H     0.45615  0.45615  0.00000  0.08771
       6     C     3.02236  3.02236  0.00000 -0.04471
       7     H     0.44914  0.44914  0.00000  0.10172
       8     H     0.45973  0.45973  0.00000  0.08053
       9     N     3.63648  3.63648  0.00000 -0.27296
      10     H     0.45905  0.45905  0.00000  0.08190
      11     H     0.47410  0.47410  0.00000  0.05179
      12     C     3.02246  3.02246  0.00000 -0.04492
      13     H     0.44546  0.44546  0.00000  0.10909
      14     C     3.08649  3.08649  0.00000 -0.17298
      15     H     0.46134  0.46134  0.00000  0.07732
      16     H     0.47516  0.47516  0.00000  0.04967
      17     C     3.15124  3.15124  0.00000 -0.30248
      18     H     0.45036  0.45036  0.00000  0.09928
      19     H     0.45660  0.45660  0.00000  0.08680
      20     H     0.45357  0.45357  0.00000  0.09286
      21     H     0.44853  0.44853  0.00000  0.10294
      22     H     0.45569  0.45569  0.00000  0.08861

   Total alpha = 29.00000, Total beta = 29.00000, Total charge =  0.00000
