                              Psi4 1.0.54 Driver

  ==> Input File <==

--------------------------------------------------------------------------
set {
	reference rhf
	basis cc-pvtz
}

set_num_threads( 4 )
memory 2 gb

molecule MOL {
0 1

H	 -3.316676	 -0.342079	 0.573855
O	 -2.658848	 -0.704215	 -0.000460
C	 -1.605397	 0.107680	 0.001145
C	 -0.310616	 -0.658853	 0.000791
O	 -1.718351	 1.284629	 -0.000627
C	 0.926581	 0.227233	 0.000178
H	 -0.327628	 -1.313681	 -0.864448
H	 -0.327041	 -1.313334	 0.866298
C	 2.220156	 -0.582071	 -0.000088
H	 0.899945	 0.878221	 -0.866390
H	 0.900542	 0.878581	 0.866486
C	 3.466689	 0.296012	 -0.000457
H	 2.239073	 -1.234095	 -0.869382
H	 2.239505	 -1.233985	 0.869270
H	 3.493549	 0.935857	 -0.875887
H	 4.368821	 -0.304526	 -0.001199
H	 3.494559	 0.935166	 0.875458

	symmetry c1
}
set optking {
	frozen_dihedral = ("
		1 2 3 5
	")
}

ee,wfn = optimize('scf', return_wfn=True)
oeprop( wfn, 'DIPOLE', 'QUADRUPOLE', 'MULLIKEN_CHARGES')
f=open( 'psi4out.xyz', 'w' )
f.write( "17  " )
f.write( str(ee) + "\n" )
f.write( MOL.save_string_xyz() )
f.close()
--------------------------------------------------------------------------

    Molecular point group: c1
  Charge       = 0
  Multiplicity = 1
  Basis Set: CC-PVTZ
  Basis Set:
  @DF-RHF Final Energy:  -345.04066385084246
    Total Energy =                       -345.0406638508424635
    Molecular point group: c1
  Basis Set: CC-PVTZ
  Basis Set:
  Basis Set: CC-PVTZ
  Basis Set:
  @DF-RHF Final Energy:  -345.03765488710070
    Total Energy =                       -345.0376548871005866
  Basis Set: CC-PVTZ
  Basis Set:
  Basis Set: CC-PVTZ
  Basis Set:
  @DF-RHF Final Energy:  -345.04130779821213
    Total Energy =                       -345.0413077982120740
  Basis Set: CC-PVTZ
  Basis Set:
  Basis Set: CC-PVTZ
  Basis Set:
  @DF-RHF Final Energy:  -345.04138460676427
    Total Energy =                       -345.0413846067641543
  Basis Set: CC-PVTZ
  Basis Set:
  Basis Set: CC-PVTZ
  Basis Set:
  @DF-RHF Final Energy:  -345.04139601163655
    Total Energy =                       -345.0413960116364933
  Basis Set: CC-PVTZ
  Basis Set:
  Basis Set: CC-PVTZ
  Basis Set:
  @DF-RHF Final Energy:  -345.04139904518235
    Total Energy =                       -345.0413990451826294
  Basis Set: CC-PVTZ
  Basis Set:
  Basis Set: CC-PVTZ
  Basis Set:
  @DF-RHF Final Energy:  -345.04139981167378
    Total Energy =                       -345.0413998116738412
  Basis Set: CC-PVTZ
  Basis Set:
  Charge       = 0
  Multiplicity = 1
  Basis Set: CC-PVTZ
  Basis Set:

    Orbital Energies (a.u.)
    -----------------------

    Doubly Occupied:

       1A    -20.597510     2A    -20.544295     3A    -11.373974
       4A    -11.239118     5A    -11.221306     6A    -11.220684
       7A    -11.210783     8A     -1.471365     9A     -1.370261
      10A     -1.092594    11A     -1.019109    12A     -0.913371
      13A     -0.824602    14A     -0.791968    15A     -0.705938
      16A     -0.684664    17A     -0.668662    18A     -0.635871
      19A     -0.592431    20A     -0.586616    21A     -0.560932
      22A     -0.538732    23A     -0.510703    24A     -0.491042
      25A     -0.480850    26A     -0.476734    27A     -0.472886
      28A     -0.445841

  @DF-RHF Final Energy:  -345.04139992357199

   => Energetics <=

    Nuclear Repulsion Energy =            304.4786480630572783
    One-Electron Energy =               -1073.5544152145130283
    Two-Electron Energy =                 424.0343672278836493
    DFT Exchange-Correlation Energy =       0.0000000000000000
    Empirical Dispersion Energy =           0.0000000000000000
    PCM Polarization Energy =               0.0000000000000000
    EFP Energy =                            0.0000000000000000
    Total Energy =                       -345.0413999235720439
    Molecular point group: c1
  Basis Set: CC-PVTZ
  Basis Set:

  -Total Gradient:
     Atom            X                  Y                   Z
    ------   -----------------  -----------------  -----------------
       1        0.003309305298    -0.006052290883     0.008380681095
       2       -0.003612825394     0.007738035709    -0.014947680638
       3       -0.000783468438    -0.002096064363     0.016247221885
       4       -0.000009178714    -0.000014688594    -0.000070892688
       5        0.001094676900     0.000422950802    -0.009634772509
       6       -0.000006571062    -0.000012795578     0.000014253807
       7       -0.000001876344     0.000001404602     0.000014158510
       8       -0.000004640490     0.000004108791     0.000009154339
       9        0.000005147455     0.000007218705    -0.000007870614
      10        0.000001913700     0.000001546427    -0.000004490034
      11        0.000001806827     0.000002296823    -0.000002974188
      12        0.000004551825    -0.000003750434     0.000004449466
      13        0.000000614815     0.000000157885     0.000000132562
      14       -0.000001585102     0.000001065570    -0.000002031652
      15       -0.000000908444    -0.000001750095     0.000000950872
      16        0.000002919680     0.000001480298     0.000001109501
      17        0.000000117484     0.000001074334    -0.000001399713

  **** Optimization is complete! (in 8 steps) ****
    Final optimized geometry and variables:
    Molecular point group: c1

    Geometry (in Angstrom), charge = 0, multiplicity = 1:

    H           -3.393863260395    -0.384687703852     0.368995918943
    O           -2.663919055367    -0.696006126573    -0.142421764442
    C           -1.607116315666     0.113556699109     0.026796371207
    C           -0.312428291266    -0.652231781674     0.018904674679
    O           -1.714828618605     1.286305103090     0.086356750014
    C            0.927852233084     0.228880364492     0.004920713021
    H           -0.340041636287    -1.315331301961    -0.839468927914
    H           -0.324737758750    -1.301088781047     0.889827019322
    C            2.218966475954    -0.584388543821     0.002959949995
    H            0.898447950405     0.873156210440    -0.866923675861
    H            0.909003753571     0.887219413314     0.865975127827
    C            3.468287345105     0.289567411861    -0.011495480632
    H            2.230632554052    -1.243144593033    -0.861294682435
    H            2.241396708268    -1.229604788282     0.877293837351
    H            3.492443499348     0.921842048468    -0.892477749779
    H            4.368504118285    -0.313851965224    -0.012017953313
    H            3.502871510624     0.936075680223     0.858770040255

  Mulliken Charges: (a.u.)
   Center  Symbol    Alpha    Beta     Spin     Total
       1     H     0.38087  0.38087  0.00000  0.23826
       2     O     4.16903  4.16903  0.00000 -0.33805
       3     C     2.80491  2.80491  0.00000  0.39018
       4     C     3.11058  3.11058  0.00000 -0.22117
       5     O     4.17994  4.17994  0.00000 -0.35988
       6     C     3.08329  3.08329  0.00000 -0.16658
       7     H     0.43718  0.43718  0.00000  0.12565
       8     H     0.44198  0.44198  0.00000  0.11604
       9     C     3.08571  3.08571  0.00000 -0.17142
      10     H     0.44638  0.44638  0.00000  0.10724
      11     H     0.44596  0.44596  0.00000  0.10809
      12     C     3.14919  3.14919  0.00000 -0.29837
      13     H     0.45453  0.45453  0.00000  0.09094
      14     H     0.45514  0.45514  0.00000  0.08972
      15     H     0.45354  0.45354  0.00000  0.09292
      16     H     0.44801  0.44801  0.00000  0.10398
      17     H     0.45378  0.45378  0.00000  0.09244

   Total alpha = 28.00000, Total beta = 28.00000, Total charge = -0.00000

*** Psi4 exiting successfully. Buy a developer a beer!
