  ==> Input File <==

--------------------------------------------------------------------------
set {
	reference rhf
	basis 6-31G*
}

set_num_threads( 1 )
memory 2 gb

molecule MOL {
0 1

O	 -2.630048	 0.547913	 0.530317
C	 -2.113865	 -0.473663	 0.192126
C	 -0.889235	 -0.467034	 -0.705952
C	 -2.627522	 -1.816298	 0.662086
C	 0.379448	 -0.143569	 0.099626
H	 -1.040919	 0.294385	 -1.463273
H	 -0.777157	 -1.424551	 -1.206579
C	 1.631333	 -0.777471	 -0.511575
H	 0.482768	 0.934507	 0.149241
H	 0.263088	 -0.495696	 1.123449
C	 2.915987	 -0.544314	 0.291766
H	 1.766672	 -0.399098	 -1.523130
H	 1.471257	 -1.849544	 -0.605828
C	 3.373361	 0.914346	 0.347591
H	 3.708709	 -1.142521	 -0.150311
H	 2.780642	 -0.921148	 1.303579
H	 3.506512	 1.320010	 -0.651625
H	 4.322697	 0.999599	 0.867103
H	 2.660624	 1.545032	 0.868198
H	 -3.019004	 -2.374301	 -0.184459
H	 -3.411175	 -1.677453	 1.393792
H	 -1.823050	 -2.407191	 1.090425

	symmetry c1
}
set optking {
	frozen_dihedral = ("
		6 3 2 1,
		3 5 8 12,
		12 8 11 15
	")
}

ee = energy('scf')
oeprop('DIPOLE', 'QUADRUPOLE', 'MULLIKEN_CHARGES')
f=open( 'psi4out.xyz', 'w' )
f.write( "22  " )
f.write( str(ee) + "\n" )
f.write( MOL.save_string_xyz() )
f.close()
--------------------------------------------------------------------------

    Molecular point group: c1

    Geometry (in Angstrom), charge = 0, multiplicity = 1:

       Center              X                  Y                   Z               Mass
    ------------   -----------------  -----------------  -----------------  -----------------
           O         -2.638317460921     0.886108693585     0.407544582948    15.994914619560
           C         -2.122134460921    -0.135467306415     0.069353582948    12.000000000000
           C         -0.897504460921    -0.128838306415    -0.828724417052    12.000000000000
           C         -2.635791460921    -1.478102306415     0.539313582948    12.000000000000
           C          0.371178539079     0.194626693585    -0.023146417052    12.000000000000
           H         -1.049188460921     0.632580693585    -1.586045417052     1.007825032070
           H         -0.785426460921    -1.086355306415    -1.329351417052     1.007825032070
           C          1.623063539079    -0.439275306415    -0.634347417052    12.000000000000
           H          0.474498539079     1.272702693585     0.026468582948     1.007825032070
           H          0.254818539079    -0.157500306415     1.000676582948     1.007825032070
           C          2.907717539079    -0.206118306415     0.168993582948    12.000000000000
           H          1.758402539079    -0.060902306415    -1.645902417052     1.007825032070
           H          1.462987539079    -1.511348306415    -0.728600417052     1.007825032070
           C          3.365091539079     1.252541693585     0.224818582948    12.000000000000
           H          3.700439539079    -0.804325306415    -0.273083417052     1.007825032070
           H          2.772372539079    -0.582952306415     1.180806582948     1.007825032070
           H          3.498242539079     1.658205693585    -0.774397417052     1.007825032070
           H          4.314427539079     1.337794693585     0.744330582948     1.007825032070
           H          2.652354539079     1.883227693585     0.745425582948     1.007825032070
           H         -3.027273460921    -2.036105306415    -0.307231417052     1.007825032070
           H         -3.419444460921    -1.339257306415     1.271019582948     1.007825032070
           H         -1.831319460921    -2.068995306415     0.967652582948     1.007825032070

  Charge       = 0
  Multiplicity = 1
  Basis Set: 6-31G*
  Basis Set:

    Orbital Energies (a.u.)
    -----------------------

    Doubly Occupied:

       1A    -20.546508     2A    -11.324231     3A    -11.229469
       4A    -11.228465     5A    -11.228233     6A    -11.223395
       7A    -11.221238     8A    -11.212078     9A     -1.392487
      10A     -1.096429    11A     -1.044429    12A     -0.999571
      13A     -0.938313    14A     -0.858095    15A     -0.787525
      16A     -0.733404    17A     -0.660044    18A     -0.647237
      19A     -0.625551    20A     -0.621521    21A     -0.596124
      22A     -0.576736    23A     -0.569002    24A     -0.545519
      25A     -0.535488    26A     -0.513332    27A     -0.499221
      28A     -0.491591    29A     -0.471140    30A     -0.465392
      31A     -0.456954    32A     -0.395848

  @DF-RHF Final Energy:  -348.09532001322646

   => Energetics <=

    Nuclear Repulsion Energy =            373.2861195954874347
    One-Electron Energy =               -1211.2932601962493209
    Two-Electron Energy =                 489.9118205875353169
    DFT Exchange-Correlation Energy =       0.0000000000000000
    Empirical Dispersion Energy =           0.0000000000000000
    PCM Polarization Energy =               0.0000000000000000
    EFP Energy =                            0.0000000000000000
    Total Energy =                       -348.0953200132265692

  Mulliken Charges: (a.u.)
   Center  Symbol    Alpha    Beta     Spin     Total
       1     O     4.26234  4.26234  0.00000 -0.52467
       2     C     2.73905  2.73905  0.00000  0.52190
       3     C     3.20088  3.20088  0.00000 -0.40175
       4     C     3.28941  3.28941  0.00000 -0.57881
       5     C     3.16016  3.16016  0.00000 -0.32032
       6     H     0.40024  0.40024  0.00000  0.19953
       7     H     0.41619  0.41619  0.00000  0.16763
       8     C     3.15481  3.15481  0.00000 -0.30962
       9     H     0.40535  0.40535  0.00000  0.18931
      10     H     0.41903  0.41903  0.00000  0.16194
      11     C     3.15338  3.15338  0.00000 -0.30676
      12     H     0.42124  0.42124  0.00000  0.15752
      13     H     0.42222  0.42222  0.00000  0.15557
      14     C     3.24221  3.24221  0.00000 -0.48443
      15     H     0.41969  0.41969  0.00000  0.16063
      16     H     0.42242  0.42242  0.00000  0.15515
      17     H     0.42142  0.42142  0.00000  0.15717
      18     H     0.41790  0.41790  0.00000  0.16419
      19     H     0.41822  0.41822  0.00000  0.16356
      20     H     0.40678  0.40678  0.00000  0.18643
      21     H     0.39696  0.39696  0.00000  0.20608
      22     H     0.41012  0.41012  0.00000  0.17976

   Total alpha = 32.00000, Total beta = 32.00000, Total charge =  0.00000
