                              Psi4 1.0.54 Driver

  ==> Input File <==

--------------------------------------------------------------------------
set {
	reference rhf
	basis cc-pvtz
}

set_num_threads( 4 )
memory 2 gb

molecule MOL {
0 1

H	 3.042565	 3.066152	 -3.818232
C	 3.300876	 2.509374	 -2.924845
C	 2.110639	 2.404199	 -1.977429
H	 3.639243	 1.526440	 -3.233980
H	 4.137224	 3.013350	 -2.451209
C	 2.440981	 1.634260	 -0.700699
H	 1.287763	 1.918860	 -2.489543
H	 1.771256	 3.403628	 -1.715160
C	 1.269886	 1.518277	 0.269852
H	 2.786901	 0.640337	 -0.956207
H	 3.259539	 2.132054	 -0.188891
C	 0.166485	 0.574257	 -0.177158
H	 1.620507	 1.141026	 1.227199
H	 0.839387	 2.493375	 0.478110
C	 -1.180025	 0.697761	 0.509157
O	 0.349704	 -0.246528	 -1.017407
C	 -2.285431	 -0.137488	 -0.145671
H	 -1.447360	 1.745713	 0.496200
H	 -1.065514	 0.394096	 1.546399
C	 -3.646545	 0.082747	 0.508954
H	 -2.348635	 0.118247	 -1.199806
H	 -2.034895	 -1.192387	 -0.096473
C	 -4.757412	 -0.737227	 -0.138149
H	 -3.900211	 1.137405	 0.459735
H	 -3.580878	 -0.166775	 1.564416
H	 -4.867876	 -0.486707	 -1.187777
H	 -4.549650	 -1.800049	 -0.072540
H	 -5.709585	 -0.556397	 0.346597

	symmetry c1
}
set optking {
	frozen_dihedral = ("
		16 12 15 17
	")
}

ee,wfn = optimize('scf', return_wfn=True)
oeprop( wfn, 'DIPOLE', 'QUADRUPOLE', 'MULLIKEN_CHARGES')
f=open( 'psi4out.xyz', 'w' )
f.write( "28  " )
f.write( str(ee) + "\n" )
f.write( MOL.save_string_xyz() )
f.close()
--------------------------------------------------------------------------

    Molecular point group: c1
  Charge       = 0
  Multiplicity = 1
  Basis Set: CC-PVTZ
  Basis Set:
  @DF-RHF Final Energy:  -426.32107710646312
    Total Energy =                       -426.3210771064630080
    Molecular point group: c1
  Basis Set: CC-PVTZ
  Basis Set:
  Basis Set: CC-PVTZ
  Basis Set:
  @DF-RHF Final Energy:  -426.31923398062622
    Total Energy =                       -426.3192339806263362
  Basis Set: CC-PVTZ
  Basis Set:
  Basis Set: CC-PVTZ
  Basis Set:
  @DF-RHF Final Energy:  -426.32170580436855
    Total Energy =                       -426.3217058043683210
  Basis Set: CC-PVTZ
  Basis Set:
  Basis Set: CC-PVTZ
  Basis Set:
  @DF-RHF Final Energy:  -426.32148921023224
    Total Energy =                       -426.3214892102320164
  Basis Set: CC-PVTZ
  Basis Set:
  @DF-RHF Final Energy:  -426.32178165655978
    Total Energy =                       -426.3217816565596650
  @DF-RHF Final Energy:  -426.32178991448984
    Total Energy =                       -426.3217899144899548
  Basis Set: CC-PVTZ
  Basis Set:
  @DF-RHF Final Energy:  -426.32181491188692
    Total Energy =                       -426.3218149118865767
  Basis Set: CC-PVTZ
  Basis Set:
  Basis Set: CC-PVTZ
  Basis Set:
  @DF-RHF Final Energy:  -426.32181957466094
    Total Energy =                       -426.3218195746608217
  Basis Set: CC-PVTZ
  Basis Set:
  Basis Set: CC-PVTZ
  Basis Set:
  @DF-RHF Final Energy:  -426.32182058786316
    Total Energy =                       -426.3218205878632716
  Basis Set: CC-PVTZ
  Basis Set:
  Charge       = 0
  Multiplicity = 1
  Basis Set: CC-PVTZ
  Basis Set:

    Orbital Energies (a.u.)
    -----------------------

    Doubly Occupied:

       1A    -20.538357     2A    -11.318182     3A    -11.229030
       4A    -11.228899     5A    -11.217229     6A    -11.214837
       7A    -11.214764     8A    -11.209974     9A    -11.207905
      10A    -11.203580    11A     -1.398836    12A     -1.089465
      13A     -1.078428    14A     -1.023192    15A     -0.991339
      16A     -0.911503    17A     -0.865369    18A     -0.806140
      19A     -0.791772    20A     -0.725487    21A     -0.670047
      22A     -0.657415    23A     -0.628797    24A     -0.618821
      25A     -0.610596    26A     -0.581829    27A     -0.580922
      28A     -0.574597    29A     -0.534956    30A     -0.531000
      31A     -0.519668    32A     -0.507605    33A     -0.493350
      34A     -0.483517    35A     -0.474145    36A     -0.469975
      37A     -0.469444    38A     -0.466046    39A     -0.457942
      40A     -0.396566

  @DF-RHF Final Energy:  -426.32182076135643

   => Energetics <=

    Nuclear Repulsion Energy =            530.2723158088274431
    One-Electron Energy =               -1629.2052197936254743
    Two-Electron Energy =                 672.6110832234418240
    DFT Exchange-Correlation Energy =       0.0000000000000000
    Empirical Dispersion Energy =           0.0000000000000000
    PCM Polarization Energy =               0.0000000000000000
    EFP Energy =                            0.0000000000000000
    Total Energy =                       -426.3218207613562072
    Molecular point group: c1
  Basis Set: CC-PVTZ
  Basis Set:

  -Total Gradient:
     Atom            X                  Y                   Z
    ------   -----------------  -----------------  -----------------
       1        0.000000905248    -0.000000232090     0.000000267590
       2       -0.000000486467     0.000003453804     0.000000334451
       3        0.000007088844     0.000002566419    -0.000007596136
       4       -0.000000320045    -0.000000117482    -0.000000025722
       5        0.000001634115    -0.000000013005    -0.000001127988
       6       -0.000000805026     0.000002423091     0.000007023135
       7       -0.000002109032    -0.000000820031     0.000001234302
       8       -0.000000645888    -0.000000420564     0.000001691102
       9        0.000002342503    -0.000005844353    -0.000004411830
      10        0.000000318349    -0.000001247720    -0.000001228163
      11        0.000002238689     0.000000579480    -0.000001959646
      12       -0.000500964037     0.001103573951    -0.000797313973
      13       -0.000002013382    -0.000003029772     0.000003475119
      14       -0.000006047739     0.000008241115    -0.000000098076
      15        0.000372035657    -0.001002665097     0.000600976276
      16        0.000298498650    -0.000629145331     0.000488639265
      17       -0.000176712096     0.000518866940    -0.000291231573
      18        0.000006532480     0.000006719681     0.000000776084
      19        0.000003809785     0.000002028936    -0.000012502961
      20        0.000008171774    -0.000010069489     0.000002460339
      21        0.000006233202     0.000002786725    -0.000005430253
      22        0.000001182491    -0.000003309597     0.000002268751
      23       -0.000003398504     0.000009557468     0.000010374801
      24       -0.000006289320    -0.000009946150     0.000000313958
      25       -0.000012342425     0.000001012964    -0.000000484066
      26        0.000004589486     0.000001107830     0.000000219885
      27        0.000005988061     0.000005073195     0.000003381786
      28       -0.000009435378    -0.000001130921    -0.000000026456

  **** Optimization is complete! (in 10 steps) ****
    Final optimized geometry and variables:
    Molecular point group: c1

    Geometry (in Angstrom), charge = 0, multiplicity = 1:

    H            3.531636932700     2.328376142055    -3.107070355583
    C            3.703119512653     1.701290625956    -2.239762505104
    C            2.462413872250     1.632072342502    -1.356011522972
    H            3.982597682099     0.715344354600    -2.594855474902
    H            4.550061012324     2.110264421788    -1.698147183984
    C            2.672184965508     0.767313459525    -0.114775513845
    H            1.632638439354     1.241033202072    -1.932351725279
    H            2.185203328933     2.637501542817    -1.047604468444
    C            1.448736001065     0.678754493412     0.791482812381
    H            2.963824961448    -0.232021666631    -0.414858852584
    H            3.495728577764     1.175303022650     0.464135120144
    C            0.320272715209    -0.192003925440     0.267767673632
    H            1.725440610244     0.266302419256     1.759189458837
    H            1.051076173053     1.667571118146     1.001768078192
    C           -0.953227270140    -0.192568549863     1.092203737382
    O            0.439721464065    -0.866423069360    -0.702965336141
    C           -2.119735856755    -0.927198165277     0.445889460316
    H           -1.220958855768     0.838300894980     1.306520941207
    H           -0.707661821785    -0.635134605627     2.055504436992
    C           -3.375455869072    -0.914077279936     1.313081024985
    H           -2.335230983463    -0.475620017881    -0.516756988511
    H           -1.827101424128    -1.949432708383     0.237544522506
    C           -4.548265929656    -1.645165576044     0.668622618994
    H           -3.663219478906     0.113395946695     1.520486430483
    H           -3.154857595550    -1.367796096051     2.275875928518
    H           -4.815949984141    -1.193522197209    -0.280618305407
    H           -4.304157817612    -2.685177297265     0.480718991837
    H           -5.424607069042    -1.620296268339     1.306035112570

  Mulliken Charges: (a.u.)
   Center  Symbol    Alpha    Beta     Spin     Total
       1     H     0.44873  0.44873  0.00000  0.10254
       2     C     3.15170  3.15170  0.00000 -0.30340
       3     C     3.08395  3.08395  0.00000 -0.16790
       4     H     0.45199  0.45199  0.00000  0.09602
       5     H     0.45710  0.45710  0.00000  0.08579
       6     C     3.08734  3.08734  0.00000 -0.17469
       7     H     0.44469  0.44469  0.00000  0.11062
       8     H     0.45877  0.45877  0.00000  0.08246
       9     C     3.11932  3.11932  0.00000 -0.23863
      10     H     0.44572  0.44572  0.00000  0.10855
      11     H     0.44778  0.44778  0.00000  0.10445
      12     C     2.87509  2.87509  0.00000  0.24982
      13     H     0.43559  0.43559  0.00000  0.12882
      14     H     0.44327  0.44327  0.00000  0.11345
      15     C     3.10502  3.10502  0.00000 -0.21004
      16     O     4.17653  4.17653  0.00000 -0.35306
      17     C     3.07850  3.07850  0.00000 -0.15701
      18     H     0.44566  0.44566  0.00000  0.10867
      19     H     0.44549  0.44549  0.00000  0.10901
      20     C     3.08620  3.08620  0.00000 -0.17241
      21     H     0.44922  0.44922  0.00000  0.10157
      22     H     0.44437  0.44437  0.00000  0.11126
      23     C     3.14971  3.14971  0.00000 -0.29941
      24     H     0.45615  0.45615  0.00000  0.08769
      25     H     0.45558  0.45558  0.00000  0.08884
      26     H     0.45413  0.45413  0.00000  0.09174
      27     H     0.45364  0.45364  0.00000  0.09271
      28     H     0.44873  0.44873  0.00000  0.10254

   Total alpha = 40.00000, Total beta = 40.00000, Total charge =  0.00000

*** Psi4 exiting successfully. Buy a developer a beer!
