                              Psi4 1.0.54 Driver

  ==> Input File <==

--------------------------------------------------------------------------
set {
	reference rhf
	basis cc-pvtz
}

set_num_threads( 4 )
memory 2 gb

molecule MOL {
0 1

H	 1.386215	 -1.487336	 -0.447184
O	 1.583947	 -0.677544	 -0.001533
C	 0.489979	 0.078084	 0.002623
C	 -0.763662	 -0.754014	 0.000816
O	 0.539051	 1.259395	 -0.000088
C	 -2.038001	 0.074705	 -0.000833
H	 -0.712945	 -1.405886	 -0.864342
H	 -0.715137	 -1.405770	 0.866182
H	 -2.087267	 0.710831	 -0.874232
H	 -2.903419	 -0.576199	 -0.001922
H	 -2.089467	 0.710909	 0.872389

	symmetry c1
}
set optking {
	frozen_dihedral = ("
		1 2 3 5
	")
}

ee,wfn = optimize('scf', return_wfn=True)
oeprop( wfn, 'DIPOLE', 'QUADRUPOLE', 'MULLIKEN_CHARGES')
f=open( 'psi4out.xyz', 'w' )
f.write( "11  " )
f.write( str(ee) + "\n" )
f.write( MOL.save_string_xyz() )
f.close()
--------------------------------------------------------------------------

    Molecular point group: c1
  Charge       = 0
  Multiplicity = 1
  Basis Set: CC-PVTZ
  Basis Set:
  @DF-RHF Final Energy:  -266.93965713966395
    Total Energy =                       -266.9396571396639501
    Molecular point group: c1
  Basis Set: CC-PVTZ
  Basis Set:
  Basis Set: CC-PVTZ
  Basis Set:
  @DF-RHF Final Energy:  -266.94093341753967
    Total Energy =                       -266.9409334175397817
  Basis Set: CC-PVTZ
  Basis Set:
  Basis Set: CC-PVTZ
  Basis Set:
  @DF-RHF Final Energy:  -266.94103766035852
    Total Energy =                       -266.9410376603584609
  Basis Set: CC-PVTZ
  Basis Set:
  Basis Set: CC-PVTZ
  Basis Set:
  @DF-RHF Final Energy:  -266.94094943350592
    Total Energy =                       -266.9409494335061481
  Basis Set: CC-PVTZ
  Basis Set:
  Basis Set: CC-PVTZ
  Basis Set:
  @DF-RHF Final Energy:  -266.94108294445755
    Total Energy =                       -266.9410829444575484
  Basis Set: CC-PVTZ
  Basis Set:
  Charge       = 0
  Multiplicity = 1
  Basis Set: CC-PVTZ
  Basis Set:

    Orbital Energies (a.u.)
    -----------------------

    Doubly Occupied:

       1A    -20.601307     2A    -20.540814     3A    -11.373950
       4A    -11.252780     5A    -11.223912     6A     -1.470363
       7A     -1.374625     8A     -1.069207     9A     -0.909415
      10A     -0.828873    11A     -0.719550    12A     -0.670930
      13A     -0.661880    14A     -0.616300    15A     -0.590110
      16A     -0.534654    17A     -0.527599    18A     -0.512718
      19A     -0.485268    20A     -0.446547

  @DF-RHF Final Energy:  -266.94108354625530

   => Energetics <=

    Nuclear Repulsion Energy =            179.9336819754926182
    One-Electron Energy =                -720.9279269165099322
    Two-Electron Energy =                 274.0531613947618439
    DFT Exchange-Correlation Energy =       0.0000000000000000
    Empirical Dispersion Energy =           0.0000000000000000
    PCM Polarization Energy =               0.0000000000000000
    EFP Energy =                            0.0000000000000000
    Total Energy =                       -266.9410835462554701
    Molecular point group: c1
  Basis Set: CC-PVTZ
  Basis Set:

  -Total Gradient:
     Atom            X                  Y                   Z
    ------   -----------------  -----------------  -----------------
       1        0.001430423355     0.002636676943    -0.005292361143
       2       -0.001970740984    -0.003259601001     0.004374163268
       3        0.000756918466     0.000463643742     0.006137656834
       4        0.000005943884     0.000013021409     0.000059059099
       5       -0.000206689100     0.000156280936    -0.005244574906
       6        0.000001321289     0.000002472243    -0.000014017331
       7        0.000006137264     0.000010540894    -0.000016037708
       8       -0.000014439197    -0.000011416387    -0.000018175176
       9        0.000007136039    -0.000006715747     0.000012659690
      10       -0.000016135055    -0.000002353905     0.000004807860
      11        0.000000124039    -0.000002549127    -0.000003180489

  **** Optimization is complete! (in 6 steps) ****
    Final optimized geometry and variables:
    Molecular point group: c1

    Geometry (in Angstrom), charge = 0, multiplicity = 1:

    H            1.512043466139    -1.452544421539    -0.502084235114
    O            1.632906224473    -0.631392552836    -0.057789910101
    C            0.499676596453     0.082968293928    -0.006435211082
    C           -0.768239190826    -0.739917938518     0.026640105665
    O            0.537205833761     1.257415639264     0.009153843312
    C           -2.034602471743     0.100091942568     0.064236038519
    H           -0.766119821065    -1.390695833311    -0.844641137750
    H           -0.705844521579    -1.393823488639     0.890606738005
    H           -2.101216677401     0.739352568549    -0.805440665162
    H           -2.906963899210    -0.541239774899     0.087996639803
    H           -2.049759850069     0.733919533627     0.940028610150

  Mulliken Charges: (a.u.)
   Center  Symbol    Alpha    Beta     Spin     Total
       1     H     0.38795  0.38795  0.00000  0.22409
       2     O     4.15110  4.15110  0.00000 -0.30219
       3     C     2.80619  2.80619  0.00000  0.38763
       4     C     3.11245  3.11245  0.00000 -0.22490
       5     O     4.17105  4.17105  0.00000 -0.34209
       6     C     3.14022  3.14022  0.00000 -0.28043
       7     H     0.45228  0.45228  0.00000  0.09543
       8     H     0.43762  0.43762  0.00000  0.12476
       9     H     0.44632  0.44632  0.00000  0.10737
      10     H     0.45038  0.45038  0.00000  0.09923
      11     H     0.44445  0.44445  0.00000  0.11111

   Total alpha = 20.00000, Total beta = 20.00000, Total charge = -0.00000

*** Psi4 exiting successfully. Buy a developer a beer!
