                              Psi4 1.0.54 Driver

  ==> Input File <==

--------------------------------------------------------------------------
set {
	reference rhf
	basis cc-pvtz
}

set_num_threads( 4 )
memory 2 gb

molecule MOL {
0 1

O	 -2.440701	 -0.934798	 -0.415053
C	 -1.922978	 0.063265	 -0.045005
C	 -2.632749	 1.372204	 0.158357
O	 -0.637375	 0.157174	 0.243149
H	 -2.187724	 2.129143	 -0.474664
H	 -3.677681	 1.257276	 -0.079438
H	 -2.516788	 1.693160	 1.185542
C	 0.162530	 -1.009518	 0.097799
C	 1.587210	 -0.664190	 0.477086
H	 0.096803	 -1.356267	 -0.924704
H	 -0.233803	 -1.785900	 0.736810
C	 2.221055	 -1.629349	 1.475319
H	 1.575888	 0.337851	 0.897233
H	 2.189560	 -0.617008	 -0.425015
C	 3.644026	 -1.232947	 1.854314
H	 1.606817	 -1.669798	 2.370960
H	 2.222583	 -2.629390	 1.057277
H	 4.068050	 -1.931547	 2.566035
H	 3.671053	 -0.245762	 2.303898
H	 4.290318	 -1.215944	 0.983088

	symmetry c1
}
set optking {
	frozen_dihedral = ("
		12 9 8 10
	")
}

ee,wfn = optimize('scf', return_wfn=True)
oeprop( wfn, 'DIPOLE', 'QUADRUPOLE', 'MULLIKEN_CHARGES')
f=open( 'psi4out.xyz', 'w' )
f.write( "20  " )
f.write( str(ee) + "\n" )
f.write( MOL.save_string_xyz() )
f.close()
--------------------------------------------------------------------------

    Molecular point group: c1
  Charge       = 0
  Multiplicity = 1
  Basis Set: CC-PVTZ
  Basis Set:
  @DF-RHF Final Energy:  -384.08207074584988
    Total Energy =                       -384.0820707458500465
    Molecular point group: c1
  Basis Set: CC-PVTZ
  Basis Set:
  Basis Set: CC-PVTZ
  Basis Set:
  @DF-RHF Final Energy:  -384.08237380135353
    Total Energy =                       -384.0823738013532420
  Basis Set: CC-PVTZ
  Basis Set:
  Basis Set: CC-PVTZ
  Basis Set:
  @DF-RHF Final Energy:  -384.08230325271126
    Total Energy =                       -384.0823032527114265
  Basis Set: CC-PVTZ
  Basis Set:
  Basis Set: CC-PVTZ
  Basis Set:
  @DF-RHF Final Energy:  -384.08244213283058
    Total Energy =                       -384.0824421328306926
  Basis Set: CC-PVTZ
  Basis Set:
  Basis Set: CC-PVTZ
  Basis Set:
  @DF-RHF Final Energy:  -384.08244491185030
    Total Energy =                       -384.0824449118500752
  Basis Set: CC-PVTZ
  Basis Set:
  Basis Set: CC-PVTZ
  Basis Set:
  @DF-RHF Final Energy:  -384.08244632544614
    Total Energy =                       -384.0824463254458578
  Basis Set: CC-PVTZ
  Basis Set:
  Charge       = 0
  Multiplicity = 1
  Basis Set: CC-PVTZ
  Basis Set:

    Orbital Energies (a.u.)
    -----------------------

    Doubly Occupied:

       1A    -20.593666     2A    -20.531990     3A    -11.365749
       4A    -11.280044     5A    -11.231076     6A    -11.223187
       7A    -11.222086     8A    -11.213056     9A     -1.469970
      10A     -1.364128    11A     -1.086558    12A     -1.029979
      13A     -0.980169    14A     -0.882723    15A     -0.808317
      16A     -0.780367    17A     -0.692444    18A     -0.685811
      19A     -0.670402    20A     -0.636186    21A     -0.599735
      22A     -0.594290    23A     -0.571277    24A     -0.557389
      25A     -0.545635    26A     -0.521843    27A     -0.513742
      28A     -0.482801    29A     -0.481704    30A     -0.475751
      31A     -0.451689    32A     -0.439887

  @DF-RHF Final Energy:  -384.08244644710885

   => Energetics <=

    Nuclear Repulsion Energy =            380.0734417296350784
    One-Electron Energy =               -1276.3444686846798959
    Two-Electron Energy =                 512.1885805079359670
    DFT Exchange-Correlation Energy =       0.0000000000000000
    Empirical Dispersion Energy =           0.0000000000000000
    PCM Polarization Energy =               0.0000000000000000
    EFP Energy =                            0.0000000000000000
    Total Energy =                       -384.0824464471088504
    Molecular point group: c1
  Basis Set: CC-PVTZ
  Basis Set:

  -Total Gradient:
     Atom            X                  Y                   Z
    ------   -----------------  -----------------  -----------------
       1        0.000013642146     0.000015175231     0.000004275894
       2       -0.000020439098     0.000009339675    -0.000014747316
       3       -0.000007031696    -0.000008943719     0.000009710686
       4        0.000031424341    -0.000018113021    -0.000007104812
       5       -0.000000453823    -0.000009453417    -0.000000775387
       6       -0.000001081919     0.000004592912     0.000000494282
       7        0.000002502810    -0.000001714061    -0.000007961095
       8        0.000260872209    -0.002659610379     0.001448856679
       9        0.000782520504    -0.000642207610    -0.002135576973
      10       -0.000440088129     0.002386820224    -0.000683212547
      11        0.000002201061    -0.000005513016    -0.000008905315
      12       -0.000624965345     0.000932450825     0.001398855694
      13        0.000005366814    -0.000003311718    -0.000002649029
      14        0.000006747840     0.000001625280     0.000008849606
      15       -0.000004619700     0.000001496965    -0.000004849632
      16        0.000000436920     0.000001176449    -0.000001327918
      17        0.000001168904    -0.000003258697    -0.000001326339
      18       -0.000005836186    -0.000000053590    -0.000001835006
      19       -0.000001345223     0.000000105019    -0.000000973333
      20       -0.000001022435    -0.000000603353     0.000000201860

  **** Optimization is complete! (in 7 steps) ****
    Final optimized geometry and variables:
    Molecular point group: c1

    Geometry (in Angstrom), charge = 0, multiplicity = 1:

    O           -2.420010928785    -0.470390467457    -0.913458498873
    C           -1.926116570300     0.527945628324    -0.512133922802
    C           -2.664326974454     1.816923220368    -0.284830332203
    O           -0.646163961815     0.640451666715    -0.207626869034
    H           -2.225529509354     2.598299678481    -0.891832155488
    H           -3.703638348227     1.688080582245    -0.539625116525
    H           -2.568121519600     2.112902755183     0.751803702030
    C            0.179561538324    -0.508010170503    -0.379523865238
    C            1.609889261483    -0.133836889668     0.009409014001
    H            0.108588146920    -0.815977987154    -1.412064840231
    H           -0.208792551562    -1.306015107322     0.236650444088
    C            2.253437633961    -1.136260820187     0.964858801974
    H            1.587462594353     0.840945094675     0.481341527969
    H            2.220203368832    -0.031540617575    -0.881200470768
    C            3.688061057213    -0.770966821879     1.327501114556
    H            1.654072329912    -1.197353140760     1.868532647553
    H            2.236345503350    -2.127784997112     0.520017132745
    H            4.114564014631    -1.493765193883     2.012965494062
    H            3.734895292176     0.203613825490     1.801766813631
    H            4.318904978837    -0.738955420492     0.445557332076

  Mulliken Charges: (a.u.)
   Center  Symbol    Alpha    Beta     Spin     Total
       1     O     4.19738  4.19738  0.00000 -0.39475
       2     C     2.80693  2.80693  0.00000  0.38613
       3     C     3.13777  3.13777  0.00000 -0.27554
       4     O     4.15155  4.15155  0.00000 -0.30309
       5     H     0.44585  0.44585  0.00000  0.10829
       6     H     0.43816  0.43816  0.00000  0.12368
       7     H     0.44612  0.44612  0.00000  0.10776
       8     C     2.98525  2.98525  0.00000  0.02949
       9     C     3.08959  3.08959  0.00000 -0.17919
      10     H     0.45098  0.45098  0.00000  0.09805
      11     H     0.45316  0.45316  0.00000  0.09368
      12     C     3.09064  3.09064  0.00000 -0.18127
      13     H     0.44624  0.44624  0.00000  0.10752
      14     H     0.45041  0.45041  0.00000  0.09919
      15     C     3.15022  3.15022  0.00000 -0.30044
      16     H     0.45173  0.45173  0.00000  0.09654
      17     H     0.45243  0.45243  0.00000  0.09515
      18     H     0.44714  0.44714  0.00000  0.10572
      19     H     0.45410  0.45410  0.00000  0.09180
      20     H     0.45436  0.45436  0.00000  0.09129

   Total alpha = 32.00000, Total beta = 32.00000, Total charge = -0.00000

*** Psi4 exiting successfully. Buy a developer a beer!
