  ==> Input File <==

--------------------------------------------------------------------------
set {
	reference rhf
	basis 6-31G*
}

set_num_threads( 4 )
memory 2 gb

molecule MOL {
0 1

H	 -2.698709	 -0.000305	 0.034435
C	 -1.693833	 0.000034	 0.434417
O	 -0.828952	 -0.000968	 -0.659236
H	 -1.574200	 0.882896	 1.055746
H	 -1.574147	 -0.881698	 1.057355
C	 -1.250974	 -0.620488	 -1.851962
C	 -1.466723	 -2.123448	 -1.686185
C	 -2.459432	 0.074054	 -2.476621
H	 -0.406547	 -0.477783	 -2.515746
H	 -0.611259	 -2.574343	 -1.194837
H	 -1.586217	 -2.590647	 -2.658646
H	 -2.354877	 -2.349484	 -1.104587
H	 -2.291393	 1.144188	 -2.531701
H	 -2.621377	 -0.297436	 -3.483713
H	 -3.370702	 -0.101594	 -1.913971

	symmetry c1
}
set optking {
	frozen_dihedral = ("
		6 3 2 1
	")
}

ee = optimize('scf')
oeprop('DIPOLE', 'QUADRUPOLE', 'MULLIKEN_CHARGES')
f=open( 'psi4out.xyz', 'w' )
f.write( "15  " )
f.write( str(ee) + "\n" )
f.write( MOL.save_string_xyz() )
f.close()
--------------------------------------------------------------------------

    Molecular point group: c1
  Charge       = 0
  Multiplicity = 1
  Basis Set: 6-31G*
  Basis Set:
  @DF-RHF Final Energy:  -232.13391342531429
    Total Energy =                       -232.1339134253144607
    Molecular point group: c1
  Basis Set: 6-31G*
  Basis Set:
  Basis Set: 6-31G*
  Basis Set:
  @DF-RHF Final Energy:  -232.13572806847188
    Total Energy =                       -232.1357280684718489
  Basis Set: 6-31G*
  Basis Set:
  Basis Set: 6-31G*
  Basis Set:
  @DF-RHF Final Energy:  -232.13664657716976
    Total Energy =                       -232.1366465771698699
  Basis Set: 6-31G*
  Basis Set:
  Basis Set: 6-31G*
  Basis Set:
  @DF-RHF Final Energy:  -232.13667092096409
    Total Energy =                       -232.1366709209642067
  Basis Set: 6-31G*
  Basis Set:
  Basis Set: 6-31G*
  Basis Set:
  @DF-RHF Final Energy:  -232.13667421605575
    Total Energy =                       -232.1366742160558374
  Basis Set: 6-31G*
  Basis Set:
  Basis Set: 6-31G*
  Basis Set:
  @DF-RHF Final Energy:  -232.13668352783472
    Total Energy =                       -232.1366835278348617
  Basis Set: 6-31G*
  Basis Set:
  Charge       = 0
  Multiplicity = 1
  Basis Set: 6-31G*
  Basis Set:

    Orbital Energies (a.u.)
    -----------------------

    Doubly Occupied:

       1A    -20.547026     2A    -11.274666     3A    -11.261481
       4A    -11.211305     5A    -11.209768     6A     -1.369281
       7A     -1.050083     8A     -0.940160     9A     -0.930994
      10A     -0.781477    11A     -0.675680    12A     -0.639173
      13A     -0.632297    14A     -0.570562    15A     -0.563555
      16A     -0.553212    17A     -0.536515    18A     -0.500149
      19A     -0.497431    20A     -0.442751    21A     -0.404137

  @DF-RHF Final Energy:  -232.13668371558782

   => Energetics <=

    Nuclear Repulsion Energy =            198.7801876073626204
    One-Electron Energy =                -708.6503349436454755
    Two-Electron Energy =                 277.7334636206951473
    DFT Exchange-Correlation Energy =       0.0000000000000000
    Empirical Dispersion Energy =           0.0000000000000000
    PCM Polarization Energy =               0.0000000000000000
    EFP Energy =                            0.0000000000000000
    Total Energy =                       -232.1366837155877079
    Molecular point group: c1
  Basis Set: 6-31G*
  Basis Set:

  -Total Gradient:
     Atom            X                  Y                   Z
    ------   -----------------  -----------------  -----------------
       1        0.000196444592    -0.001989010336     0.000001652340
       2       -0.000652068849     0.003222985648    -0.000217470485
       3        0.001195737190    -0.002570903710     0.000657416576
       4       -0.000002991208    -0.000006204697     0.000008126299
       5       -0.000002992102     0.000005471285     0.000008695130
       6       -0.000711128955     0.001349875415    -0.000469147825
       7       -0.000033911340    -0.000008151724     0.000009416972
       8        0.000022941467    -0.000010739598     0.000017597120
       9       -0.000012137954     0.000003060729    -0.000023541980
      10        0.000005455054     0.000016456566    -0.000018771176
      11       -0.000008198645    -0.000001184573    -0.000000008308
      12       -0.000012812577    -0.000012311733     0.000021942296
      13       -0.000008379746     0.000009484573     0.000003414399
      14        0.000017973977    -0.000003949414     0.000006119915
      15        0.000006069095    -0.000004878432    -0.000005441274

  **** Optimization is complete! (in 7 steps) ****
    Final optimized geometry and variables:
    Molecular point group: c1

    Geometry (in Angstrom), charge = 0, multiplicity = 1:

    H           -1.192404572448     0.372581870038     1.413850539853
    C           -0.145351753896     0.472875066743     1.678191201589
    O            0.691003388156     0.565981229158     0.563628144230
    H           -0.019316858969     1.376626034563     2.259987967907
    H            0.124259219221    -0.377594855839     2.299019434880
    C            0.305779421440    -0.080968642095    -0.626585698884
    C            0.081116965068    -1.578714336828    -0.431185929251
    C           -0.880103109445     0.609436943730    -1.297320855443
    H            1.168060303553     0.045712584619    -1.270321590478
    H            0.939527495485    -2.027568873331     0.056941537238
    H           -0.057539735376    -2.066032540963    -1.391188646360
    H           -0.799239907777    -1.782895748972     0.170593423453
    H           -0.687742277334     1.672536801646    -1.389984167969
    H           -1.035742382477     0.202114721027    -2.291662206541
    H           -1.803380114553     0.476644386283    -0.742676355350

  Mulliken Charges: (a.u.)
   Center  Symbol    Alpha    Beta     Spin     Total
       1     H     0.43042  0.43042  0.00000  0.13916
       2     C     3.08019  3.08019  0.00000 -0.16038
       3     O     4.31355  4.31355  0.00000 -0.62709
       4     H     0.41447  0.41447  0.00000  0.17106
       5     H     0.42620  0.42620  0.00000  0.14759
       6     C     2.91020  2.91020  0.00000  0.17960
       7     C     3.25356  3.25356  0.00000 -0.50711
       8     C     3.24979  3.24979  0.00000 -0.49958
       9     H     0.41548  0.41548  0.00000  0.16905
      10     H     0.41175  0.41175  0.00000  0.17651
      11     H     0.41886  0.41886  0.00000  0.16228
      12     H     0.42151  0.42151  0.00000  0.15698
      13     H     0.41134  0.41134  0.00000  0.17733
      14     H     0.42067  0.42067  0.00000  0.15866
      15     H     0.42202  0.42202  0.00000  0.15596

   Total alpha = 21.00000, Total beta = 21.00000, Total charge =  0.00000
