  ==> Input File <==

--------------------------------------------------------------------------
set {
	reference rhf
	basis cc-pvtz
}

set_num_threads( 4 )
memory 2 gb

molecule MOL {
0 1

H	 -2.698799	 -0.000846	 0.036018
C	 -1.694291	 -0.000483	 0.434279
O	 -0.828718	 -0.000608	 -0.655022
H	 -1.576855	 0.881100	 1.056504
H	 -1.576401	 -0.881658	 1.057001
C	 0.557892	 0.000078	 -0.420099
C	 0.909325	 -0.384617	 1.012652
C	 1.326132	 -0.825316	 -1.446151
H	 0.832007	 1.038339	 -0.559722
H	 0.319338	 0.193033	 1.713577
H	 1.957104	 -0.181294	 1.201237
H	 0.741090	 -1.437394	 1.207439
H	 1.025268	 -0.553242	 -2.450392
H	 2.389088	 -0.638111	 -1.346892
H	 1.168868	 -1.889761	 -1.316670

	symmetry c1
}
set optking {
	frozen_dihedral = ("
		9 6 3 2
	")
}

ee = optimize('scf')
oeprop('DIPOLE', 'QUADRUPOLE', 'MULLIKEN_CHARGES')
f=open( 'psi4out.xyz', 'w' )
f.write( "15  " )
f.write( str(ee) + "\n" )
f.write( MOL.save_string_xyz() )
f.close()
--------------------------------------------------------------------------

    Molecular point group: c1
  Charge       = 0
  Multiplicity = 1
  Basis Set: CC-PVTZ
  Basis Set:
  @DF-RHF Final Energy:  -232.21884725007757
    Total Energy =                       -232.2188472500776015
    Molecular point group: c1
  Basis Set: CC-PVTZ
  Basis Set:
  Basis Set: CC-PVTZ
  Basis Set:
  @DF-RHF Final Energy:  -232.22109188764611
    Total Energy =                       -232.2210918876459118
  Basis Set: CC-PVTZ
  Basis Set:
  Basis Set: CC-PVTZ
  Basis Set:
  @DF-RHF Final Energy:  -232.22354189929391
    Total Energy =                       -232.2235418992938776
  Basis Set: CC-PVTZ
  Basis Set:
  Basis Set: CC-PVTZ
  Basis Set:
  @DF-RHF Final Energy:  -232.22378433064682
    Total Energy =                       -232.2237843306468221
  Basis Set: CC-PVTZ
  Basis Set:
  Basis Set: CC-PVTZ
  Basis Set:
  @DF-RHF Final Energy:  -232.22379766439542
    Total Energy =                       -232.2237976643954198
  Basis Set: CC-PVTZ
  Basis Set:
  Basis Set: CC-PVTZ
  Basis Set:
  @DF-RHF Final Energy:  -232.22380263239950
    Total Energy =                       -232.2238026323993836
  Basis Set: CC-PVTZ
  Basis Set:
  Charge       = 0
  Multiplicity = 1
  Basis Set: CC-PVTZ
  Basis Set:

    Orbital Energies (a.u.)
    -----------------------

    Doubly Occupied:

       1A    -20.540591     2A    -11.273248     3A    -11.259869
       4A    -11.213180     5A    -11.203106     6A     -1.371944
       7A     -1.054421     8A     -0.950318     9A     -0.914214
      10A     -0.784541    11A     -0.677936    12A     -0.643242
      13A     -0.632025    14A     -0.591320    15A     -0.551959
      16A     -0.542407    17A     -0.527794    18A     -0.504932
      19A     -0.494808    20A     -0.450552    21A     -0.403609

  @DF-RHF Final Energy:  -232.22380350919624

   => Energetics <=

    Nuclear Repulsion Energy =            198.1081608817933386
    One-Electron Energy =                -707.4918955769605873
    Two-Electron Energy =                 277.1599311859708337
    DFT Exchange-Correlation Energy =       0.0000000000000000
    Empirical Dispersion Energy =           0.0000000000000000
    PCM Polarization Energy =               0.0000000000000000
    EFP Energy =                            0.0000000000000000
    Total Energy =                       -232.2238035091964434
    Molecular point group: c1
  Basis Set: CC-PVTZ
  Basis Set:

  -Total Gradient:
     Atom            X                  Y                   Z
    ------   -----------------  -----------------  -----------------
       1       -0.000002936565     0.000002901851     0.000000493447
       2        0.000188570641    -0.003926814431     0.000199505984
       3       -0.000088262430     0.005728228127    -0.001281840693
       4       -0.000011040559    -0.000010284922    -0.000001243134
       5        0.000020102784    -0.000015867639    -0.000003105897
       6       -0.001137086235    -0.000813527139     0.005458677246
       7        0.000015986306    -0.000003944979     0.000005728329
       8        0.000047947242     0.000018531499     0.000004059842
       9        0.000972435582    -0.000980700017    -0.004371776335
      10       -0.000001036401     0.000005240174     0.000000483302
      11       -0.000001588068    -0.000004864511    -0.000006356864
      12       -0.000004717462     0.000004358559     0.000000037150
      13        0.000000591460    -0.000001947978     0.000000930253
      14        0.000007682099    -0.000009255144    -0.000008868339
      15       -0.000006648398     0.000007946552     0.000003275708

  **** Optimization is complete! (in 7 steps) ****
    Final optimized geometry and variables:
    Molecular point group: c1

    Geometry (in Angstrom), charge = 0, multiplicity = 1:

    H           -2.750807494813     0.157696931496     0.103181666651
    C           -1.777580767632     0.209396821942     0.570325452379
    O           -0.841518608939     0.203058530102    -0.456500669450
    H           -1.735263235685     1.119860096785     1.163700264600
    H           -1.673515284348    -0.641307266970     1.234708284609
    C            0.536956110252     0.289785247209    -0.173673032067
    C            0.943916704394    -0.128540755093     1.232301402701
    C            1.240935938797    -0.554183780708    -1.225619716288
    H            0.839148154917     1.322674479734    -0.339425321955
    H            0.486197840988     0.485733991436     1.996444658241
    H            2.017729318549    -0.024556227558     1.329037370915
    H            0.691277265164    -1.164898085986     1.425559311861
    H            0.923609786294    -0.252626926113    -2.215347021502
    H            2.316788150992    -0.436973875873    -1.158087700648
    H            0.997585631409    -1.602880639039    -1.097204725287

  Mulliken Charges: (a.u.)
   Center  Symbol    Alpha    Beta     Spin     Total
       1     H     0.44279  0.44279  0.00000  0.11442
       2     C     3.03821  3.03821  0.00000 -0.07642
       3     O     4.18566  4.18566  0.00000 -0.37132
       4     H     0.47087  0.47087  0.00000  0.05825
       5     H     0.46929  0.46929  0.00000  0.06141
       6     C     2.92065  2.92065  0.00000  0.15869
       7     C     3.17045  3.17045  0.00000 -0.34090
       8     C     3.13918  3.13918  0.00000 -0.27835
       9     H     0.46030  0.46030  0.00000  0.07941
      10     H     0.44503  0.44503  0.00000  0.10995
      11     H     0.44401  0.44401  0.00000  0.11199
      12     H     0.45039  0.45039  0.00000  0.09921
      13     H     0.44594  0.44594  0.00000  0.10812
      14     H     0.46015  0.46015  0.00000  0.07970
      15     H     0.45708  0.45708  0.00000  0.08584

   Total alpha = 21.00000, Total beta = 21.00000, Total charge = -0.00000
