                              Psi4 1.0.54 Driver

  ==> Input File <==

--------------------------------------------------------------------------
set {
	reference rhf
	basis cc-pvtz
}

set_num_threads( 4 )
memory 2 gb

molecule MOL {
0 1

H	 0.442597	 3.359564	 0.528459
C	 0.446720	 2.647955	 1.365407
C	 -0.809324	 1.832220	 1.509710
O	 1.388762	 2.575902	 2.075809
C	 -1.216901	 1.136108	 0.207794
H	 -0.668524	 1.122494	 2.314569
H	 -1.595410	 2.522957	 1.806791
C	 -0.247837	 0.040196	 -0.230469
H	 -2.205553	 0.710628	 0.341488
H	 -1.311759	 1.877237	 -0.582094
C	 1.181757	 0.280428	 0.247371
H	 -0.259600	 -0.030819	 -1.314870
H	 -0.591284	 -0.923375	 0.136958
C	 2.151032	 -0.811012	 -0.202643
H	 1.515939	 1.247397	 -0.115449
H	 1.191514	 0.341223	 1.333422
C	 3.580021	 -0.656538	 0.320835
H	 2.170545	 -0.847575	 -1.289412
H	 1.766632	 -1.772905	 0.124928
C	 4.327657	 0.562694	 -0.213579
H	 4.138806	 -1.549270	 0.057813
H	 3.561991	 -0.620783	 1.406976
H	 4.355973	 0.557257	 -1.298551
H	 3.867136	 1.491650	 0.100501
H	 5.351524	 0.571613	 0.142204

	symmetry c1
}
set optking {
	frozen_dihedral = ("
		3 5 8 12
	")
}

ee,wfn = optimize('scf', return_wfn=True)
oeprop( wfn, 'DIPOLE', 'QUADRUPOLE', 'MULLIKEN_CHARGES')
f=open( 'psi4out.xyz', 'w' )
f.write( "25  " )
f.write( str(ee) + "\n" )
f.write( MOL.save_string_xyz() )
f.close()
--------------------------------------------------------------------------

    Molecular point group: c1
  Charge       = 0
  Multiplicity = 1
  Basis Set: CC-PVTZ
  Basis Set:
  @DF-RHF Final Energy:  -387.24315909763078
    Total Energy =                       -387.2431590976307234
    Molecular point group: c1
  Basis Set: CC-PVTZ
  Basis Set:
  Basis Set: CC-PVTZ
  Basis Set:
  @DF-RHF Final Energy:  -387.24952003971322
    Total Energy =                       -387.2495200397135022
  Basis Set: CC-PVTZ
  Basis Set:
  Basis Set: CC-PVTZ
  Basis Set:
  @DF-RHF Final Energy:  -387.25108275257293
    Total Energy =                       -387.2510827525729837
  Basis Set: CC-PVTZ
  Basis Set:
  Basis Set: CC-PVTZ
  Basis Set:
  @DF-RHF Final Energy:  -387.25122693320588
    Total Energy =                       -387.2512269332058850
  Basis Set: CC-PVTZ
  Basis Set:
  @DF-RHF Final Energy:  -387.25242003385347
    Total Energy =                       -387.2524200338533547
  @DF-RHF Final Energy:  -387.25262610536362
    Total Energy =                       -387.2526261053637882
  @DF-RHF Final Energy:  -387.25270733082857
    Total Energy =                       -387.2527073308286845
  @DF-RHF Final Energy:  -387.25275753426740
    Total Energy =                       -387.2527575342671753
  Basis Set: CC-PVTZ
  Basis Set:
  @DF-RHF Final Energy:  -387.25277797942181
    Total Energy =                       -387.2527779794215803
  Basis Set: CC-PVTZ
  Basis Set:
  Basis Set: CC-PVTZ
  Basis Set:
  @DF-RHF Final Energy:  -387.25278276520083
    Total Energy =                       -387.2527827652008909
  Basis Set: CC-PVTZ
  Basis Set:
  Basis Set: CC-PVTZ
  Basis Set:
  @DF-RHF Final Energy:  -387.25278421496563
    Total Energy =                       -387.2527842149661410
  Basis Set: CC-PVTZ
  Basis Set:
  Charge       = 0
  Multiplicity = 1
  Basis Set: CC-PVTZ
  Basis Set:

    Orbital Energies (a.u.)
    -----------------------

    Doubly Occupied:

       1A    -20.550074     2A    -11.321648     3A    -11.234489
       4A    -11.233048     5A    -11.222005     6A    -11.215073
       7A    -11.213565     8A    -11.212483     9A    -11.204056
      10A     -1.406150    11A     -1.102531    12A     -1.066998
      13A     -1.009970    14A     -0.944913    15A     -0.881670
      16A     -0.813434    17A     -0.788035    18A     -0.777688
      19A     -0.664712    20A     -0.660026    21A     -0.634954
      22A     -0.628336    23A     -0.607926    24A     -0.592635
      25A     -0.563409    26A     -0.555368    27A     -0.540099
      28A     -0.528409    29A     -0.509007    30A     -0.502293
      31A     -0.479959    32A     -0.471160    33A     -0.460771
      34A     -0.453906    35A     -0.443631    36A     -0.411499

  @DF-RHF Final Energy:  -387.25278463546260

   => Energetics <=

    Nuclear Repulsion Energy =            457.5838779639884706
    One-Electron Energy =               -1431.8614761767321397
    Two-Electron Energy =                 587.0248135772815203
    DFT Exchange-Correlation Energy =       0.0000000000000000
    Empirical Dispersion Energy =           0.0000000000000000
    PCM Polarization Energy =               0.0000000000000000
    EFP Energy =                            0.0000000000000000
    Total Energy =                       -387.2527846354621488
    Molecular point group: c1
  Basis Set: CC-PVTZ
  Basis Set:

  -Total Gradient:
     Atom            X                  Y                   Z
    ------   -----------------  -----------------  -----------------
       1        0.000013874695     0.000006476987     0.000016912204
       2        0.000023048859    -0.000008212417     0.000051602261
       3        0.002511380947     0.003139379826    -0.002160468876
       4       -0.000037956654     0.000013977163    -0.000056797229
       5       -0.002725944033    -0.003703575260     0.003166399801
       6       -0.000000016968     0.000002083752    -0.000003941642
       7       -0.000007083425     0.000002713212     0.000004396902
       8       -0.004237672542    -0.003441482695    -0.001025683611
       9       -0.000006407612     0.000003785169    -0.000000446261
      10       -0.000001373889    -0.000001094248     0.000002336383
      11       -0.000003892015    -0.000019199221    -0.000029238482
      12        0.004456134312     0.004017590998     0.000034726568
      13       -0.000002720428    -0.000001328350    -0.000002350623
      14        0.000007216691     0.000005469456    -0.000011412706
      15       -0.000003214886    -0.000007344662     0.000006500737
      16       -0.000007028698    -0.000007829625    -0.000007552605
      17        0.000004638036    -0.000000378493     0.000007989925
      18       -0.000008561326    -0.000008654951     0.000001220176
      19       -0.000001311435     0.000013856036     0.000007716352
      20        0.000005390586    -0.000000186429     0.000004286229
      21        0.000008425580     0.000008320689    -0.000003914518
      22        0.000006661919    -0.000008603963     0.000000451784
      23        0.000002239423    -0.000001349590    -0.000000980032
      24        0.000004692027    -0.000007695888    -0.000001935925
      25       -0.000000519164     0.000003282507     0.000000183188

  **** Optimization is complete! (in 12 steps) ****
    Final optimized geometry and variables:
    Molecular point group: c1

    Geometry (in Angstrom), charge = 0, multiplicity = 1:

    H           -0.997615483818     2.640144397499    -0.001578936765
    C           -1.000600717453     2.007832898129     0.896455573440
    C           -2.085631102160     0.964581414558     0.936836637312
    O           -0.215751440122     2.199720777417     1.758942970977
    C           -2.346064134451     0.249529411719    -0.394386604256
    H           -1.879569786695     0.280454261823     1.749520892654
    H           -2.987895503913     1.512058190958     1.204961188471
    C           -1.349047941949    -0.848392426847    -0.820111446981
    H           -3.339730582077    -0.179741033404    -0.362925421320
    H           -2.383670338043     1.009965641956    -1.170516001465
    C            0.098330221046    -0.674993752908    -0.354583615790
    H           -1.323639553434    -0.867751705546    -1.904933373734
    H           -1.709917615484    -1.815267402319    -0.485788013484
    C            1.005958775221    -1.785737176702    -0.881309330273
    H            0.473262560229     0.286639756929    -0.690437187286
    H            0.150423533577    -0.663047421949     0.729012825761
    C            2.447298394789    -1.729704210655    -0.372114607312
    H            1.009406813306    -1.762602736085    -1.968789684045
    H            0.579193031686    -2.744987871514    -0.600854817502
    C            3.237180190537    -0.503902834161    -0.824233516515
    H            2.963785755926    -2.622379338813    -0.711506113468
    H            2.445282251062    -1.775143401467     0.713472214838
    H            3.241725543594    -0.420387216138    -1.906638367455
    H            2.826856891863     0.413787799300    -0.421069119712
    H            4.267841851519    -0.569697584022    -0.495229779521

  Mulliken Charges: (a.u.)
   Center  Symbol    Alpha    Beta     Spin     Total
       1     H     0.46224  0.46224  0.00000  0.07552
       2     C     2.90006  2.90006  0.00000  0.19989
       3     C     3.09745  3.09745  0.00000 -0.19489
       4     O     4.17052  4.17052  0.00000 -0.34104
       5     C     3.11887  3.11887  0.00000 -0.23773
       6     H     0.43893  0.43893  0.00000  0.12214
       7     H     0.43576  0.43576  0.00000  0.12847
       8     C     3.08725  3.08725  0.00000 -0.17449
       9     H     0.43925  0.43925  0.00000  0.12151
      10     H     0.45118  0.45118  0.00000  0.09764
      11     C     3.11010  3.11010  0.00000 -0.22019
      12     H     0.44961  0.44961  0.00000  0.10078
      13     H     0.44861  0.44861  0.00000  0.10278
      14     C     3.09765  3.09765  0.00000 -0.19529
      15     H     0.44984  0.44984  0.00000  0.10032
      16     H     0.44164  0.44164  0.00000  0.11673
      17     C     3.08950  3.08950  0.00000 -0.17901
      18     H     0.45370  0.45370  0.00000  0.09259
      19     H     0.44953  0.44953  0.00000  0.10095
      20     C     3.15487  3.15487  0.00000 -0.30974
      21     H     0.44898  0.44898  0.00000  0.10204
      22     H     0.45309  0.45309  0.00000  0.09383
      23     H     0.45641  0.45641  0.00000  0.08719
      24     H     0.44918  0.44918  0.00000  0.10164
      25     H     0.44581  0.44581  0.00000  0.10838

   Total alpha = 36.00000, Total beta = 36.00000, Total charge = -0.00000

*** Psi4 exiting successfully. Buy a developer a beer!
