  ==> Input File <==

--------------------------------------------------------------------------
set {
	reference rhf
	basis 6-31G*
}

set_num_threads( 4 )
memory 2 gb

molecule MOL {
0 1

H	 -3.161837	 0.500524	 -0.000234
C	 -2.367097	 -0.232926	 -0.000000
O	 -1.158440	 0.455814	 -0.000122
H	 -2.468853	 -0.861886	 -0.882833
H	 -2.468942	 -0.861421	 0.883154
C	 -0.260481	 0.039530	 -0.984120
C	 1.007743	 0.867655	 -0.872407
H	 -0.705083	 0.159377	 -1.972990
H	 -0.032868	 -1.020108	 -0.860554
C	 2.053330	 0.479079	 -1.916743
H	 0.744788	 1.915774	 -0.977112
H	 1.412378	 0.744539	 0.127499
H	 1.676259	 0.618320	 -2.926126
H	 2.947256	 1.084992	 -1.813731
H	 2.348141	 -0.561575	 -1.814136

	symmetry c1
}
set optking {
	frozen_dihedral = ("
		6 3 2 4
	")
}

ee = optimize('scf')
oeprop('DIPOLE', 'QUADRUPOLE', 'MULLIKEN_CHARGES')
f=open( 'psi4out.xyz', 'w' )
f.write( "15  " )
f.write( str(ee) + "\n" )
f.write( MOL.save_string_xyz() )
f.close()
--------------------------------------------------------------------------

    Molecular point group: c1
  Charge       = 0
  Multiplicity = 1
  Basis Set: 6-31G*
  Basis Set:
  @DF-RHF Final Energy:  -232.13534673668212
    Total Energy =                       -232.1353467366820951
    Molecular point group: c1
  Basis Set: 6-31G*
  Basis Set:
  Basis Set: 6-31G*
  Basis Set:
  @DF-RHF Final Energy:  -232.13564585757925
    Total Energy =                       -232.1356458575794477
  Basis Set: 6-31G*
  Basis Set:
  Basis Set: 6-31G*
  Basis Set:
  @DF-RHF Final Energy:  -232.13575692225012
    Total Energy =                       -232.1357569222502661
  Basis Set: 6-31G*
  Basis Set:
  Charge       = 0
  Multiplicity = 1
  Basis Set: 6-31G*
  Basis Set:

    Orbital Energies (a.u.)
    -----------------------

    Doubly Occupied:

       1A    -20.549561     2A    -11.266737     3A    -11.263463
       4A    -11.213707     5A    -11.212661     6A     -1.373153
       7A     -1.056838     8A     -0.955303     9A     -0.877340
      10A     -0.808732    11A     -0.670952    12A     -0.651771
      13A     -0.629618    14A     -0.607386    15A     -0.564068
      16A     -0.545642    17A     -0.501937    18A     -0.488453
      19A     -0.478787    20A     -0.460323    21A     -0.408068

  @DF-RHF Final Energy:  -232.13575755597358

   => Energetics <=

    Nuclear Repulsion Energy =            189.4022574923393734
    One-Electron Energy =                -689.9070275353917623
    Two-Electron Energy =                 268.3690124870787486
    DFT Exchange-Correlation Energy =       0.0000000000000000
    Empirical Dispersion Energy =           0.0000000000000000
    PCM Polarization Energy =               0.0000000000000000
    EFP Energy =                            0.0000000000000000
    Total Energy =                       -232.1357575559736688
    Molecular point group: c1
  Basis Set: 6-31G*
  Basis Set:

  -Total Gradient:
     Atom            X                  Y                   Z
    ------   -----------------  -----------------  -----------------
       1       -0.000030775273    -0.000006089374    -0.000001933842
       2       -0.001032231867     0.001950620114    -0.001266585902
       3        0.000716067966    -0.001595884172     0.001317833407
       4        0.000694772690    -0.001151095927     0.000734990899
       5        0.000021779126    -0.000008087232     0.000000845750
       6       -0.000398908664     0.000788823964    -0.000730668068
       7       -0.000015250447    -0.000007024164    -0.000021823489
       8       -0.000005696155     0.000008802687     0.000031385750
       9       -0.000006275712     0.000007587776    -0.000018697630
      10        0.000045765392     0.000024660774    -0.000017762783
      11        0.000008523701    -0.000000576104     0.000001261668
      12       -0.000020300898    -0.000009478790    -0.000012064404
      13        0.000003442580    -0.000002653881     0.000001447130
      14        0.000022477332    -0.000005282672    -0.000020479954
      15       -0.000003389766     0.000005677001     0.000002251468

  **** Optimization is complete! (in 4 steps) ****
    Final optimized geometry and variables:
    Molecular point group: c1

    Geometry (in Angstrom), charge = 0, multiplicity = 1:

    H           -3.012087222848     0.197472209907     0.785781099253
    C           -2.209303392574    -0.530112208256     0.760216688247
    O           -0.982973502625     0.138111411188     0.737300777929
    H           -2.341200631972    -1.166297581587    -0.110074888318
    H           -2.278060419674    -1.155544086359     1.645532014296
    C           -0.077491378860    -0.277496095975    -0.242090487942
    C            1.185054053622     0.557506653076    -0.119895219899
    H           -0.514234141727    -0.157269148828    -1.233514541440
    H            0.157984543669    -1.334947604078    -0.118495076999
    C            2.239749058374     0.177968505064    -1.158647467452
    H            0.916240229083     1.604311100887    -0.222973871168
    H            1.583876722243     0.433897070724     0.882231828773
    H            1.868188225257     0.317349198335    -2.170074643303
    H            3.129350879986     0.789101592446    -1.048859562241
    H            2.540374277252    -0.861124059052    -1.056901911076

  Mulliken Charges: (a.u.)
   Center  Symbol    Alpha    Beta     Spin     Total
       1     H     0.41849  0.41849  0.00000  0.16303
       2     C     3.07597  3.07597  0.00000 -0.15194
       3     O     4.31056  4.31056  0.00000 -0.62112
       4     H     0.43007  0.43007  0.00000  0.13985
       5     H     0.42312  0.42312  0.00000  0.15376
       6     C     2.98135  2.98135  0.00000  0.03729
       7     C     3.15995  3.15995  0.00000 -0.31989
       8     H     0.43298  0.43298  0.00000  0.13405
       9     H     0.43344  0.43344  0.00000  0.13312
      10     C     3.24794  3.24794  0.00000 -0.49588
      11     H     0.41439  0.41439  0.00000  0.17122
      12     H     0.41436  0.41436  0.00000  0.17127
      13     H     0.42100  0.42100  0.00000  0.15800
      14     H     0.41544  0.41544  0.00000  0.16912
      15     H     0.42095  0.42095  0.00000  0.15810

   Total alpha = 21.00000, Total beta = 21.00000, Total charge =  0.00000
