                              Psi4 1.0.54 Driver

  ==> Input File <==

--------------------------------------------------------------------------
set {
	reference rhf
	basis cc-pvtz
}

set_num_threads( 4 )
memory 2 gb

molecule MOL {
0 1

O	 0.812427	 0.132190	 -0.885804
C	 0.029490	 0.077183	 0.000078
C	 -1.232113	 -0.748027	 0.000015
O	 0.165051	 0.749561	 1.130902
C	 -2.501422	 0.088592	 -0.000052
H	 -1.188777	 -1.400384	 -0.865133
H	 -1.188857	 -1.400312	 0.865225
H	 -2.548170	 0.725504	 -0.873205
H	 -3.371613	 -0.556398	 -0.000040
H	 -2.548215	 0.725571	 0.873047
C	 1.309559	 1.567764	 1.266134
H	 2.210863	 0.976848	 1.197546
H	 1.236478	 2.023447	 2.240217
H	 1.327361	 2.327920	 0.499263

	symmetry c1
}
set optking {
	frozen_dihedral = ("
		4 2 3 6
	")
}

ee,wfn = optimize('scf', return_wfn=True)
oeprop( wfn, 'DIPOLE', 'QUADRUPOLE', 'MULLIKEN_CHARGES')
f=open( 'psi4out.xyz', 'w' )
f.write( "14  " )
f.write( str(ee) + "\n" )
f.write( MOL.save_string_xyz() )
f.close()
--------------------------------------------------------------------------

    Molecular point group: c1
  Charge       = 0
  Multiplicity = 1
  Basis Set: CC-PVTZ
  Basis Set:
  @DF-RHF Final Energy:  -305.98584886171307
    Total Energy =                       -305.9858488617130661
    Molecular point group: c1
  Basis Set: CC-PVTZ
  Basis Set:
  Basis Set: CC-PVTZ
  Basis Set:
  @DF-RHF Final Energy:  -305.98614859006324
    Total Energy =                       -305.9861485900634648
  Basis Set: CC-PVTZ
  Basis Set:
  Basis Set: CC-PVTZ
  Basis Set:
  @DF-RHF Final Energy:  -305.98611675242375
    Total Energy =                       -305.9861167524237544
  Basis Set: CC-PVTZ
  Basis Set:
  Basis Set: CC-PVTZ
  Basis Set:
  @DF-RHF Final Energy:  -305.98620442427517
    Total Energy =                       -305.9862044242751153
  Basis Set: CC-PVTZ
  Basis Set:
  Basis Set: CC-PVTZ
  Basis Set:
  @DF-RHF Final Energy:  -305.98620637057729
    Total Energy =                       -305.9862063705769515
  Basis Set: CC-PVTZ
  Basis Set:
  Charge       = 0
  Multiplicity = 1
  Basis Set: CC-PVTZ
  Basis Set:

    Orbital Energies (a.u.)
    -----------------------

    Doubly Occupied:

       1A    -20.597853     2A    -20.533729     3A    -11.364305
       4A    -11.279298     5A    -11.236174     6A    -11.224832
       7A     -1.472800     8A     -1.365600     9A     -1.068638
      10A     -0.977120    11A     -0.885580    12A     -0.776425
      13A     -0.698853    14A     -0.682968    15A     -0.676759
      16A     -0.620136    17A     -0.592302    18A     -0.570759
      19A     -0.545226    20A     -0.520280    21A     -0.512896
      22A     -0.505558    23A     -0.460194    24A     -0.437662

  @DF-RHF Final Energy:  -305.98620659551227

   => Energetics <=

    Nuclear Repulsion Energy =            248.6880285774282981
    One-Electron Energy =                -910.1365706855690405
    Two-Electron Energy =                 355.4623355126286128
    DFT Exchange-Correlation Energy =       0.0000000000000000
    Empirical Dispersion Energy =           0.0000000000000000
    PCM Polarization Energy =               0.0000000000000000
    EFP Energy =                            0.0000000000000000
    Total Energy =                       -305.9862065955121011
    Molecular point group: c1
  Basis Set: CC-PVTZ
  Basis Set:

  -Total Gradient:
     Atom            X                  Y                   Z
    ------   -----------------  -----------------  -----------------
       1       -0.000006175593    -0.000011842406    -0.000012030918
       2        0.000067382525    -0.000070885039     0.000076789176
       3        0.000062673268    -0.000067573032     0.000062091134
       4       -0.000074423859     0.000080192307    -0.000072688958
       5        0.000003541157    -0.000007307213     0.000008016347
       6       -0.000055480829     0.000075121274    -0.000089990368
       7       -0.000009760507     0.000002192302     0.000001786658
       8        0.000007896775    -0.000008911535     0.000010788888
       9        0.000002484526     0.000000459506    -0.000000092214
      10       -0.000009284748     0.000013845284     0.000006280878
      11        0.000024879975    -0.000007964315     0.000008243811
      12        0.000002168325     0.000006585409     0.000001041762
      13       -0.000007984177    -0.000000791430     0.000001735003
      14       -0.000007916836    -0.000003121113    -0.000001971196

  **** Optimization is complete! (in 6 steps) ****
    Final optimized geometry and variables:
    Molecular point group: c1

    Geometry (in Angstrom), charge = 0, multiplicity = 1:

    O            1.009259994265    -0.189925958331    -1.154388242226
    C            0.245684003626    -0.261356122112    -0.252323340818
    C           -1.005587429925    -1.100698841413    -0.248946830444
    O            0.396309513537     0.407832439511     0.878827248200
    C           -2.275358399517    -0.247291694813    -0.269747047835
    H           -0.961917235230    -1.741139090755    -1.117183316423
    H           -0.995108740665    -1.720907433141     0.639321888643
    H           -2.303194078709     0.384593313139    -1.149524132306
    H           -3.149787120672    -0.885098122718    -0.289767010221
    H           -2.336357231211     0.384277215874     0.606272863862
    C            1.525769017180     1.250442748060     0.989127015135
    H            2.437346494275     0.679188311250     0.895727109570
    H            1.466898452118     1.700959970001     1.966606887829
    H            1.507983646311     2.013199222780     0.224902678274

  Mulliken Charges: (a.u.)
   Center  Symbol    Alpha    Beta     Spin     Total
       1     O     4.19956  4.19956  0.00000 -0.39912
       2     C     2.79927  2.79927  0.00000  0.40145
       3     C     3.08448  3.08448  0.00000 -0.16895
       4     O     4.15063  4.15063  0.00000 -0.30126
       5     C     3.15085  3.15085  0.00000 -0.30170
       6     H     0.43681  0.43681  0.00000  0.12638
       7     H     0.44676  0.44676  0.00000  0.10648
       8     H     0.44889  0.44889  0.00000  0.10223
       9     H     0.44745  0.44745  0.00000  0.10510
      10     H     0.44648  0.44648  0.00000  0.10704
      11     C     3.03590  3.03590  0.00000 -0.07181
      12     H     0.45283  0.45283  0.00000  0.09434
      13     H     0.44564  0.44564  0.00000  0.10873
      14     H     0.45445  0.45445  0.00000  0.09110

   Total alpha = 24.00000, Total beta = 24.00000, Total charge = -0.00000

*** Psi4 exiting successfully. Buy a developer a beer!
