                              Psi4 1.0.54 Driver

  ==> Input File <==

--------------------------------------------------------------------------
set {
	reference rhf
	basis cc-pvtz
}

set_num_threads( 4 )
memory 2 gb

molecule MOL {
0 1

H	 1.365551	 3.600860	 2.536886
N	 0.540189	 3.043502	 2.475679
C	 0.560767	 2.205668	 1.286952
H	 -0.237402	 3.669873	 2.456713
C	 -0.659547	 1.298219	 1.241155
H	 1.457878	 1.596929	 1.326148
H	 0.614046	 2.782210	 0.362444
C	 -0.678115	 0.376691	 0.025731
H	 -0.688442	 0.712269	 2.153971
H	 -1.558210	 1.912131	 1.241114
C	 -1.900706	 -0.535531	 -0.022488
H	 0.222021	 -0.233806	 0.023671
H	 -0.642345	 0.972891	 -0.883190
C	 -3.220513	 0.226854	 0.028039
H	 -1.865036	 -1.134397	 -0.928236
H	 -1.857948	 -1.236381	 0.806820
H	 -3.309098	 0.911849	 -0.808725
H	 -4.066838	 -0.449485	 -0.008086
H	 -3.301685	 0.809374	 0.939860

	symmetry c1
}
set optking {
	frozen_dihedral = ("
		12 8 11 15
	")
}

ee,wfn = optimize('scf', return_wfn=True)
oeprop( wfn, 'DIPOLE', 'QUADRUPOLE', 'MULLIKEN_CHARGES')
f=open( 'psi4out.xyz', 'w' )
f.write( "19  " )
f.write( str(ee) + "\n" )
f.write( MOL.save_string_xyz() )
f.close()
--------------------------------------------------------------------------

    Molecular point group: c1
  Charge       = 0
  Multiplicity = 1
  Basis Set: CC-PVTZ
  Basis Set:
  @DF-RHF Final Energy:  -251.44505891252081
    Total Energy =                       -251.4450589125209490
    Molecular point group: c1
  Basis Set: CC-PVTZ
  Basis Set:
  Basis Set: CC-PVTZ
  Basis Set:
  @DF-RHF Final Energy:  -251.44563687470125
    Total Energy =                       -251.4456368747013357
  Basis Set: CC-PVTZ
  Basis Set:
  Basis Set: CC-PVTZ
  Basis Set:
  @DF-RHF Final Energy:  -251.44613124207700
    Total Energy =                       -251.4461312420771719
  Basis Set: CC-PVTZ
  Basis Set:
  Basis Set: CC-PVTZ
  Basis Set:
  @DF-RHF Final Energy:  -251.44616188723813
    Total Energy =                       -251.4461618872381905
  Basis Set: CC-PVTZ
  Basis Set:
  Basis Set: CC-PVTZ
  Basis Set:
  @DF-RHF Final Energy:  -251.44616368804935
    Total Energy =                       -251.4461636880497508
  Basis Set: CC-PVTZ
  Basis Set:
  Charge       = 0
  Multiplicity = 1
  Basis Set: CC-PVTZ
  Basis Set:

    Orbital Energies (a.u.)
    -----------------------

    Doubly Occupied:

       1A    -15.526306     2A    -11.237817     3A    -11.212343
       4A    -11.210844     5A    -11.207081     6A    -11.204828
       7A     -1.178079     8A     -1.073653     9A     -0.996081
      10A     -0.904732    11A     -0.823969    12A     -0.775794
      13A     -0.666197    14A     -0.632592    15A     -0.618667
      16A     -0.604852    17A     -0.567002    18A     -0.549239
      19A     -0.521672    20A     -0.503421    21A     -0.487615
      22A     -0.460201    23A     -0.455400    24A     -0.451988
      25A     -0.383672

  @DF-RHF Final Energy:  -251.44616395612800

   => Energetics <=

    Nuclear Repulsion Energy =            249.4879182486023694
    One-Electron Energy =                -833.3600715599513933
    Two-Electron Energy =                 332.4259893552210769
    DFT Exchange-Correlation Energy =       0.0000000000000000
    Empirical Dispersion Energy =           0.0000000000000000
    PCM Polarization Energy =               0.0000000000000000
    EFP Energy =                            0.0000000000000000
    Total Energy =                       -251.4461639561279753
    Molecular point group: c1
  Basis Set: CC-PVTZ
  Basis Set:

  -Total Gradient:
     Atom            X                  Y                   Z
    ------   -----------------  -----------------  -----------------
       1       -0.000000918109    -0.000000716602    -0.000003980039
       2       -0.000008090479     0.000003269963    -0.000001468045
       3        0.000013423975    -0.000015815126     0.000006232144
       4       -0.000002276585     0.000006476519     0.000005331652
       5        0.000000088104    -0.000003920914     0.000008857890
       6        0.000001199748    -0.000005043019    -0.000010300108
       7       -0.000004657963     0.000005774810     0.000005331798
       8       -0.000218480657     0.000453386812    -0.002411961156
       9        0.000000516033     0.000007846002     0.000008396913
      10       -0.000003327583     0.000001539871    -0.000003660745
      11        0.001191308580    -0.001640688571     0.001400139590
      12       -0.000006324388    -0.000139344583     0.001824971674
      13       -0.000006047286    -0.000008033887    -0.000006456909
      14        0.000005502142     0.000005917785     0.000000233676
      15       -0.000964674811     0.001321181809    -0.000823730671
      16        0.000008322661     0.000002797160    -0.000000969555
      17       -0.000004573111     0.000000752388    -0.000001359633
      18        0.000001648830    -0.000000531552     0.000002085150
      19       -0.000002639103     0.000005151132     0.000002306370

  **** Optimization is complete! (in 6 steps) ****
    Final optimized geometry and variables:
    Molecular point group: c1

    Geometry (in Angstrom), charge = 0, multiplicity = 1:

    H            2.409075540412     2.269839244494     1.788842638441
    N            1.540632730601     1.787032201862     1.697233912024
    C            1.510252615068     0.989727590644     0.481174673809
    H            0.819533514223     2.477896130229     1.688611573765
    C            0.219556304386     0.188843554700     0.389003369515
    H            2.353540792528     0.308013675109     0.510638633643
    H            1.624863922683     1.589937946181    -0.422653139526
    C            0.148874832750    -0.672941856694    -0.870304498492
    H            0.136784947766    -0.435341438765     1.273439115498
    H           -0.619689862682     0.877891717324     0.417399581723
    C           -1.060776598021    -1.607210586183    -0.941785326972
    H            1.048842603561    -1.280635605754    -0.914966948354
    H            0.161115029440    -0.032909356824    -1.749120707128
    C           -2.416278996244    -0.906873826081    -0.870411356587
    H           -1.012226550944    -2.154055178113    -1.878546930840
    H           -0.994450637020    -2.344220448167    -0.146673782512
    H           -2.501155818145    -0.141259640303    -1.635486538428
    H           -3.221363570364    -1.616201167461    -1.024765397260
    H           -2.579421009019    -0.434276155665     0.090340572338

  Mulliken Charges: (a.u.)
   Center  Symbol    Alpha    Beta     Spin     Total
       1     H     0.43025  0.43025  0.00000  0.13951
       2     N     3.68890  3.68890  0.00000 -0.37779
       3     C     3.02711  3.02711  0.00000 -0.05422
       4     H     0.43098  0.43098  0.00000  0.13804
       5     C     3.08500  3.08500  0.00000 -0.17000
       6     H     0.45655  0.45655  0.00000  0.08690
       7     H     0.46875  0.46875  0.00000  0.06250
       8     C     3.10043  3.10043  0.00000 -0.20087
       9     H     0.44890  0.44890  0.00000  0.10219
      10     H     0.45803  0.45803  0.00000  0.08394
      11     C     3.08887  3.08887  0.00000 -0.17773
      12     H     0.45065  0.45065  0.00000  0.09870
      13     H     0.45467  0.45467  0.00000  0.09066
      14     C     3.15509  3.15509  0.00000 -0.31019
      15     H     0.44944  0.44944  0.00000  0.10111
      16     H     0.45302  0.45302  0.00000  0.09397
      17     H     0.45522  0.45522  0.00000  0.08955
      18     H     0.44602  0.44602  0.00000  0.10796
      19     H     0.45212  0.45212  0.00000  0.09577

   Total alpha = 25.00000, Total beta = 25.00000, Total charge = -0.00000

*** Psi4 exiting successfully. Buy a developer a beer!
