  ==> Input File <==

--------------------------------------------------------------------------
set {
	reference rhf
	basis 6-31G*
}

set_num_threads( 4 )
memory 2 gb

molecule MOL {
0 1

O	 0.391030	 1.298905	 0.000133
C	 0.503002	 0.111612	 0.000005
C	 -0.702327	 -0.811998	 -0.000075
C	 1.863306	 -0.554493	 0.000030
C	 -1.431438	 -0.864455	 1.337010
H	 -1.372418	 -0.486427	 -0.793645
H	 -0.363323	 -1.803374	 -0.295058
H	 -1.791745	 0.116655	 1.621303
H	 -2.280554	 -1.537356	 1.278166
H	 -0.773705	 -1.211969	 2.124310
H	 1.974395	 -1.189404	 -0.874166
H	 2.638695	 0.198920	 -0.000196
H	 1.974487	 -1.188655	 0.874727

	symmetry c1
}
set optking {
	frozen_dihedral = ("
		6 3 2 1
	")
}

ee = optimize('scf')
oeprop('DIPOLE', 'QUADRUPOLE', 'MULLIKEN_CHARGES')
f=open( 'psi4out.xyz', 'w' )
f.write( "13  " )
f.write( str(ee) + "\n" )
f.write( MOL.save_string_xyz() )
f.close()
--------------------------------------------------------------------------

    Molecular point group: c1
  Charge       = 0
  Multiplicity = 1
  Basis Set: 6-31G*
  Basis Set:
  @DF-RHF Final Energy:  -230.99453125130069
    Total Energy =                       -230.9945312513005433
    Molecular point group: c1
  Basis Set: 6-31G*
  Basis Set:
  Basis Set: 6-31G*
  Basis Set:
  @DF-RHF Final Energy:  -230.99498914409634
    Total Energy =                       -230.9949891440962233
  Basis Set: 6-31G*
  Basis Set:
  Basis Set: 6-31G*
  Basis Set:
  @DF-RHF Final Energy:  -230.99533605707953
    Total Energy =                       -230.9953360570794700
  Basis Set: 6-31G*
  Basis Set:
  Basis Set: 6-31G*
  Basis Set:
  @DF-RHF Final Energy:  -230.99539538413421
    Total Energy =                       -230.9953953841344401
  Basis Set: 6-31G*
  Basis Set:
  Basis Set: 6-31G*
  Basis Set:
  @DF-RHF Final Energy:  -230.99540581228854
    Total Energy =                       -230.9954058122881975
  Basis Set: 6-31G*
  Basis Set:
  Basis Set: 6-31G*
  Basis Set:
  @DF-RHF Final Energy:  -230.99540884836671
    Total Energy =                       -230.9954088483666226
  Basis Set: 6-31G*
  Basis Set:
  Charge       = 0
  Multiplicity = 1
  Basis Set: 6-31G*
  Basis Set:

    Orbital Energies (a.u.)
    -----------------------

    Doubly Occupied:

       1A    -20.548726     2A    -11.326073     3A    -11.233028
       4A    -11.229527     5A    -11.225318     6A     -1.394780
       7A     -1.063487     8A     -0.999242     9A     -0.881061
      10A     -0.733174    11A     -0.655941    12A     -0.645393
      13A     -0.608680    14A     -0.589966    15A     -0.569691
      16A     -0.537356    17A     -0.525513    18A     -0.502380
      19A     -0.479016    20A     -0.399925

  @DF-RHF Final Energy:  -230.99540916901600

   => Energetics <=

    Nuclear Repulsion Energy =            176.9275628755222556
    One-Electron Energy =                -663.5493950291354395
    Two-Electron Energy =                 255.6264229845968430
    DFT Exchange-Correlation Energy =       0.0000000000000000
    Empirical Dispersion Energy =           0.0000000000000000
    PCM Polarization Energy =               0.0000000000000000
    EFP Energy =                            0.0000000000000000
    Total Energy =                       -230.9954091690163409
    Molecular point group: c1
  Basis Set: 6-31G*
  Basis Set:

  -Total Gradient:
     Atom            X                  Y                   Z
    ------   -----------------  -----------------  -----------------
       1       -0.000014299436     0.000017415971    -0.000089981076
       2        0.000009078027    -0.000022872162     0.000162240434
       3        0.000050383299    -0.000062452756    -0.000138436099
       4        0.000000749232     0.000014594536    -0.000040812102
       5       -0.000005748129    -0.000000785525     0.000032350395
       6       -0.000045772425     0.000049210947     0.000062636135
       7       -0.000000591515     0.000016830120     0.000000508765
       8        0.000000578378     0.000000692932    -0.000007712062
       9        0.000003505168    -0.000000728553    -0.000005240298
      10       -0.000001338122     0.000000712373    -0.000001719868
      11        0.000005115436    -0.000010661577     0.000008301078
      12        0.000002229313    -0.000003668388     0.000008507621
      13       -0.000003889225     0.000001712082     0.000009357075

  **** Optimization is complete! (in 7 steps) ****
    Final optimized geometry and variables:
    Molecular point group: c1

    Geometry (in Angstrom), charge = 0, multiplicity = 1:

    O            0.225907197314     1.440338150493    -0.244261280886
    C            0.380389954443     0.257701633266    -0.279654254687
    C           -0.817152379802    -0.679472348483    -0.297277754782
    C            1.757709998335    -0.365329725521    -0.289215666146
    C           -1.545502405851    -0.663106806559     1.052331490219
    H           -1.489376556398    -0.333287943682    -1.075167198801
    H           -0.510381498099    -1.690111933638    -0.546736537850
    H           -1.866203596633     0.342571405619     1.294359419264
    H           -2.419257264791    -1.304556350219     1.020141659369
    H           -0.903671837180    -1.016563869617     1.853927742396
    H            1.907970355641    -0.915456995932    -1.214256772017
    H            2.512787863291     0.402893273649    -0.198128270291
    H            1.856557301107    -1.077330012718     0.525604957457

  Mulliken Charges: (a.u.)
   Center  Symbol    Alpha    Beta     Spin     Total
       1     O     4.26203  4.26203  0.00000 -0.52407
       2     C     2.73774  2.73774  0.00000  0.52452
       3     C     3.19967  3.19967  0.00000 -0.39933
       4     C     3.28946  3.28946  0.00000 -0.57892
       5     C     3.24607  3.24607  0.00000 -0.49214
       6     H     0.40056  0.40056  0.00000  0.19888
       7     H     0.41626  0.41626  0.00000  0.16747
       8     H     0.40273  0.40273  0.00000  0.19455
       9     H     0.41345  0.41345  0.00000  0.17311
      10     H     0.41882  0.41882  0.00000  0.16235
      11     H     0.40718  0.40718  0.00000  0.18564
      12     H     0.39687  0.39687  0.00000  0.20627
      13     H     0.40917  0.40917  0.00000  0.18167

   Total alpha = 20.00000, Total beta = 20.00000, Total charge =  0.00000
