                              Psi4 1.0.54 Driver

  ==> Input File <==

--------------------------------------------------------------------------
set {
	reference rhf
	basis cc-pvtz
}

set_num_threads( 4 )
memory 2 gb

molecule MOL {
0 1

H	 1.614179	 0.079025	 -3.756001
O	 1.776317	 -0.661215	 -4.310606
C	 2.136329	 -1.776612	 -3.538884
C	 0.973278	 -2.380054	 -2.765671
H	 2.523999	 -2.506159	 -4.237062
H	 2.945516	 -1.521305	 -2.857352
C	 0.397976	 -1.467608	 -1.684783
H	 0.192512	 -2.649381	 -3.470670
H	 1.319248	 -3.304420	 -2.309328
C	 -0.745311	 -2.119207	 -0.908156
H	 0.046800	 -0.548185	 -2.141224
H	 1.188511	 -1.189917	 -0.989637
C	 -1.311023	 -1.277304	 0.237018
H	 -1.547019	 -2.371610	 -1.597927
H	 -0.391441	 -3.061474	 -0.499039
C	 -2.041121	 -0.006551	 -0.194127
H	 -2.000080	 -1.895179	 0.806193
H	 -0.506600	 -1.015408	 0.920735
C	 -3.489218	 0.042606	 0.286507
H	 -2.022185	 0.066287	 -1.279394
H	 -1.518764	 0.869305	 0.178730
C	 -4.219984	 1.311773	 -0.139038
H	 -4.022855	 -0.824300	 -0.093339
H	 -3.510372	 -0.038577	 1.370031
H	 -4.244251	 1.405725	 -1.219696
H	 -5.244345	 1.313233	 0.215630
H	 -3.732090	 2.196311	 0.257073

	symmetry c1
}
set optking {
	frozen_dihedral = ("
		10 13 16 20
	")
}

ee,wfn = optimize('scf', return_wfn=True)
oeprop( wfn, 'DIPOLE', 'QUADRUPOLE', 'MULLIKEN_CHARGES')
f=open( 'psi4out.xyz', 'w' )
f.write( "27  " )
f.write( str(ee) + "\n" )
f.write( MOL.save_string_xyz() )
f.close()
--------------------------------------------------------------------------

    Molecular point group: c1
  Charge       = 0
  Multiplicity = 1
  Basis Set: CC-PVTZ
  Basis Set:
  @DF-RHF Final Energy:  -388.42259996415430
    Total Energy =                       -388.4225999641543012
    Molecular point group: c1
  Basis Set: CC-PVTZ
  Basis Set:
  Basis Set: CC-PVTZ
  Basis Set:
  @DF-RHF Final Energy:  -388.42267338262525
    Total Energy =                       -388.4226733826250211
  Basis Set: CC-PVTZ
  Basis Set:
  Basis Set: CC-PVTZ
  Basis Set:
  @DF-RHF Final Energy:  -388.42296988907941
    Total Energy =                       -388.4229698890793543
  Basis Set: CC-PVTZ
  Basis Set:
  Basis Set: CC-PVTZ
  Basis Set:
  @DF-RHF Final Energy:  -388.42297030513686
    Total Energy =                       -388.4229703051372553
  Basis Set: CC-PVTZ
  Basis Set:
  Basis Set: CC-PVTZ
  Basis Set:
  @DF-RHF Final Energy:  -388.42298603509795
    Total Energy =                       -388.4229860350981198
  Basis Set: CC-PVTZ
  Basis Set:
  Basis Set: CC-PVTZ
  Basis Set:
  @DF-RHF Final Energy:  -388.42298907480654
    Total Energy =                       -388.4229890748066509
  Basis Set: CC-PVTZ
  Basis Set:
  Charge       = 0
  Multiplicity = 1
  Basis Set: CC-PVTZ
  Basis Set:

    Orbital Energies (a.u.)
    -----------------------

    Doubly Occupied:

       1A    -20.545325     2A    -11.264984     3A    -11.216675
       4A    -11.214883     5A    -11.214138     6A    -11.213257
       7A    -11.212790     8A    -11.211802     9A    -11.206767
      10A     -1.363215    11A     -1.095238    12A     -1.061755
      13A     -1.011963    14A     -0.948204    15A     -0.888374
      16A     -0.822378    17A     -0.803147    18A     -0.776666
      19A     -0.696311    20A     -0.654867    21A     -0.628671
      22A     -0.616862    23A     -0.605893    24A     -0.588257
      25A     -0.577428    26A     -0.556857    27A     -0.537476
      28A     -0.531430    29A     -0.506299    30A     -0.494827
      31A     -0.483721    32A     -0.479196    33A     -0.469474
      34A     -0.453208    35A     -0.452307    36A     -0.444086
      37A     -0.425322

  @DF-RHF Final Energy:  -388.42298917311848

   => Energetics <=

    Nuclear Repulsion Energy =            461.0030611137825645
    One-Electron Energy =               -1440.3039920302592236
    Two-Electron Energy =                 590.8779417433580647
    DFT Exchange-Correlation Energy =       0.0000000000000000
    Empirical Dispersion Energy =           0.0000000000000000
    PCM Polarization Energy =               0.0000000000000000
    EFP Energy =                            0.0000000000000000
    Total Energy =                       -388.4229891731185944
    Molecular point group: c1
  Basis Set: CC-PVTZ
  Basis Set:

  -Total Gradient:
     Atom            X                  Y                   Z
    ------   -----------------  -----------------  -----------------
       1        0.000002484652    -0.000004140601     0.000003788692
       2       -0.000002222599     0.000003739251    -0.000018568994
       3        0.000000716382    -0.000001815494     0.000021244691
       4       -0.000015225731     0.000006567704    -0.000015157016
       5       -0.000000176551     0.000004979518    -0.000002149625
       6        0.000000664632     0.000001507119    -0.000000637744
       7       -0.000001183912     0.000011059980    -0.000001293847
       8       -0.000005408029    -0.000006860130    -0.000002350137
       9        0.000001900372     0.000002921666     0.000000598194
      10       -0.000692598646    -0.000445408416     0.000002611985
      11        0.000008815710    -0.000007307441    -0.000005072926
      12        0.000000143990    -0.000007098887     0.000012965540
      13        0.001213860877     0.000778468932    -0.000008161282
      14        0.000005832333     0.000005307535     0.000000278361
      15       -0.000002385546    -0.000004940969     0.000006095796
      16       -0.001484524144    -0.000928958409    -0.000018983694
      17       -0.000007616421    -0.000000174314     0.000000066722
      18        0.000002457007     0.000004777760    -0.000006538013
      19        0.000003825262    -0.000002596981     0.000010948895
      20        0.000976005822     0.000593179274     0.000014960814
      21       -0.000000265469    -0.000001402366     0.000005113739
      22       -0.000000144216    -0.000003303339    -0.000002151790
      23       -0.000000887020    -0.000000717294     0.000001647355
      24       -0.000004174442     0.000003350991     0.000002586642
      25        0.000000131753     0.000000773790    -0.000001623609
      26       -0.000000572363    -0.000001163389    -0.000001223176
      27        0.000000546303    -0.000000745496     0.000001004432

  **** Optimization is complete! (in 7 steps) ****
    Final optimized geometry and variables:
    Molecular point group: c1

    Geometry (in Angstrom), charge = 0, multiplicity = 1:

    H            2.398518787656     1.020143743222    -2.146329858914
    O            2.509370905953     0.312318191227    -2.753243001680
    C            2.812739398454    -0.873240541732    -2.066524906231
    C            1.625701950081    -1.460504189764    -1.317866914695
    H            3.148351002111    -1.573382650173    -2.819598810385
    H            3.643691315313    -0.713210146327    -1.382257647420
    C            1.112904581511    -0.589284804155    -0.173735464338
    H            0.824224888614    -1.640636199773    -2.027928702218
    H            1.924108707398    -2.430003622339    -0.926036533792
    C           -0.040696953466    -1.231137289226     0.594933064287
    H            0.793895691875     0.371501441836    -0.565778160084
    H            1.928077266678    -0.386983953827     0.518691370747
    C           -0.593080232116    -0.369829006708     1.732170231798
    H           -0.845783628993    -1.470157382693    -0.095851809041
    H            0.299941689818    -2.178258740182     1.004096069851
    C           -1.362734099338     0.887039764970     1.274027866671
    H           -1.253938962355    -0.987530248521     2.331698224377
    H            0.223297714445    -0.087457539794     2.389816188684
    C           -2.799561228913     0.941746753684     1.788033582881
    H           -1.376036535117     0.938670631037     0.189449928541
    H           -0.842060656858     1.782034058806     1.600986145316
    C           -3.554248668152     2.185144656918     1.331430880374
    H           -3.331071490869     0.053833170674     1.455768141717
    H           -2.792095348056     0.902095555307     2.873947366486
    H           -3.607592018326     2.235231971754     0.248870790107
    H           -4.568954504629     2.191318899892     1.712723916384
    H           -3.065192387014     3.089327149351     1.678729044638

  Mulliken Charges: (a.u.)
   Center  Symbol    Alpha    Beta     Spin     Total
       1     H     0.39206  0.39206  0.00000  0.21587
       2     O     4.20577  4.20577  0.00000 -0.41155
       3     C     2.97993  2.97993  0.00000  0.04014
       4     C     3.08940  3.08940  0.00000 -0.17881
       5     H     0.44863  0.44863  0.00000  0.10273
       6     H     0.46947  0.46947  0.00000  0.06106
       7     C     3.10302  3.10302  0.00000 -0.20604
       8     H     0.45081  0.45081  0.00000  0.09839
       9     H     0.45511  0.45511  0.00000  0.08979
      10     C     3.09699  3.09699  0.00000 -0.19399
      11     H     0.45503  0.45503  0.00000  0.08994
      12     H     0.45330  0.45330  0.00000  0.09340
      13     C     3.10539  3.10539  0.00000 -0.21078
      14     H     0.45215  0.45215  0.00000  0.09570
      15     H     0.44805  0.44805  0.00000  0.10391
      16     C     3.09621  3.09621  0.00000 -0.19242
      17     H     0.44785  0.44785  0.00000  0.10429
      18     H     0.44881  0.44881  0.00000  0.10238
      19     C     3.08224  3.08224  0.00000 -0.16449
      20     H     0.45331  0.45331  0.00000  0.09339
      21     H     0.44952  0.44952  0.00000  0.10095
      22     C     3.15036  3.15036  0.00000 -0.30073
      23     H     0.45445  0.45445  0.00000  0.09109
      24     H     0.45337  0.45337  0.00000  0.09325
      25     H     0.45496  0.45496  0.00000  0.09009
      26     H     0.44841  0.44841  0.00000  0.10318
      27     H     0.45537  0.45537  0.00000  0.08926

   Total alpha = 37.00000, Total beta = 37.00000, Total charge = -0.00000

*** Psi4 exiting successfully. Buy a developer a beer!
