  ==> Input File <==

--------------------------------------------------------------------------
set {
	reference rhf
	basis cc-pvtz
}

set_num_threads( 4 )
memory 2 gb

molecule MOL {
0 1

H	 2.017776	 -3.567949	 1.171480
C	 2.230186	 -2.597194	 0.739477
C	 0.963156	 -1.756102	 0.630611
H	 2.969637	 -2.111714	 1.367617
H	 2.680647	 -2.760823	 -0.233830
C	 1.215950	 -0.382441	 0.027187
H	 0.515403	 -1.627901	 1.609819
H	 0.231904	 -2.284065	 0.023074
N	 0.000002	 0.398953	 -0.040851
H	 1.927370	 0.155571	 0.646536
H	 1.687267	 -0.498628	 -0.953345
C	 -1.215959	 -0.382435	 0.027143
H	 -0.000012	 1.086078	 0.683841
C	 -2.451944	 0.502410	 -0.038737
H	 -1.221867	 -1.069392	 -0.813828
H	 -1.259993	 -0.999709	 0.929424
C	 -3.752217	 -0.292550	 0.005776
H	 -2.407325	 1.093801	 -0.946480
H	 -2.431979	 1.206234	 0.790023
H	 -3.817783	 -0.982946	 -0.828547
H	 -4.612613	 0.364348	 -0.042306
H	 -3.830160	 -0.871666	 0.919868

	symmetry c1
}
set optking {
	frozen_dihedral = ("
		10 6 9 12
	")
}

ee = optimize('scf')
oeprop('DIPOLE', 'QUADRUPOLE', 'MULLIKEN_CHARGES')
f=open( 'psi4out.xyz', 'w' )
f.write( "22  " )
f.write( str(ee) + "\n" )
f.write( MOL.save_string_xyz() )
f.close()
--------------------------------------------------------------------------

    Molecular point group: c1
  Charge       = 0
  Multiplicity = 1
  Basis Set: CC-PVTZ
  Basis Set:
  @DF-RHF Final Energy:  -290.47336989956256
    Total Energy =                       -290.4733698995628401
    Molecular point group: c1
  Basis Set: CC-PVTZ
  Basis Set:
  Basis Set: CC-PVTZ
  Basis Set:
  @DF-RHF Final Energy:  -290.47327901692614
    Total Energy =                       -290.4732790169260284
  Basis Set: CC-PVTZ
  Basis Set:
  Basis Set: CC-PVTZ
  Basis Set:
  @DF-RHF Final Energy:  -290.47956899101138
    Total Energy =                       -290.4795689910116039
  Basis Set: CC-PVTZ
  Basis Set:
  Basis Set: CC-PVTZ
  Basis Set:
  @DF-RHF Final Energy:  -290.48071324299571
    Total Energy =                       -290.4807132429954208
  Basis Set: CC-PVTZ
  Basis Set:
  Basis Set: CC-PVTZ
  Basis Set:
  @DF-RHF Final Energy:  -290.48089908885083
    Total Energy =                       -290.4808990888508333
  Basis Set: CC-PVTZ
  Basis Set:
  Basis Set: CC-PVTZ
  Basis Set:
  @DF-RHF Final Energy:  -290.48096217997659
    Total Energy =                       -290.4809621799767569
  Basis Set: CC-PVTZ
  Basis Set:
  Basis Set: CC-PVTZ
  Basis Set:
  @DF-RHF Final Energy:  -290.48096679897446
    Total Energy =                       -290.4809667989743502
  Basis Set: CC-PVTZ
  Basis Set:
  Charge       = 0
  Multiplicity = 1
  Basis Set: CC-PVTZ
  Basis Set:

    Orbital Energies (a.u.)
    -----------------------

    Doubly Occupied:

       1A    -15.525046     2A    -11.237268     3A    -11.235137
       4A    -11.212381     5A    -11.210516     6A    -11.208500
       7A    -11.206764     8A     -1.199789     9A     -1.057832
      10A     -1.028471    11A     -0.930075    12A     -0.874491
      13A     -0.813745    14A     -0.782920    15A     -0.670025
      16A     -0.627884    17A     -0.619716    18A     -0.609172
      19A     -0.573952    20A     -0.557899    21A     -0.539487
      22A     -0.530842    23A     -0.502712    24A     -0.491639
      25A     -0.482793    26A     -0.472856    27A     -0.463426
      28A     -0.459630    29A     -0.352362

  @DF-RHF Final Energy:  -290.48096706738403

   => Energetics <=

    Nuclear Repulsion Energy =            318.2896021700791493
    One-Electron Energy =               -1022.5864796462755066
    Two-Electron Energy =                 413.8159104088126696
    DFT Exchange-Correlation Energy =       0.0000000000000000
    Empirical Dispersion Energy =           0.0000000000000000
    PCM Polarization Energy =               0.0000000000000000
    EFP Energy =                            0.0000000000000000
    Total Energy =                       -290.4809670673837445
    Molecular point group: c1
  Basis Set: CC-PVTZ
  Basis Set:

  -Total Gradient:
     Atom            X                  Y                   Z
    ------   -----------------  -----------------  -----------------
       1        0.000000886183     0.000004773796     0.000010192917
       2       -0.000005888357     0.000014923583     0.000026772371
       3        0.000012216379    -0.000049023848    -0.000070003475
       4        0.000012699014     0.000001124040    -0.000002760701
       5       -0.000011455134    -0.000000421889     0.000003152140
       6        0.002342981874     0.003505506404    -0.003321173922
       7       -0.000020460754     0.000006490544     0.000002879195
       8        0.000011779236     0.000006650041     0.000002289279
       9       -0.000374554808    -0.001189034456    -0.005811551083
      10       -0.001934060252    -0.002701385577     0.004540503928
      11        0.000006439742    -0.000016253494     0.000001807908
      12       -0.000018142612     0.000419634423     0.004613864140
      13       -0.000018631510     0.000009797628     0.000004394694
      14        0.000001533707    -0.000005732161     0.000001712144
      15       -0.000005882259    -0.000004523293    -0.000008722668
      16        0.000005758376    -0.000007020269     0.000004710782
      17       -0.000000813813     0.000001758236     0.000003648207
      18       -0.000000127133     0.000000697879    -0.000003708411
      19       -0.000003478312     0.000000999602     0.000001253375
      20        0.000001464464     0.000002774548     0.000000136956
      21       -0.000001361659    -0.000000664435     0.000001081609
      22       -0.000000902367    -0.000001071302    -0.000000479385

  **** Optimization is complete! (in 8 steps) ****
    Final optimized geometry and variables:
    Molecular point group: c1

    Geometry (in Angstrom), charge = 0, multiplicity = 1:

    H            2.847943406696    -2.881660370406     0.924036958878
    C            2.905666493084    -1.883483574286     0.506260661134
    C            1.530820596469    -1.223500661013     0.466494843346
    H            3.600234856606    -1.311574081177     1.112777795374
    H            3.329341003928    -1.966381021680    -0.489015282891
    C            1.603967973868     0.184328107280    -0.129484567943
    H            1.125317187961    -1.175395191017     1.472645099951
    H            0.856144307287    -1.845151239327    -0.111174192203
    N            0.360925806117     0.948951900568    -0.204027500728
    H            2.291914492618     0.742600645645     0.496412439390
    H            2.045422682045     0.116464173303    -1.119792181835
    C           -0.906765722640     0.249298490063    -0.154956626255
    H            0.364666712663     1.654573935255     0.498472200558
    C           -2.061804081201     1.232230948218    -0.286513897257
    H           -0.950180502587    -0.453332581765    -0.981473761669
    H           -1.041017081264    -0.334291862741     0.756111085678
    C           -3.425293189514     0.550515611135    -0.257610666394
    H           -1.941645017536     1.788728462899    -1.209133084302
    H           -2.005876137214     1.958268402955     0.521452514131
    H           -3.525869952648    -0.158936677618    -1.072272458770
    H           -4.225483036056     1.275125508175    -0.351891654114
    H           -3.577774816375     0.010245339933     0.670831470227

  Mulliken Charges: (a.u.)
   Center  Symbol    Alpha    Beta     Spin     Total
       1     H     0.44718  0.44718  0.00000  0.10564
       2     C     3.15256  3.15256  0.00000 -0.30512
       3     C     3.09503  3.09503  0.00000 -0.19007
       4     H     0.45530  0.45530  0.00000  0.08940
       5     H     0.45465  0.45465  0.00000  0.09070
       6     C     3.02967  3.02967  0.00000 -0.05934
       7     H     0.45426  0.45426  0.00000  0.09148
       8     H     0.45027  0.45027  0.00000  0.09947
       9     N     3.64251  3.64251  0.00000 -0.28501
      10     H     0.46078  0.46078  0.00000  0.07845
      11     H     0.45573  0.45573  0.00000  0.08853
      12     C     3.02570  3.02570  0.00000 -0.05140
      13     H     0.44470  0.44470  0.00000  0.11059
      14     C     3.08137  3.08137  0.00000 -0.16274
      15     H     0.45933  0.45933  0.00000  0.08135
      16     H     0.46927  0.46927  0.00000  0.06146
      17     C     3.15364  3.15364  0.00000 -0.30727
      18     H     0.44868  0.44868  0.00000  0.10263
      19     H     0.46029  0.46029  0.00000  0.07942
      20     H     0.45486  0.45486  0.00000  0.09029
      21     H     0.44770  0.44770  0.00000  0.10460
      22     H     0.45651  0.45651  0.00000  0.08697

   Total alpha = 29.00000, Total beta = 29.00000, Total charge =  0.00000
