  ==> Input File <==

--------------------------------------------------------------------------
set {
	reference rhf
	basis 6-31G*
}

set_num_threads( 4 )
memory 2 gb

molecule MOL {
0 1

H	 -2.005017	 0.114994	 0.254304
N	 -1.172117	 -0.314371	 -0.100254
C	 -0.024542	 0.565565	 0.069209
H	 -1.041704	 -1.164084	 0.415554
C	 1.271298	 -0.229563	 -0.014192
H	 -0.049409	 1.297310	 -0.731596
H	 -0.046881	 1.125219	 1.006750
H	 1.332152	 -0.753033	 -0.961461
H	 2.134169	 0.422483	 0.080702
H	 1.326077	 -0.968298	 0.781395

	symmetry c1
}
set optking {
	frozen_dihedral = ("
		1 2 3 6
	")
}

ee = optimize('scf')
oeprop('DIPOLE', 'QUADRUPOLE', 'MULLIKEN_CHARGES')
f=open( 'psi4out.xyz', 'w' )
f.write( "10  " )
f.write( str(ee) + "\n" )
f.write( MOL.save_string_xyz() )
f.close()
--------------------------------------------------------------------------

    Molecular point group: c1
  Charge       = 0
  Multiplicity = 1
  Basis Set: 6-31G*
  Basis Set:
  @DF-RHF Final Energy:  -134.24634060094110
    Total Energy =                       -134.2463406009410392
    Molecular point group: c1
  Basis Set: 6-31G*
  Basis Set:
  Basis Set: 6-31G*
  Basis Set:
  @DF-RHF Final Energy:  -134.24646231324510
    Total Energy =                       -134.2464623132450754
  Basis Set: 6-31G*
  Basis Set:
  Basis Set: 6-31G*
  Basis Set:
  @DF-RHF Final Energy:  -134.24647491469662
    Total Energy =                       -134.2464749146966483
  Basis Set: 6-31G*
  Basis Set:
  Charge       = 0
  Multiplicity = 1
  Basis Set: 6-31G*
  Basis Set:

    Orbital Energies (a.u.)
    -----------------------

    Doubly Occupied:

       1A    -15.533130     2A    -11.242576     3A    -11.210488
       4A     -1.176723     5A     -0.988807     6A     -0.826418
       7A     -0.656079     8A     -0.632402     9A     -0.586689
      10A     -0.519666    11A     -0.502826    12A     -0.491948
      13A     -0.383634

  @DF-RHF Final Energy:  -134.24647572334089

   => Energetics <=

    Nuclear Repulsion Energy =             83.4038793337967235
    One-Electron Energy =                -345.7979393539287685
    Two-Electron Energy =                 128.1475842967911376
    DFT Exchange-Correlation Energy =       0.0000000000000000
    Empirical Dispersion Energy =           0.0000000000000000
    PCM Polarization Energy =               0.0000000000000000
    EFP Energy =                            0.0000000000000000
    Total Energy =                       -134.2464757233408932
    Molecular point group: c1
  Basis Set: 6-31G*
  Basis Set:

  -Total Gradient:
     Atom            X                  Y                   Z
    ------   -----------------  -----------------  -----------------
       1        0.000495496236    -0.001297240118     0.002940246469
       2       -0.000224791530     0.001288062885    -0.004093322509
       3       -0.002006891373     0.001866541503     0.002849995678
       4        0.000021224529    -0.000031632822     0.000013168706
       5        0.000006716716    -0.000010489515    -0.000004542929
       6        0.001650712075    -0.001831934287    -0.001678654116
       7        0.000017912764     0.000027053688    -0.000004775080
       8        0.000017530532    -0.000013867965    -0.000005477621
       9        0.000013085607     0.000005992541    -0.000007594663
      10        0.000009004443    -0.000002485909    -0.000009043934

  **** Optimization is complete! (in 4 steps) ****
    Final optimized geometry and variables:
    Molecular point group: c1

    Geometry (in Angstrom), charge = 0, multiplicity = 1:

    H           -2.014976929715     0.120061502004     0.229757378982
    N           -1.177021712644    -0.310040651491    -0.112848118771
    C           -0.030496389547     0.571600052322     0.076506715867
    H           -1.058434653595    -1.143866778202     0.432083960565
    C            1.267870797426    -0.220728304560    -0.015933940776
    H           -0.037158157302     1.307672869289    -0.720983261095
    H           -0.057069484753     1.112942060391     1.023040783568
    H            1.318692962229    -0.753678032667    -0.959314973367
    H            2.128642913790     0.436428847601     0.054514329884
    H            1.341050206060    -0.949516849722     0.787623414880

  Mulliken Charges: (a.u.)
   Center  Symbol    Alpha    Beta     Spin     Total
       1     H     0.33355  0.33355  0.00000  0.33290
       2     N     3.91884  3.91884  0.00000 -0.83768
       3     C     3.05855  3.05855  0.00000 -0.11709
       4     H     0.33628  0.33628  0.00000  0.32743
       5     C     3.24622  3.24622  0.00000 -0.49244
       6     H     0.41850  0.41850  0.00000  0.16301
       7     H     0.43309  0.43309  0.00000  0.13382
       8     H     0.41112  0.41112  0.00000  0.17776
       9     H     0.41879  0.41879  0.00000  0.16242
      10     H     0.42507  0.42507  0.00000  0.14986

   Total alpha = 13.00000, Total beta = 13.00000, Total charge =  0.00000
