  ==> Input File <==

--------------------------------------------------------------------------
set {
	reference rhf
	basis cc-pvtz
}

set_num_threads( 4 )
memory 2 gb

molecule MOL {
0 1

H	 -3.401682	 -1.036167	 0.000000
O	 -3.113760	 -0.140926	 0.000000
C	 -1.775087	 -0.058754	 0.000000
C	 -1.100906	 1.004015	 -0.588589
C	 -1.071056	 -1.081201	 0.614105
H	 -1.654070	 1.793491	 -1.063104
C	 0.273018	 1.038840	 -0.560058
H	 -1.610303	 -1.891528	 1.061993
C	 0.304495	 -1.031340	 0.634029
H	 0.804916	 1.853240	 -1.010554
C	 0.992889	 0.021839	 0.051469
H	 0.851705	 -1.824028	 1.110185
C	 2.466900	 0.053658	 0.085273
O	 3.139541	 0.909903	 -0.384358
H	 2.932064	 -0.798356	 0.592713

	symmetry c1
}
set optking {
	frozen_dihedral = ("
		5 3 2 1
	")
}

ee = optimize('scf')
oeprop('DIPOLE', 'QUADRUPOLE', 'MULLIKEN_CHARGES')
f=open( 'psi4out.xyz', 'w' )
f.write( "15  " )
f.write( str(ee) + "\n" )
f.write( MOL.save_string_xyz() )
f.close()
--------------------------------------------------------------------------

    Molecular point group: c1
  Charge       = 0
  Multiplicity = 1
  Basis Set: CC-PVTZ
  Basis Set:
  @DF-RHF Final Energy:  -418.43916890380541
    Total Energy =                       -418.4391689038055802
    Molecular point group: c1
  Basis Set: CC-PVTZ
  Basis Set:
  Basis Set: CC-PVTZ
  Basis Set:
  @DF-RHF Final Energy:  -418.44091784105848
    Total Energy =                       -418.4409178410584218
  Basis Set: CC-PVTZ
  Basis Set:
  Basis Set: CC-PVTZ
  Basis Set:
  @DF-RHF Final Energy:  -418.44103899208346
    Total Energy =                       -418.4410389920843727
  Basis Set: CC-PVTZ
  Basis Set:
  Basis Set: CC-PVTZ
  Basis Set:
  @DF-RHF Final Energy:  -418.44005181927531
    Total Energy =                       -418.4400518192746858
  Basis Set: CC-PVTZ
  Basis Set:
  Basis Set: CC-PVTZ
  Basis Set:
  @DF-RHF Final Energy:  -418.44107255573022
    Total Energy =                       -418.4410725557299884
  Basis Set: CC-PVTZ
  Basis Set:
  Charge       = 0
  Multiplicity = 1
  Basis Set: CC-PVTZ
  Basis Set:

    Orbital Energies (a.u.)
    -----------------------

    Doubly Occupied:

       1A    -20.600927     2A    -20.546644     3A    -11.323460
       4A    -11.320376     5A    -11.260094     6A    -11.251862
       7A    -11.242420     8A    -11.238433     9A    -11.236873
      10A     -1.433117    11A     -1.402920    12A     -1.175371
      13A     -1.046378    14A     -1.040432    15A     -0.896009
      16A     -0.861059    17A     -0.805168    18A     -0.760718
      19A     -0.700573    20A     -0.689146    21A     -0.644091
      22A     -0.630142    23A     -0.622131    24A     -0.610436
      25A     -0.575800    26A     -0.559957    27A     -0.554858
      28A     -0.508383    29A     -0.490143    30A     -0.422273
      31A     -0.361406    32A     -0.334999

  @DF-RHF Final Energy:  -418.44107655459089

   => Energetics <=

    Nuclear Repulsion Energy =            402.1578295307035091
    One-Electron Energy =               -1366.9046143807665885
    Two-Electron Energy =                 546.3057082954725274
    DFT Exchange-Correlation Energy =       0.0000000000000000
    Empirical Dispersion Energy =           0.0000000000000000
    PCM Polarization Energy =               0.0000000000000000
    EFP Energy =                            0.0000000000000000
    Total Energy =                       -418.4410765545904951
    Molecular point group: c1
  Basis Set: CC-PVTZ
  Basis Set:

  -Total Gradient:
     Atom            X                  Y                   Z
    ------   -----------------  -----------------  -----------------
       1        0.000031171654    -0.000100318633    -0.003080633292
       2       -0.000032426782     0.000777343804     0.004926266243
       3        0.000136574766    -0.001644371495    -0.003910603738
       4       -0.000358427805    -0.000131203202     0.000041645702
       5        0.000221617929     0.001137918335     0.002031538403
       6       -0.000001659040    -0.000020254256     0.000007655723
       7        0.000395091707    -0.000191265327     0.000117948817
       8        0.000000675764    -0.000013609782     0.000000565424
       9       -0.000326227755    -0.000197739627     0.000043020022
      10       -0.000022570792     0.000016827071    -0.000005940620
      11       -0.000028896870     0.000382822035    -0.000252832223
      12        0.000009235704     0.000014134269     0.000004649657
      13        0.000039568254     0.000044268819     0.000171829174
      14       -0.000053178030    -0.000031897072    -0.000055170456
      15       -0.000010548711    -0.000042654939    -0.000039938838

  **** Optimization is complete! (in 6 steps) ****
    Final optimized geometry and variables:
    Molecular point group: c1

    Geometry (in Angstrom), charge = 0, multiplicity = 1:

    H           -3.463640820936    -1.031738332158     0.011725318247
    O           -3.112033950134    -0.159368230529    -0.004734181746
    C           -1.766179053417    -0.173959485001     0.016391573615
    C           -1.103935629855     0.900638931311    -0.565088930196
    C           -1.053709039025    -1.182383692586     0.639264762141
    H           -1.680914943957     1.673228877220    -1.032743652332
    C            0.266738905746     0.950805094411    -0.531256782718
    H           -1.572101300286    -1.998372479874     1.106693816974
    C            0.325706844730    -1.123591682671     0.656736691219
    H            0.791613391825     1.771879204302    -0.977914659279
    C            0.998850361521    -0.064314981049     0.077448822269
    H            0.879956922045    -1.909286781054     1.136242550222
    C            2.473564476174    -0.019457245464     0.113360779470
    O            3.138559583948     0.842624027396    -0.354969311101
    H            2.944803893469    -0.868681565592     0.620376492835

  Mulliken Charges: (a.u.)
   Center  Symbol    Alpha    Beta     Spin     Total
       1     H     0.38436  0.38436  0.00000  0.23127
       2     O     4.17159  4.17159  0.00000 -0.34317
       3     C     2.85117  2.85117  0.00000  0.29766
       4     C     3.10736  3.10736  0.00000 -0.21471
       5     C     3.12906  3.12906  0.00000 -0.25813
       6     H     0.41436  0.41436  0.00000  0.17127
       7     C     3.06124  3.06124  0.00000 -0.12248
       8     H     0.42763  0.42763  0.00000  0.14475
       9     C     3.07479  3.07479  0.00000 -0.14957
      10     H     0.40723  0.40723  0.00000  0.18553
      11     C     3.00070  3.00070  0.00000 -0.00141
      12     H     0.42126  0.42126  0.00000  0.15748
      13     C     2.91109  2.91109  0.00000  0.17782
      14     O     4.17750  4.17750  0.00000 -0.35499
      15     H     0.46066  0.46066  0.00000  0.07867

   Total alpha = 32.00000, Total beta = 32.00000, Total charge = -0.00000
