                              Psi4 1.0.54 Driver

  ==> Input File <==

--------------------------------------------------------------------------
set {
	reference rhf
	basis cc-pvtz
}

set_num_threads( 4 )
memory 2 gb

molecule MOL {
0 1

H	 -3.436473	 1.252944	 -1.023892
O	 -3.458596	 0.315260	 -0.960865
C	 -3.176635	 -0.080824	 0.355601
C	 -1.763371	 0.265266	 0.799691
H	 -3.321825	 -1.153438	 0.379502
H	 -3.895468	 0.357385	 1.043382
C	 -0.853993	 -0.948449	 0.967774
H	 -1.325847	 0.955390	 0.079854
H	 -1.828496	 0.808719	 1.739268
C	 0.568600	 -0.580906	 1.381430
H	 -0.829906	 -1.508320	 0.039400
H	 -1.285418	 -1.612805	 1.712763
C	 1.472197	 -1.800406	 1.552836
H	 0.988865	 0.090558	 0.638864
H	 0.540523	 -0.023633	 2.315515
C	 2.886713	 -1.489466	 2.045084
H	 1.532143	 -2.337504	 0.609023
H	 1.004705	 -2.481750	 2.258415
C	 3.744241	 -0.695148	 1.062817
H	 3.387761	 -2.427633	 2.263190
H	 2.828045	 -0.952072	 2.988050
H	 3.816000	 -1.205836	 0.107765
H	 4.750777	 -0.569764	 1.445448
H	 3.341170	 0.293547	 0.879452

	symmetry c1
}
set optking {
	frozen_dihedral = ("
		7 4 3 2
	")
}

ee,wfn = optimize('scf', return_wfn=True)
oeprop( wfn, 'DIPOLE', 'QUADRUPOLE', 'MULLIKEN_CHARGES')
f=open( 'psi4out.xyz', 'w' )
f.write( "24  " )
f.write( str(ee) + "\n" )
f.write( MOL.save_string_xyz() )
f.close()
--------------------------------------------------------------------------

    Molecular point group: c1
  Charge       = 0
  Multiplicity = 1
  Basis Set: CC-PVTZ
  Basis Set:
  @DF-RHF Final Energy:  -349.37446268291802
    Total Energy =                       -349.3744626829178515
    Molecular point group: c1
  Basis Set: CC-PVTZ
  Basis Set:
  Basis Set: CC-PVTZ
  Basis Set:
  @DF-RHF Final Energy:  -349.37475366976474
    Total Energy =                       -349.3747536697646296
  Basis Set: CC-PVTZ
  Basis Set:
  Basis Set: CC-PVTZ
  Basis Set:
  @DF-RHF Final Energy:  -349.37481147188436
    Total Energy =                       -349.3748114718839020
  Basis Set: CC-PVTZ
  Basis Set:
  Charge       = 0
  Multiplicity = 1
  Basis Set: CC-PVTZ
  Basis Set:

    Orbital Energies (a.u.)
    -----------------------

    Doubly Occupied:

       1A    -20.544682     2A    -11.264987     3A    -11.214153
       4A    -11.213470     5A    -11.213054     6A    -11.211512
       7A    -11.210841     8A    -11.205788     9A     -1.362356
      10A     -1.091372    11A     -1.049620    12A     -0.985259
      13A     -0.914620    14A     -0.851827    15A     -0.805216
      16A     -0.777816    17A     -0.687935    18A     -0.648166
      19A     -0.625416    20A     -0.619438    21A     -0.597952
      22A     -0.585438    23A     -0.565606    24A     -0.534030
      25A     -0.519964    26A     -0.517448    27A     -0.491106
      28A     -0.479322    29A     -0.466244    30A     -0.462084
      31A     -0.457889    32A     -0.453156    33A     -0.418504

  @DF-RHF Final Energy:  -349.37481182340832

   => Energetics <=

    Nuclear Repulsion Energy =            381.5444959108922376
    One-Electron Energy =               -1229.7460644206494180
    Two-Electron Energy =                 498.8267566863488014
    DFT Exchange-Correlation Energy =       0.0000000000000000
    Empirical Dispersion Energy =           0.0000000000000000
    PCM Polarization Energy =               0.0000000000000000
    EFP Energy =                            0.0000000000000000
    Total Energy =                       -349.3748118234083790
    Molecular point group: c1
  Basis Set: CC-PVTZ
  Basis Set:

  -Total Gradient:
     Atom            X                  Y                   Z
    ------   -----------------  -----------------  -----------------
       1        0.000015506989    -0.000012697016     0.000035744099
       2       -0.000539763120     0.001336955063     0.000549755503
       3        0.000541075754    -0.001889934015    -0.000219148470
       4        0.000386607906     0.000675415539    -0.001750305615
       5       -0.000000210801     0.000024491273    -0.000049780106
       6       -0.000020322741    -0.000005657184    -0.000008721381
       7       -0.000428757961    -0.000094514976     0.001454999894
       8        0.000007930134     0.000000616820     0.000011645217
       9        0.000009223443    -0.000022745716     0.000005950113
      10        0.000011473541     0.000003530356    -0.000025177331
      11       -0.000023979483    -0.000032323055    -0.000007236573
      12        0.000003147482     0.000014987903     0.000010267732
      13        0.000010012183     0.000013958985    -0.000005059790
      14        0.000021909739     0.000014415722     0.000004922201
      15       -0.000003858976    -0.000013696192    -0.000005209253
      16        0.000010500695    -0.000021909975    -0.000008813211
      17        0.000004675630    -0.000003751161     0.000005088855
      18       -0.000002345404     0.000008651075     0.000000080914
      19       -0.000003915345     0.000002614015     0.000002782067
      20        0.000009361524     0.000000196936     0.000002130042
      21       -0.000002321333    -0.000003559708    -0.000003469028
      22        0.000001125276    -0.000000546928     0.000002487762
      23       -0.000001403820     0.000001968703     0.000000702154
      24       -0.000005671314     0.000003533539    -0.000003635791

  **** Optimization is complete! (in 4 steps) ****
    Final optimized geometry and variables:
    Molecular point group: c1

    Geometry (in Angstrom), charge = 0, multiplicity = 1:

    H           -3.343233786503     1.849235993271    -1.871202264194
    O           -3.353105116114     0.911398245228    -1.814493341948
    C           -3.064349166800     0.511473742886    -0.499840201119
    C           -1.637358695667     0.867117177054    -0.051915074986
    H           -3.208520863012    -0.560031015714    -0.483827021214
    H           -3.792178303773     0.940446205717     0.183060242426
    C           -0.723875325646    -0.346028654518     0.107795770660
    H           -1.210735865390     1.548015303256    -0.781485168590
    H           -1.672355075827     1.406314352949     0.890331095774
    C            0.699611279711     0.017019714577     0.520149330018
    H           -0.699998601627    -0.897525809288    -0.828683470304
    H           -1.152390132684    -1.018388224097     0.847139583573
    C            1.605155252609    -1.203108407298     0.677077107139
    H            1.115887233923     0.696535876085    -0.216960539971
    H            0.672499221185     0.564765164428     1.459811316306
    C            3.020620883037    -0.894796109142     1.168406705008
    H            1.663716034874    -1.730765581379    -0.272140491093
    H            1.140698552611    -1.892008398162     1.377424203251
    C            3.873147600626    -0.087184100290     0.192656486998
    H            3.524339842574    -1.834343955368     1.373999027117
    H            2.963692318580    -0.368642693670     2.117788413993
    H            3.942210224306    -0.586005192088    -0.768795107836
    H            4.880830939167     0.035157931507     0.573161399306
    H            3.467858696466     0.902971498128     0.022738299647

  Mulliken Charges: (a.u.)
   Center  Symbol    Alpha    Beta     Spin     Total
       1     H     0.39438  0.39438  0.00000  0.21124
       2     O     4.20353  4.20353  0.00000 -0.40706
       3     C     2.97211  2.97211  0.00000  0.05578
       4     C     3.09474  3.09474  0.00000 -0.18948
       5     H     0.45782  0.45782  0.00000  0.08437
       6     H     0.46669  0.46669  0.00000  0.06662
       7     C     3.09585  3.09585  0.00000 -0.19169
       8     H     0.45712  0.45712  0.00000  0.08577
       9     H     0.45428  0.45428  0.00000  0.09144
      10     C     3.09359  3.09359  0.00000 -0.18718
      11     H     0.44884  0.44884  0.00000  0.10232
      12     H     0.45382  0.45382  0.00000  0.09236
      13     C     3.09479  3.09479  0.00000 -0.18958
      14     H     0.45184  0.45184  0.00000  0.09633
      15     H     0.45547  0.45547  0.00000  0.08906
      16     C     3.09041  3.09041  0.00000 -0.18082
      17     H     0.45337  0.45337  0.00000  0.09326
      18     H     0.45008  0.45008  0.00000  0.09984
      19     C     3.15238  3.15238  0.00000 -0.30476
      20     H     0.44852  0.44852  0.00000  0.10296
      21     H     0.45517  0.45517  0.00000  0.08966
      22     H     0.45457  0.45457  0.00000  0.09086
      23     H     0.44659  0.44659  0.00000  0.10682
      24     H     0.45406  0.45406  0.00000  0.09189

   Total alpha = 33.00000, Total beta = 33.00000, Total charge = -0.00000

*** Psi4 exiting successfully. Buy a developer a beer!
