  ==> Input File <==

--------------------------------------------------------------------------
set {
	reference rhf
	basis 6-31G*
}

set_num_threads( 4 )
memory 2 gb

molecule MOL {
0 1

H	 -2.365627	 -1.312883	 -0.379134
C	 -1.358347	 -1.274295	 0.019669
C	 -0.681945	 0.000119	 -0.470601
H	 -0.826096	 -2.155117	 -0.321105
H	 -1.409554	 -1.292283	 1.100109
C	 -1.357790	 1.274691	 0.020220
N	 0.739525	 -0.000142	 0.006128
H	 -0.594190	 0.000341	 -1.545128
H	 -2.364980	 1.313977	 -0.378631
H	 -0.825080	 2.155361	 -0.320114
H	 -1.409060	 1.292170	 1.100671
O	 1.260953	 -1.057581	 0.180815
O	 1.259240	 1.060468	 0.180495

	symmetry c1
}
set optking {
	frozen_dihedral = ("
		12 7 3 8
	")
}

ee = optimize('scf')
oeprop('DIPOLE', 'QUADRUPOLE', 'MULLIKEN_CHARGES')
f=open( 'psi4out.xyz', 'w' )
f.write( "13  " )
f.write( str(ee) + "\n" )
f.write( MOL.save_string_xyz() )
f.close()
--------------------------------------------------------------------------

    Molecular point group: c1
  Charge       = 0
  Multiplicity = 1
  Basis Set: 6-31G*
  Basis Set:
  @DF-RHF Final Energy:  -321.73600916919679
    Total Energy =                       -321.7360091691969046
    Molecular point group: c1
  Basis Set: 6-31G*
  Basis Set:
  Basis Set: 6-31G*
  Basis Set:
  @DF-RHF Final Energy:  -321.73336105422197
    Total Energy =                       -321.7333610542219731
  Basis Set: 6-31G*
  Basis Set:
  Basis Set: 6-31G*
  Basis Set:
  @DF-RHF Final Energy:  -321.73465895157176
    Total Energy =                       -321.7346589515718165
  Basis Set: 6-31G*
  Basis Set:
  Basis Set: 6-31G*
  Basis Set:
  @DF-RHF Final Energy:  -321.73677961815144
    Total Energy =                       -321.7367796181516724
  Basis Set: 6-31G*
  Basis Set:
  Basis Set: 6-31G*
  Basis Set:
  @DF-RHF Final Energy:  -321.73700564001808
    Total Energy =                       -321.7370056400180260
  Basis Set: 6-31G*
  Basis Set:
  Basis Set: 6-31G*
  Basis Set:
  @DF-RHF Final Energy:  -321.73702250100393
    Total Energy =                       -321.7370225010038780
  Basis Set: 6-31G*
  Basis Set:
  Charge       = 0
  Multiplicity = 1
  Basis Set: 6-31G*
  Basis Set:

    Orbital Energies (a.u.)
    -----------------------

    Doubly Occupied:

       1A    -20.599664     2A    -20.599258     3A    -15.844700
       4A    -11.308855     5A    -11.241397     6A    -11.241097
       7A     -1.629552     8A     -1.414279     9A     -1.141043
      10A     -0.967706    11A     -0.959229    12A     -0.812656
      13A     -0.762912    14A     -0.725064    15A     -0.719638
      16A     -0.638704    17A     -0.596600    18A     -0.585245
      19A     -0.571220    20A     -0.522185    21A     -0.521803
      22A     -0.479800    23A     -0.471846    24A     -0.447624

  @DF-RHF Final Energy:  -321.73702330454205

   => Energetics <=

    Nuclear Repulsion Energy =            256.6576794740847163
    One-Electron Energy =                -947.1852545171200290
    Two-Electron Energy =                 368.7905517384933205
    DFT Exchange-Correlation Energy =       0.0000000000000000
    Empirical Dispersion Energy =           0.0000000000000000
    PCM Polarization Energy =               0.0000000000000000
    EFP Energy =                            0.0000000000000000
    Total Energy =                       -321.7370233045419923
    Molecular point group: c1
  Basis Set: 6-31G*
  Basis Set:

  -Total Gradient:
     Atom            X                  Y                   Z
    ------   -----------------  -----------------  -----------------
       1        0.000014971958     0.000007594518    -0.000001957917
       2        0.000050902517     0.000012605352     0.000001650537
       3        0.000054106747     0.000167942817    -0.000007439209
       4        0.000018131566    -0.000040161310    -0.000002291833
       5        0.000006820086     0.000005450964    -0.000003271889
       6       -0.000064334635     0.000057787805    -0.000037396936
       7       -0.000067054089    -0.000045516704     0.000162358072
       8       -0.000005568745    -0.000125546547     0.000008186442
       9       -0.000006877349     0.000006409577     0.000006026058
      10       -0.000027536025    -0.000003223763     0.000012225113
      11        0.000005252507    -0.000017013416    -0.000006056957
      12       -0.000031579523    -0.000066395465    -0.000122540579
      13        0.000052764977     0.000040066176    -0.000009490904

  **** Optimization is complete! (in 7 steps) ****
    Final optimized geometry and variables:
    Molecular point group: c1

    Geometry (in Angstrom), charge = 0, multiplicity = 1:

    H           -2.400144509865    -1.260404187951    -0.371078835040
    C           -1.384995717045    -1.273797895895     0.009033999962
    C           -0.684834561835    -0.000097571273    -0.443148138092
    H           -0.887286294763    -2.156978040335    -0.361692590455
    H           -1.427340806397    -1.329583105582     1.090740233293
    C           -1.385877787639     1.271770272947     0.014082890829
    N            0.750057756028     0.000482366343     0.023961387354
    H           -0.579533866685     0.001720535462    -1.522041562582
    H           -2.401147903265     1.259902276983    -0.365650751649
    H           -0.888210895595     2.156386498348    -0.352897132825
    H           -1.428318464555     1.322276872866     1.096173424050
    O            1.277722479226    -1.055080906233     0.193734435844
    O            1.289075177178     1.056673858396     0.149964996624

  Mulliken Charges: (a.u.)
   Center  Symbol    Alpha    Beta     Spin     Total
       1     H     0.41139  0.41139  0.00000  0.17722
       2     C     3.24434  3.24434  0.00000 -0.48868
       3     C     3.02905  3.02905  0.00000 -0.05810
       4     H     0.39345  0.39345  0.00000  0.21310
       5     H     0.40723  0.40723  0.00000  0.18555
       6     C     3.24484  3.24484  0.00000 -0.48968
       7     N     3.21607  3.21607  0.00000  0.56785
       8     H     0.38473  0.38473  0.00000  0.23054
       9     H     0.41112  0.41112  0.00000  0.17775
      10     H     0.39293  0.39293  0.00000  0.21414
      11     H     0.40742  0.40742  0.00000  0.18516
      12     O     4.22864  4.22864  0.00000 -0.45727
      13     O     4.22879  4.22879  0.00000 -0.45759

   Total alpha = 24.00000, Total beta = 24.00000, Total charge = -0.00000
