                              Psi4 1.0.54 Driver

  ==> Input File <==

--------------------------------------------------------------------------
set {
	reference rhf
	basis cc-pvtz
}

set_num_threads( 4 )
memory 2 gb

molecule MOL {
0 1

H	 -0.049733	 2.156262	 -1.212015
C	 0.391293	 2.017781	 -0.216037
C	 0.692262	 0.592428	 0.156232
O	 0.591746	 2.954142	 0.477275
C	 -0.554654	 -0.292621	 0.086567
H	 1.128695	 0.581363	 1.146303
H	 1.436778	 0.222921	 -0.545935
C	 -1.846385	 0.513195	 -0.016346
H	 -0.473986	 -0.956115	 -0.769708
H	 -0.597929	 -0.929215	 0.966651
C	 -3.089953	 -0.365049	 -0.098564
H	 -1.798267	 1.154820	 -0.891143
H	 -1.925398	 1.173265	 0.842889
H	 -3.055079	 -1.012299	 -0.968245
H	 -3.988403	 0.236438	 -0.170014
H	 -3.183055	 -0.995885	 0.779079

	symmetry c1
}
set optking {
	frozen_dihedral = ("
		6 3 5 9
	")
}

ee,wfn = optimize('scf', return_wfn=True)
oeprop( wfn, 'DIPOLE', 'QUADRUPOLE', 'MULLIKEN_CHARGES')
f=open( 'psi4out.xyz', 'w' )
f.write( "16  " )
f.write( str(ee) + "\n" )
f.write( MOL.save_string_xyz() )
f.close()
--------------------------------------------------------------------------

    Molecular point group: c1
  Charge       = 0
  Multiplicity = 1
  Basis Set: CC-PVTZ
  Basis Set:
  @DF-RHF Final Energy:  -270.10794823705885
    Total Energy =                       -270.1079482370590767
    Molecular point group: c1
  Basis Set: CC-PVTZ
  Basis Set:
  Basis Set: CC-PVTZ
  Basis Set:
  @DF-RHF Final Energy:  -270.11108298866372
    Total Energy =                       -270.1110829886637248
  Basis Set: CC-PVTZ
  Basis Set:
  Basis Set: CC-PVTZ
  Basis Set:
  @DF-RHF Final Energy:  -270.11098797031269
    Total Energy =                       -270.1109879703125216
  Basis Set: CC-PVTZ
  Basis Set:
  Basis Set: CC-PVTZ
  Basis Set:
  @DF-RHF Final Energy:  -270.11068949520381
    Total Energy =                       -270.1106894952038715
  Basis Set: CC-PVTZ
  Basis Set:
  @DF-RHF Final Energy:  -270.11150522197812
    Total Energy =                       -270.1115052219780068
  @DF-RHF Final Energy:  -270.11153282961743
    Total Energy =                       -270.1115328296175448
  Basis Set: CC-PVTZ
  Basis Set:
  @DF-RHF Final Energy:  -270.11154684184294
    Total Energy =                       -270.1115468418429373
  Basis Set: CC-PVTZ
  Basis Set:
  Basis Set: CC-PVTZ
  Basis Set:
  @DF-RHF Final Energy:  -270.11155164263829
    Total Energy =                       -270.1115516426382896
  Basis Set: CC-PVTZ
  Basis Set:
  Basis Set: CC-PVTZ
  Basis Set:
  @DF-RHF Final Energy:  -270.11155536371371
    Total Energy =                       -270.1115553637135918
  Basis Set: CC-PVTZ
  Basis Set:
  Charge       = 0
  Multiplicity = 1
  Basis Set: CC-PVTZ
  Basis Set:

    Orbital Energies (a.u.)
    -----------------------

    Doubly Occupied:

       1A    -20.550798     2A    -11.320975     3A    -11.234264
       4A    -11.233704     5A    -11.226922     6A    -11.216291
       7A     -1.405677     8A     -1.093880     9A     -1.017091
      10A     -0.906668    11A     -0.832224    12A     -0.776591
      13A     -0.674988    14A     -0.647277    15A     -0.629397
      16A     -0.605387    17A     -0.585425    18A     -0.559630
      19A     -0.525150    20A     -0.512094    21A     -0.494470
      22A     -0.476133    23A     -0.469121    24A     -0.411109

  @DF-RHF Final Energy:  -270.11155605514909

   => Energetics <=

    Nuclear Repulsion Energy =            234.1826017709369410
    One-Electron Energy =                -829.7777875591668817
    Two-Electron Energy =                 325.4836297330806474
    DFT Exchange-Correlation Energy =       0.0000000000000000
    Empirical Dispersion Energy =           0.0000000000000000
    PCM Polarization Energy =               0.0000000000000000
    EFP Energy =                            0.0000000000000000
    Total Energy =                       -270.1115560551493218
    Molecular point group: c1
  Basis Set: CC-PVTZ
  Basis Set:

  -Total Gradient:
     Atom            X                  Y                   Z
    ------   -----------------  -----------------  -----------------
       1       -0.000000566535    -0.000004757262    -0.000032146930
       2       -0.000081589652    -0.000064801077    -0.000000988245
       3       -0.002682641094     0.004068168681     0.001869478496
       4        0.000026122414     0.000083390573     0.000041466053
       5       -0.001693114040     0.002896067871    -0.003803336467
       6        0.002513384048    -0.003847637989    -0.000946617511
       7       -0.000005997665    -0.000029283509    -0.000001206086
       8        0.000009073250     0.000037057938     0.000026364614
       9        0.001872320929    -0.003130035160     0.002863026143
      10        0.000009968498    -0.000004825306     0.000004040027
      11        0.000024410823    -0.000023021197    -0.000009360399
      12        0.000010135988     0.000004467668    -0.000007325540
      13        0.000008491094     0.000005349622    -0.000003122794
      14       -0.000005026698    -0.000001254135     0.000006415828
      15        0.000000612591     0.000004842496    -0.000002205486
      16       -0.000005583950     0.000006270789    -0.000004481703

  **** Optimization is complete! (in 10 steps) ****
    Final optimized geometry and variables:
    Molecular point group: c1

    Geometry (in Angstrom), charge = 0, multiplicity = 1:

    H            0.881937652088     1.183865011011    -1.444473816798
    C            1.189391098118     1.079299659578    -0.397109209936
    C            1.301037059789    -0.332707949026     0.107064148520
    O            1.429704788917     2.042782940090     0.245280018901
    C           -0.002155053757    -1.169328869629     0.038368790125
    H            1.702372275048    -0.316342007460     1.110544350766
    H            2.054938085168    -0.812401101219    -0.512955481276
    C           -1.307762407970    -0.379257068908    -0.043442311630
    H            0.059482206266    -1.882042345948    -0.776575699661
    H           -0.034348059363    -1.779667493980     0.934540083007
    C           -2.534475915811    -1.281673594052     0.030482945868
    H           -1.345293808007     0.190904712443    -0.966239614780
    H           -1.342359872226     0.344900668335     0.764944082028
    H           -2.539526500898    -2.002854673362    -0.779986982314
    H           -3.448287409918    -0.703369533081    -0.035500147737
    H           -2.557935165663    -1.833565116309     0.963902525463

  Mulliken Charges: (a.u.)
   Center  Symbol    Alpha    Beta     Spin     Total
       1     H     0.46188  0.46188  0.00000  0.07624
       2     C     2.90389  2.90389  0.00000  0.19221
       3     C     3.08777  3.08777  0.00000 -0.17553
       4     O     4.16830  4.16830  0.00000 -0.33660
       5     C     3.10223  3.10223  0.00000 -0.20445
       6     H     0.44116  0.44116  0.00000  0.11768
       7     H     0.44685  0.44685  0.00000  0.10629
       8     C     3.09252  3.09252  0.00000 -0.18504
       9     H     0.44764  0.44764  0.00000  0.10471
      10     H     0.44739  0.44739  0.00000  0.10522
      11     C     3.15110  3.15110  0.00000 -0.30221
      12     H     0.45283  0.45283  0.00000  0.09435
      13     H     0.44253  0.44253  0.00000  0.11493
      14     H     0.45487  0.45487  0.00000  0.09025
      15     H     0.44562  0.44562  0.00000  0.10876
      16     H     0.45341  0.45341  0.00000  0.09318

   Total alpha = 24.00000, Total beta = 24.00000, Total charge =  0.00000

*** Psi4 exiting successfully. Buy a developer a beer!
