  ==> Input File <==

--------------------------------------------------------------------------
set {
	reference rhf
	basis cc-pvtz
}

set_num_threads( 4 )
memory 2 gb

molecule MOL {
0 1

O	 -2.071633	 -1.227563	 -0.223463
C	 -1.652164	 -0.152425	 0.058082
C	 -0.327811	 0.006324	 0.778296
C	 -2.402515	 1.108629	 -0.298924
C	 0.843231	 -0.001575	 -0.211665
H	 -0.319484	 0.928173	 1.350354
H	 -0.227804	 -0.823091	 1.466705
C	 2.197693	 0.138030	 0.476937
H	 0.722944	 0.805202	 -0.930230
H	 0.813976	 -0.926978	 -0.776588
C	 2.356999	 -0.800144	 1.668412
H	 2.989171	 -0.053723	 -0.242312
H	 2.325832	 1.165051	 0.806097
H	 2.268651	 -1.837945	 1.364773
H	 1.597847	 -0.610390	 2.419445
H	 3.325655	 -0.674626	 2.137830
H	 -3.240910	 0.874416	 -0.936711
H	 -1.747554	 1.818823	 -0.790984
H	 -2.760419	 1.579708	 0.610998

	symmetry c1
}
set optking {
	frozen_dihedral = ("
		11 8 5 9
	")
}

ee = optimize('scf')
oeprop('DIPOLE', 'QUADRUPOLE', 'MULLIKEN_CHARGES')
f=open( 'psi4out.xyz', 'w' )
f.write( "19  " )
f.write( str(ee) + "\n" )
f.write( MOL.save_string_xyz() )
f.close()
--------------------------------------------------------------------------

    Molecular point group: c1
  Charge       = 0
  Multiplicity = 1
  Basis Set: CC-PVTZ
  Basis Set:
  @DF-RHF Final Energy:  -309.17317907234309
    Total Energy =                       -309.1731790723429185
    Molecular point group: c1
  Basis Set: CC-PVTZ
  Basis Set:
  Basis Set: CC-PVTZ
  Basis Set:
  @DF-RHF Final Energy:  -309.17391124010413
    Total Energy =                       -309.1739112401044736
  Basis Set: CC-PVTZ
  Basis Set:
  Basis Set: CC-PVTZ
  Basis Set:
  @DF-RHF Final Energy:  -309.17465950843899
    Total Energy =                       -309.1746595084385945
  Basis Set: CC-PVTZ
  Basis Set:
  Basis Set: CC-PVTZ
  Basis Set:
  @DF-RHF Final Energy:  -309.17470451867700
    Total Energy =                       -309.1747045186770038
  Basis Set: CC-PVTZ
  Basis Set:
  @DF-RHF Final Energy:  -309.17460739197656
    Total Energy =                       -309.1746073919766218
  Basis Set: CC-PVTZ
  Basis Set:
  @DF-RHF Final Energy:  -309.17472199952016
    Total Energy =                       -309.1747219995199885
  Basis Set: CC-PVTZ
  Basis Set:
  Basis Set: CC-PVTZ
  Basis Set:
  @DF-RHF Final Energy:  -309.17471288029003
    Total Energy =                       -309.1747128802895759
  Basis Set: CC-PVTZ
  Basis Set:
  Basis Set: CC-PVTZ
  Basis Set:
  @DF-RHF Final Energy:  -309.17472518168353
    Total Energy =                       -309.1747251816834137
  Basis Set: CC-PVTZ
  Basis Set:
  Charge       = 0
  Multiplicity = 1
  Basis Set: CC-PVTZ
  Basis Set:

    Orbital Energies (a.u.)
    -----------------------

    Doubly Occupied:

       1A    -20.536664     2A    -11.319268     3A    -11.229292
       4A    -11.227269     5A    -11.226992     6A    -11.223678
       7A    -11.212990     8A     -1.396841     9A     -1.092424
      10A     -1.028417    11A     -0.981819    12A     -0.902357
      13A     -0.797240    14A     -0.735736    15A     -0.661406
      16A     -0.653723    17A     -0.624226    18A     -0.603613
      19A     -0.591615    20A     -0.578453    21A     -0.550510
      22A     -0.544815    23A     -0.514227    24A     -0.505119
      25A     -0.482673    26A     -0.471712    27A     -0.464862
      28A     -0.399596

  @DF-RHF Final Energy:  -309.17472522117339

   => Energetics <=

    Nuclear Repulsion Energy =            305.5039543845996377
    One-Electron Energy =               -1024.2422823592919485
    Two-Electron Energy =                 409.5636027535188077
    DFT Exchange-Correlation Energy =       0.0000000000000000
    Empirical Dispersion Energy =           0.0000000000000000
    PCM Polarization Energy =               0.0000000000000000
    EFP Energy =                            0.0000000000000000
    Total Energy =                       -309.1747252211735031
    Molecular point group: c1
  Basis Set: CC-PVTZ
  Basis Set:

  -Total Gradient:
     Atom            X                  Y                   Z
    ------   -----------------  -----------------  -----------------
       1       -0.000001789054     0.000000631349     0.000000421223
       2        0.000003528629    -0.000002117169     0.000003518461
       3        0.000001816668     0.000001714367    -0.000007201807
       4       -0.000001451758     0.000002868990     0.000003844867
       5        0.001464203766    -0.001666703323    -0.002455426764
       6       -0.000002155573     0.000001974800     0.000001481939
       7        0.000001783954     0.000000228720    -0.000004045875
       8        0.001223413260    -0.002249535012    -0.001783570001
       9       -0.001591129353     0.002028729300     0.002589194038
      10        0.000001904056    -0.000003477530     0.000001422763
      11       -0.001096849949     0.001888265899     0.001653183275
      12       -0.000003426689     0.000004133469    -0.000004590890
      13       -0.000000569571    -0.000003052008     0.000001232082
      14        0.000002330452     0.000000908469    -0.000000898576
      15       -0.000001753727    -0.000003723526     0.000003419621
      16       -0.000001040694    -0.000000209240     0.000001850956
      17        0.000000998623    -0.000001035243    -0.000000795832
      18       -0.000000204289    -0.000000101310    -0.000001149069
      19        0.000000391248     0.000000498999    -0.000001890412

  **** Optimization is complete! (in 9 steps) ****
    Final optimized geometry and variables:
    Molecular point group: c1

    Geometry (in Angstrom), charge = 0, multiplicity = 1:

    O           -1.962743446995    -1.053498427021    -0.642626337533
    C           -1.520768015171    -0.005630461147    -0.299187453460
    C           -0.216868951900     0.078246769747     0.468971644940
    C           -2.222298629616     1.292729189339    -0.620385853616
    C            0.977027488712     0.067777695375    -0.497935937902
    H           -0.194604170472     0.980136640443     1.072707505396
    H           -0.176349964405    -0.776630050057     1.128824319210
    C            2.336547456841     0.269301703836     0.177987321898
    H            0.835677405270     0.871063345855    -1.215172469963
    H            0.965176854538    -0.865462002476    -1.049035192604
    C            2.604931007877    -0.626729438070     1.384167993147
    H            3.110989815179     0.114217936057    -0.565846989499
    H            2.422320300234     1.306516843198     0.491257611086
    H            2.486852238637    -1.675958057993     1.132969276391
    H            1.936599423869    -0.406083803055     2.207127475263
    H            3.618252872901    -0.486163065739     1.741629865514
    H           -3.041787584749     1.114461757401    -1.299503279491
    H           -1.530837348128     2.008161717612    -1.050884653585
    H           -2.602488713934     1.727401733457     0.298631841499

  Mulliken Charges: (a.u.)
   Center  Symbol    Alpha    Beta     Spin     Total
       1     O     4.17709  4.17709  0.00000 -0.35418
       2     C     2.85855  2.85855  0.00000  0.28291
       3     C     3.10389  3.10389  0.00000 -0.20778
       4     C     3.15496  3.15496  0.00000 -0.30992
       5     C     3.10358  3.10358  0.00000 -0.20715
       6     H     0.44874  0.44874  0.00000  0.10251
       7     H     0.43681  0.43681  0.00000  0.12637
       8     C     3.09039  3.09039  0.00000 -0.18079
       9     H     0.44798  0.44798  0.00000  0.10403
      10     H     0.43928  0.43928  0.00000  0.12144
      11     C     3.15572  3.15572  0.00000 -0.31145
      12     H     0.44640  0.44640  0.00000  0.10720
      13     H     0.45387  0.45387  0.00000  0.09227
      14     H     0.45064  0.45064  0.00000  0.09873
      15     H     0.45250  0.45250  0.00000  0.09500
      16     H     0.44441  0.44441  0.00000  0.11118
      17     H     0.43581  0.43581  0.00000  0.12838
      18     H     0.45108  0.45108  0.00000  0.09784
      19     H     0.44829  0.44829  0.00000  0.10342

   Total alpha = 28.00000, Total beta = 28.00000, Total charge =  0.00000
