                              Psi4 1.0.54 Driver

  ==> Input File <==

--------------------------------------------------------------------------
set {
	reference rhf
	basis cc-pvtz
}

set_num_threads( 4 )
memory 2 gb

molecule MOL {
0 1

H	 -4.024094	 -0.454727	 0.000004
C	 -2.962215	 -0.297920	 0.000004
C	 -2.454736	 0.988978	 0.000025
C	 -2.105837	 -1.382632	 -0.000016
H	 -3.120052	 1.830438	 0.000041
C	 -1.090106	 1.189676	 0.000026
H	 -2.500390	 -2.380229	 -0.000033
C	 -0.739175	 -1.183302	 -0.000016
H	 -0.680214	 2.179144	 0.000042
C	 -0.227341	 0.104540	 0.000006
H	 -0.073209	 -2.021168	 -0.000032
C	 1.238974	 0.374429	 0.000004
O	 1.638687	 1.065122	 1.051270
O	 1.976661	 0.009385	 -0.853073
C	 3.016914	 1.369456	 1.137479
H	 3.604157	 0.464241	 1.170736
H	 3.139708	 1.928122	 2.050936
H	 3.328240	 1.962967	 0.291182

	symmetry c1
}
set optking {
	frozen_dihedral = ("
		13 12 10 6
	")
}

ee,wfn = optimize('scf', return_wfn=True)
oeprop( wfn, 'DIPOLE', 'QUADRUPOLE', 'MULLIKEN_CHARGES')
f=open( 'psi4out.xyz', 'w' )
f.write( "18  " )
f.write( str(ee) + "\n" )
f.write( MOL.save_string_xyz() )
f.close()
--------------------------------------------------------------------------

    Molecular point group: c1
  Charge       = 0
  Multiplicity = 1
  Basis Set: CC-PVTZ
  Basis Set:
  @DF-RHF Final Energy:  -457.50160619155815
    Total Energy =                       -457.5016061915583805
    Molecular point group: c1
  Basis Set: CC-PVTZ
  Basis Set:
  Basis Set: CC-PVTZ
  Basis Set:
  @DF-RHF Final Energy:  -457.50218540889847
    Total Energy =                       -457.5021854088990949
  Basis Set: CC-PVTZ
  Basis Set:
  Basis Set: CC-PVTZ
  Basis Set:
  @DF-RHF Final Energy:  -457.50265815667700
    Total Energy =                       -457.5026581566763753
  Basis Set: CC-PVTZ
  Basis Set:
  Basis Set: CC-PVTZ
  Basis Set:
  @DF-RHF Final Energy:  -457.50271946977790
    Total Energy =                       -457.5027194697773893
  Basis Set: CC-PVTZ
  Basis Set:
  Basis Set: CC-PVTZ
  Basis Set:
  @DF-RHF Final Energy:  -457.50272281506142
    Total Energy =                       -457.5027228150610199
  Basis Set: CC-PVTZ
  Basis Set:
  Basis Set: CC-PVTZ
  Basis Set:
  @DF-RHF Final Energy:  -457.50262477516088
    Total Energy =                       -457.5026247751608253
  Basis Set: CC-PVTZ
  Basis Set:
  Charge       = 0
  Multiplicity = 1
  Basis Set: CC-PVTZ
  Basis Set:

    Orbital Energies (a.u.)
    -----------------------

    Doubly Occupied:

       1A    -20.603250     2A    -20.539342     3A    -11.373781
       4A    -11.282168     5A    -11.248797     6A    -11.242662
       7A    -11.241134     8A    -11.239685     9A    -11.237454
      10A    -11.236840    11A     -1.478897    12A     -1.371758
      13A     -1.171500    14A     -1.052280    15A     -1.029530
      16A     -0.981967    17A     -0.862810    18A     -0.841352
      19A     -0.783202    20A     -0.742637    21A     -0.688386
      22A     -0.683625    23A     -0.681092    24A     -0.634658
      25A     -0.632487    26A     -0.600292    27A     -0.593342
      28A     -0.555180    29A     -0.537719    30A     -0.521098
      31A     -0.511503    32A     -0.504810    33A     -0.464502
      34A     -0.450284    35A     -0.348145    36A     -0.347020

  @DF-RHF Final Energy:  -457.50272354759863

   => Energetics <=

    Nuclear Repulsion Energy =            492.9704008735386651
    One-Electron Energy =               -1600.3158655206659660
    Two-Electron Energy =                 649.8427410995285527
    DFT Exchange-Correlation Energy =       0.0000000000000000
    Empirical Dispersion Energy =           0.0000000000000000
    PCM Polarization Energy =               0.0000000000000000
    EFP Energy =                            0.0000000000000000
    Total Energy =                       -457.5027235475987482
    Molecular point group: c1
  Basis Set: CC-PVTZ
  Basis Set:

  -Total Gradient:
     Atom            X                  Y                   Z
    ------   -----------------  -----------------  -----------------
       1       -0.000071756613    -0.000006955491    -0.000005209436
       2        0.000005969808    -0.000218483603     0.000030127481
       3        0.000168718811     0.000175773146    -0.000004237959
       4       -0.000230017542     0.000049995384    -0.000021103311
       5       -0.000025402461     0.000006349887    -0.000004032516
       6       -0.000347259158    -0.000415272023    -0.005073455473
       7       -0.000043702436    -0.000093703932     0.000007457922
       8        0.000110194716    -0.000111630082    -0.000013319093
       9        0.000031927401    -0.000001617768    -0.000006454286
      10        0.000632733298    -0.000516002027     0.008432884387
      11       -0.000017057836    -0.000017598951     0.000001952062
      12       -0.000846648062     0.005086873456    -0.006319993776
      13        0.000508023986    -0.003933274172     0.003027803086
      14        0.000024420093    -0.000061210089    -0.000072895902
      15       -0.000038279075    -0.000059689115     0.000017033447
      16        0.000020486806    -0.000126983826     0.000018557629
      17        0.000048777153     0.000141980861     0.000184048665
      18        0.000068871114     0.000101448347    -0.000199162927

  **** Optimization is complete! (in 7 steps) ****
    Final optimized geometry and variables:
    Molecular point group: c1

    Geometry (in Angstrom), charge = 0, multiplicity = 1:

    H           -4.013521491491    -0.525504226541    -0.154161566258
    C           -2.946847866588    -0.408045729962    -0.136619885397
    C           -2.389983944095     0.855456147222    -0.200362443492
    C           -2.130229748903    -1.520694237268    -0.058656691439
    H           -3.021884849984     1.719364220312    -0.274916038846
    C           -1.017629810985     1.008279206724    -0.168078580092
    H           -2.560596540511    -2.502773814584    -0.017241130537
    C           -0.757254275001    -1.371325261279    -0.050960291295
    H           -0.584199057367     1.988938294927    -0.205660968373
    C           -0.200674712970    -0.104826822867    -0.079705499302
    H           -0.118099630476    -2.232079361831    -0.024778058117
    C            1.286613428323     0.032508019706    -0.145849317672
    O            1.764951309956     0.792854007831     0.820544746685
    O            1.965081040616    -0.514124824534    -0.946518465860
    C            3.164492271862     1.000513141322     0.847081508550
    H            3.683519979791     0.062323892902     0.974987533586
    H            3.351658478492     1.648903273185     1.687634302329
    H            3.497912799404     1.467476093959    -0.068117220227

  Mulliken Charges: (a.u.)
   Center  Symbol    Alpha    Beta     Spin     Total
       1     H     0.42128  0.42128  0.00000  0.15743
       2     C     3.07996  3.07996  0.00000 -0.15992
       3     C     3.06766  3.06766  0.00000 -0.13531
       4     C     3.06605  3.06605  0.00000 -0.13210
       5     H     0.42175  0.42175  0.00000  0.15651
       6     C     3.09279  3.09279  0.00000 -0.18558
       7     H     0.42137  0.42137  0.00000  0.15727
       8     C     3.09033  3.09033  0.00000 -0.18066
       9     H     0.42162  0.42162  0.00000  0.15677
      10     C     2.93572  2.93572  0.00000  0.12856
      11     H     0.41754  0.41754  0.00000  0.16492
      12     C     2.83520  2.83520  0.00000  0.32961
      13     O     4.14410  4.14410  0.00000 -0.28821
      14     O     4.19794  4.19794  0.00000 -0.39587
      15     C     3.03702  3.03702  0.00000 -0.07405
      16     H     0.45229  0.45229  0.00000  0.09541
      17     H     0.44327  0.44327  0.00000  0.11345
      18     H     0.45411  0.45411  0.00000  0.09177

   Total alpha = 36.00000, Total beta = 36.00000, Total charge = -0.00000

*** Psi4 exiting successfully. Buy a developer a beer!
