  ==> Input File <==

--------------------------------------------------------------------------
set {
	reference rhf
	basis 6-31G*
}

set_num_threads( 4 )
memory 2 gb

molecule MOL {
0 1

O	 -2.475387	 -1.064607	 0.421391
C	 -1.939863	 -0.003883	 0.402679
C	 -2.642298	 1.319972	 0.538093
O	 -0.632575	 0.154573	 0.251549
H	 -2.458011	 1.924140	 -0.342797
H	 -3.702719	 1.156978	 0.659651
H	 -2.248668	 1.857517	 1.392995
C	 0.160891	 -1.019931	 0.106212
C	 1.589627	 -0.672828	 0.480843
H	 0.089836	 -1.367806	 -0.916050
H	 -0.238459	 -1.792301	 0.749618
C	 2.246377	 0.346236	 -0.452210
H	 2.163194	 -1.597435	 0.473358
H	 1.604769	 -0.303424	 1.502885
C	 3.691736	 0.652107	 -0.061850
H	 2.219579	 -0.032311	 -1.472055
H	 1.666466	 1.263317	 -0.447249
H	 4.134505	 1.377213	 -0.737283
H	 4.305508	 -0.243868	 -0.089969
H	 3.748266	 1.059562	 0.943567

	symmetry c1
}
set optking {
	frozen_dihedral = ("
		2 4 8 10
	")
}

ee = optimize('scf')
oeprop('DIPOLE', 'QUADRUPOLE', 'MULLIKEN_CHARGES')
f=open( 'psi4out.xyz', 'w' )
f.write( "20  " )
f.write( str(ee) + "\n" )
f.write( MOL.save_string_xyz() )
f.close()
--------------------------------------------------------------------------

    Molecular point group: c1
  Charge       = 0
  Multiplicity = 1
  Basis Set: 6-31G*
  Basis Set:
  @DF-RHF Final Energy:  -383.94486398796033
    Total Energy =                       -383.9448639879603888
    Molecular point group: c1
  Basis Set: 6-31G*
  Basis Set:
  Basis Set: 6-31G*
  Basis Set:
  @DF-RHF Final Energy:  -383.94489042510668
    Total Energy =                       -383.9448904251067916
  Basis Set: 6-31G*
  Basis Set:
  Basis Set: 6-31G*
  Basis Set:
  @DF-RHF Final Energy:  -383.94471515619233
    Total Energy =                       -383.9447151561923874
  Basis Set: 6-31G*
  Basis Set:
  Basis Set: 6-31G*
  Basis Set:
  @DF-RHF Final Energy:  -383.94498852191856
    Total Energy =                       -383.9449885219185035
  Basis Set: 6-31G*
  Basis Set:
  Basis Set: 6-31G*
  Basis Set:
  @DF-RHF Final Energy:  -383.94499869393701
    Total Energy =                       -383.9449986939370092
  Basis Set: 6-31G*
  Basis Set:
  Charge       = 0
  Multiplicity = 1
  Basis Set: 6-31G*
  Basis Set:

    Orbital Energies (a.u.)
    -----------------------

    Doubly Occupied:

       1A    -20.601574     2A    -20.543941     3A    -11.375010
       4A    -11.282088     5A    -11.233310     6A    -11.225464
       7A    -11.220382     8A    -11.213362     9A     -1.467290
      10A     -1.362455    11A     -1.086002    12A     -1.028201
      13A     -0.981295    14A     -0.880545    15A     -0.813445
      16A     -0.771905    17A     -0.691565    18A     -0.684568
      19A     -0.665017    20A     -0.630972    21A     -0.600098
      22A     -0.592558    23A     -0.571520    24A     -0.554338
      25A     -0.544224    26A     -0.529193    27A     -0.514083
      28A     -0.485961    29A     -0.474885    30A     -0.466969
      31A     -0.449899    32A     -0.438187

  @DF-RHF Final Energy:  -383.94499789193242

   => Energetics <=

    Nuclear Repulsion Energy =            384.6303977119728188
    One-Electron Energy =               -1285.1901793903509770
    Two-Electron Energy =                 516.6147837864458552
    DFT Exchange-Correlation Energy =       0.0000000000000000
    Empirical Dispersion Energy =           0.0000000000000000
    PCM Polarization Energy =               0.0000000000000000
    EFP Energy =                            0.0000000000000000
    Total Energy =                       -383.9449978919323030
    Molecular point group: c1
  Basis Set: 6-31G*
  Basis Set:

  -Total Gradient:
     Atom            X                  Y                   Z
    ------   -----------------  -----------------  -----------------
       1        0.000094659903     0.000032628651    -0.000013469014
       2        0.000138089819    -0.000098001578     0.001420643702
       3        0.000014004044     0.000023737900    -0.000008660197
       4        0.000012259636     0.000208360583    -0.001980308938
       5       -0.000007692395     0.000016258653    -0.000003442411
       6       -0.000000207445    -0.000002974438    -0.000007969689
       7        0.000004341408    -0.000010535316    -0.000008679409
       8       -0.001517419441    -0.001183734084     0.000950405294
       9        0.000031406797     0.000028550289     0.000033649377
      10        0.001251365100     0.000856764171    -0.000438924871
      11       -0.000008274801     0.000093391047    -0.000004061460
      12       -0.000041003914     0.000091212337     0.000029075071
      13        0.000004395633     0.000011028634     0.000029888722
      14       -0.000003573241     0.000029418052     0.000015861327
      15        0.000012471997    -0.000072929940    -0.000037157901
      16       -0.000020466584     0.000002728800    -0.000001166171
      17        0.000034863310    -0.000010458940     0.000036524246
      18        0.000001819406    -0.000020744774    -0.000018021765
      19        0.000018290768    -0.000004977168     0.000022715520
      20       -0.000019330001     0.000010277122    -0.000016901433

  **** Optimization is complete! (in 6 steps) ****
    Final optimized geometry and variables:
    Molecular point group: c1

    Geometry (in Angstrom), charge = 0, multiplicity = 1:

    O           -2.486641833725    -1.024725940537     0.167706954468
    C           -1.934099384324     0.027288566257     0.175148410761
    C           -2.618837439503     1.358390169093     0.331117430114
    O           -0.623188778734     0.173352545408     0.042419134072
    H           -2.417798624201     1.976536347825    -0.536312230695
    H           -3.682579117233     1.208188463242     0.439429650789
    H           -2.225391144603     1.873540154764     1.199751432046
    C            0.177255537699    -0.999474153455    -0.081968703518
    C            1.606224887109    -0.640059193242     0.283840034587
    H            0.117038055710    -1.347683366036    -1.106435824466
    H           -0.216282891693    -1.767917691934     0.565515840797
    C            2.250432191693     0.384391350178    -0.651839832940
    H            2.187258843963    -1.560140516133     0.272946028980
    H            1.623757631561    -0.270888320689     1.306056496520
    C            3.699727892759     0.690888041246    -0.276804560600
    H            2.212942602294     0.009556277926    -1.672745163432
    H            1.668667379972     1.300138022809    -0.637446940416
    H            4.135397035374     1.415328564974    -0.957565124341
    H            4.313599697037    -0.204915323476    -0.309980324982
    H            3.766565223978     1.099606860985     0.727474360375

  Mulliken Charges: (a.u.)
   Center  Symbol    Alpha    Beta     Spin     Total
       1     O     4.28316  4.28316  0.00000 -0.56633
       2     C     2.61930  2.61930  0.00000  0.76140
       3     C     3.28184  3.28184  0.00000 -0.56367
       4     O     4.30901  4.30901  0.00000 -0.61803
       5     H     0.40049  0.40049  0.00000  0.19901
       6     H     0.39692  0.39692  0.00000  0.20616
       7     H     0.40095  0.40095  0.00000  0.19810
       8     C     3.00482  3.00482  0.00000 -0.00964
       9     C     3.16391  3.16391  0.00000 -0.32782
      10     H     0.41498  0.41498  0.00000  0.17004
      11     H     0.40093  0.40093  0.00000  0.19815
      12     C     3.15492  3.15492  0.00000 -0.30983
      13     H     0.41863  0.41863  0.00000  0.16273
      14     H     0.41543  0.41543  0.00000  0.16915
      15     C     3.24037  3.24037  0.00000 -0.48073
      16     H     0.42313  0.42313  0.00000  0.15375
      17     H     0.41121  0.41121  0.00000  0.17757
      18     H     0.41759  0.41759  0.00000  0.16481
      19     H     0.42173  0.42173  0.00000  0.15653
      20     H     0.42068  0.42068  0.00000  0.15865

   Total alpha = 32.00000, Total beta = 32.00000, Total charge = -0.00000
