  ==> Input File <==

--------------------------------------------------------------------------
set {
	reference rhf
	basis 6-31G*
}

set_num_threads( 4 )
memory 2 gb

molecule MOL {
0 1

H	 0.010058	 4.087899	 0.860342
O	 -0.143639	 3.811128	 -0.031938
C	 -0.149280	 2.410164	 -0.097196
C	 1.256667	 1.847534	 0.014278
H	 -0.779267	 1.975158	 0.673676
H	 -0.570216	 2.142128	 -1.056059
O	 1.171513	 0.459272	 -0.058250
H	 1.709445	 2.155151	 0.958917
H	 1.874403	 2.246257	 -0.788223
C	 2.397842	 -0.198080	 -0.002151
H	 2.508049	 -0.905315	 -0.822092
H	 3.173794	 0.550865	 -0.078850
H	 2.517602	 -0.735921	 0.936026

	symmetry c1
}
set optking {
	frozen_dihedral = ("
		4 7 10 13
	")
}

ee = optimize('scf')
oeprop('DIPOLE', 'QUADRUPOLE', 'MULLIKEN_CHARGES')
f=open( 'psi4out.xyz', 'w' )
f.write( "13  " )
f.write( str(ee) + "\n" )
f.write( MOL.save_string_xyz() )
f.close()
--------------------------------------------------------------------------

    Molecular point group: c1
  Charge       = 0
  Multiplicity = 1
  Basis Set: 6-31G*
  Basis Set:
  @DF-RHF Final Energy:  -267.94577948504502
    Total Energy =                       -267.9457794850451364
    Molecular point group: c1
  Basis Set: 6-31G*
  Basis Set:
  Basis Set: 6-31G*
  Basis Set:
  @DF-RHF Final Energy:  -267.94672874807384
    Total Energy =                       -267.9467287480738946
  Basis Set: 6-31G*
  Basis Set:
  Basis Set: 6-31G*
  Basis Set:
  @DF-RHF Final Energy:  -267.94705238428946
    Total Energy =                       -267.9470523842894067
  Basis Set: 6-31G*
  Basis Set:
  Charge       = 0
  Multiplicity = 1
  Basis Set: 6-31G*
  Basis Set:

    Orbital Energies (a.u.)
    -----------------------

    Doubly Occupied:

       1A    -20.559783     2A    -20.558765     3A    -11.271274
       4A    -11.269767     5A    -11.268374     6A     -1.384358
       7A     -1.364286     8A     -1.018279     9A     -0.913593
      10A     -0.841389    11A     -0.708715    12A     -0.671244
      13A     -0.657759    14A     -0.636770    15A     -0.595745
      16A     -0.569407    17A     -0.547884    18A     -0.489617
      19A     -0.481443    20A     -0.437800    21A     -0.416473

  @DF-RHF Final Energy:  -267.94705513645499

   => Energetics <=

    Nuclear Repulsion Energy =            189.9158785749803258
    One-Electron Energy =                -742.4004093363220136
    Two-Electron Energy =                 284.5374756248867243
    DFT Exchange-Correlation Energy =       0.0000000000000000
    Empirical Dispersion Energy =           0.0000000000000000
    PCM Polarization Energy =               0.0000000000000000
    EFP Energy =                            0.0000000000000000
    Total Energy =                       -267.9470551364549920
    Molecular point group: c1
  Basis Set: 6-31G*
  Basis Set:

  -Total Gradient:
     Atom            X                  Y                   Z
    ------   -----------------  -----------------  -----------------
       1        0.000000146071     0.000011850117     0.000001241794
       2       -0.000003954215     0.000023103526     0.000007396757
       3       -0.000001552151    -0.000017399706    -0.000008540470
       4        0.000115189044     0.000079968193    -0.001322823714
       5       -0.000002492351    -0.000002296732    -0.000004201129
       6       -0.000000342162    -0.000007365980     0.000005349740
       7       -0.000224418240    -0.000599467248     0.001837343117
       8       -0.000006357972    -0.000019613522    -0.000013672566
       9       -0.000001132994    -0.000024283359    -0.000003032885
      10        0.000904713115     0.001873376251     0.000176168451
      11       -0.000011508064    -0.000027637932     0.000012612837
      12        0.000061628621     0.000007060383     0.000003424332
      13       -0.000829918703    -0.001297293992    -0.000691266263

  **** Optimization is complete! (in 4 steps) ****
    Final optimized geometry and variables:
    Molecular point group: c1

    Geometry (in Angstrom), charge = 0, multiplicity = 1:

    H           -0.939470441345     2.392675470694     0.881922676475
    O           -1.078946569548     2.113079257365    -0.011793440453
    C           -1.061712068188     0.711866011167    -0.076369383358
    C            0.352129948478     0.172033927003     0.045838957915
    H           -1.690315487483     0.267447668378     0.690099668120
    H           -1.470895290071     0.435928290678    -1.038067510433
    O            0.284638719623    -1.218085421871    -0.031589525363
    H            0.790145004674     0.488220217324     0.994169541561
    H            0.967278070071     0.581582845454    -0.752091743495
    C            1.504706881734    -1.899069850358     0.016872644531
    H            1.534875748868    -2.620617156004    -0.791182166120
    H            2.350157269029    -1.226848747262    -0.089990331874
    H            1.597052795988    -2.435136010312     0.956279873015

  Mulliken Charges: (a.u.)
   Center  Symbol    Alpha    Beta     Spin     Total
       1     H     0.28130  0.28130  0.00000  0.43740
       2     O     4.37098  4.37098  0.00000 -0.74195
       3     C     3.00492  3.00492  0.00000 -0.00985
       4     C     2.99624  2.99624  0.00000  0.00751
       5     H     0.42231  0.42231  0.00000  0.15537
       6     H     0.40853  0.40853  0.00000  0.18294
       7     O     4.31212  4.31212  0.00000 -0.62424
       8     H     0.43764  0.43764  0.00000  0.12471
       9     H     0.42293  0.42293  0.00000  0.15414
      10     C     3.07691  3.07691  0.00000 -0.15381
      11     H     0.41651  0.41651  0.00000  0.16699
      12     H     0.42772  0.42772  0.00000  0.14457
      13     H     0.42189  0.42189  0.00000  0.15622

   Total alpha = 21.00000, Total beta = 21.00000, Total charge =  0.00000
