  ==> Input File <==

--------------------------------------------------------------------------
set {
	reference rhf
	basis 6-31G*
}

set_num_threads( 4 )
memory 2 gb

molecule MOL {
0 1

O	 -1.927922	 -0.691696	 0.255410
C	 -1.083277	 0.139568	 0.115197
C	 0.323299	 -0.082943	 0.642902
C	 -1.371997	 1.458288	 -0.567041
C	 1.355627	 -0.005344	 -0.493127
H	 0.396251	 -1.044647	 1.143147
H	 0.528637	 0.693580	 1.371677
C	 2.786168	 -0.195604	 0.007473
H	 1.132807	 -0.760304	 -1.243899
H	 1.259610	 0.958506	 -0.981915
H	 3.495561	 -0.130713	 -0.811210
H	 2.912696	 -1.165395	 0.480041
H	 3.049284	 0.565503	 0.735850
H	 -1.046016	 2.290670	 0.049842
H	 -2.429956	 1.544952	 -0.771850
H	 -0.818146	 1.515150	 -1.500433

	symmetry c1
}
set optking {
	frozen_dihedral = ("
		4 2 3 5
	")
}

ee = optimize('scf')
oeprop('DIPOLE', 'QUADRUPOLE', 'MULLIKEN_CHARGES')
f=open( 'psi4out.xyz', 'w' )
f.write( "16  " )
f.write( str(ee) + "\n" )
f.write( MOL.save_string_xyz() )
f.close()
--------------------------------------------------------------------------

    Molecular point group: c1
  Charge       = 0
  Multiplicity = 1
  Basis Set: 6-31G*
  Basis Set:
  @DF-RHF Final Energy:  -270.02857966497965
    Total Energy =                       -270.0285796649797021
    Molecular point group: c1
  Basis Set: 6-31G*
  Basis Set:
  Basis Set: 6-31G*
  Basis Set:
  @DF-RHF Final Energy:  -270.02949328630768
    Total Energy =                       -270.0294932863075701
  Basis Set: 6-31G*
  Basis Set:
  Basis Set: 6-31G*
  Basis Set:
  @DF-RHF Final Energy:  -270.02981377617982
    Total Energy =                       -270.0298137761800490
  Basis Set: 6-31G*
  Basis Set:
  Basis Set: 6-31G*
  Basis Set:
  @DF-RHF Final Energy:  -270.02985505212229
    Total Energy =                       -270.0298550521223433
  Basis Set: 6-31G*
  Basis Set:
  @DF-RHF Final Energy:  -270.02985432555579
    Total Energy =                       -270.0298543255556751
  @DF-RHF Final Energy:  -270.02980709205303
    Total Energy =                       -270.0298070920529199
  Basis Set: 6-31G*
  Basis Set:
  @DF-RHF Final Energy:  -270.02987958500387
    Total Energy =                       -270.0298795850039824
  Basis Set: 6-31G*
  Basis Set:
  Basis Set: 6-31G*
  Basis Set:
  @DF-RHF Final Energy:  -270.02988399913329
    Total Energy =                       -270.0298839991332898
  Basis Set: 6-31G*
  Basis Set:
  Basis Set: 6-31G*
  Basis Set:
  @DF-RHF Final Energy:  -270.02988574572618
    Total Energy =                       -270.0298857457261192
  Basis Set: 6-31G*
  Basis Set:
  Charge       = 0
  Multiplicity = 1
  Basis Set: 6-31G*
  Basis Set:

    Orbital Energies (a.u.)
    -----------------------

    Doubly Occupied:

       1A    -20.548421     2A    -11.324870     3A    -11.236004
       4A    -11.230378     5A    -11.227870     6A    -11.221366
       7A     -1.393665     8A     -1.085420     9A     -1.010507
      10A     -0.951004    11A     -0.833165    12A     -0.735049
      13A     -0.659250    14A     -0.649512    15A     -0.617470
      16A     -0.605565    17A     -0.577424    18A     -0.553980
      19A     -0.534980    20A     -0.520964    21A     -0.505805
      22A     -0.486664    23A     -0.474297    24A     -0.398412

  @DF-RHF Final Energy:  -270.02988578639247

   => Energetics <=

    Nuclear Repulsion Energy =            236.9197501067006897
    One-Electron Energy =                -835.1351873089192850
    Two-Electron Energy =                 328.1855514158260121
    DFT Exchange-Correlation Energy =       0.0000000000000000
    Empirical Dispersion Energy =           0.0000000000000000
    PCM Polarization Energy =               0.0000000000000000
    EFP Energy =                            0.0000000000000000
    Total Energy =                       -270.0298857863925832
    Molecular point group: c1
  Basis Set: 6-31G*
  Basis Set:

  -Total Gradient:
     Atom            X                  Y                   Z
    ------   -----------------  -----------------  -----------------
       1        0.000050246339    -0.000004597964    -0.000002097479
       2       -0.000057743130     0.000088444581     0.000096743302
       3        0.000047299392    -0.000154642209    -0.000101126257
       4        0.000027652369    -0.000003964388    -0.000033886838
       5       -0.000022662573     0.000126595421     0.000022251838
       6        0.000003435466    -0.000024187949     0.000019736028
       7        0.000003831552    -0.000010867728    -0.000016381902
       8       -0.000017520800    -0.000032228383     0.000035020782
       9       -0.000001340443    -0.000003047751     0.000018310819
      10       -0.000033802946     0.000022269665    -0.000018213971
      11       -0.000020931160    -0.000009018907    -0.000006735001
      12        0.000008366617     0.000000169667     0.000020144038
      13        0.000008259914     0.000009179989    -0.000007933276
      14       -0.000000996861     0.000008205487    -0.000008835714
      15       -0.000003199560     0.000000338120    -0.000009054946
      16        0.000009105831    -0.000012647649    -0.000007941422

  **** Optimization is complete! (in 10 steps) ****
    Final optimized geometry and variables:
    Molecular point group: c1

    Geometry (in Angstrom), charge = 0, multiplicity = 1:

    O           -1.930777133304    -0.824519357843     0.263661457044
    C           -1.111420728221     0.032320308015     0.127494384638
    C            0.310294654691    -0.151640879072     0.625917690375
    C           -1.456973206525     1.339472087380    -0.557476602399
    C            1.370688587480    -0.065996451582    -0.481385507164
    H            0.354127530843    -1.116688242008     1.116262988826
    H            0.512624329624     0.611588192875     1.375640916116
    C            2.777312948706    -0.338607608360     0.049458521784
    H            1.133359689698    -0.784822604522    -1.261620484548
    H            1.347170073691     0.916214725564    -0.944797757708
    H            3.511905978679    -0.277479576571    -0.746880334925
    H            2.844470790424    -1.329166286560     0.488567647370
    H            3.054360101413     0.382408762339     0.813098386052
    H           -1.025236281162     2.188890879740    -0.038190334418
    H           -2.531940135753     1.444514471882    -0.607752524417
    H           -1.060750234150     1.339676378620    -1.568916646735

  Mulliken Charges: (a.u.)
   Center  Symbol    Alpha    Beta     Spin     Total
       1     O     4.26044  4.26044  0.00000 -0.52089
       2     C     2.73420  2.73420  0.00000  0.53160
       3     C     3.20354  3.20354  0.00000 -0.40708
       4     C     3.29031  3.29031  0.00000 -0.58062
       5     C     3.16438  3.16438  0.00000 -0.32877
       6     H     0.39942  0.39942  0.00000  0.20117
       7     H     0.41297  0.41297  0.00000  0.17407
       8     C     3.23955  3.23955  0.00000 -0.47909
       9     H     0.41293  0.41293  0.00000  0.17414
      10     H     0.41798  0.41798  0.00000  0.16405
      11     H     0.41551  0.41551  0.00000  0.16897
      12     H     0.41668  0.41668  0.00000  0.16663
      13     H     0.41984  0.41984  0.00000  0.16031
      14     H     0.41207  0.41207  0.00000  0.17587
      15     H     0.39602  0.39602  0.00000  0.20796
      16     H     0.40416  0.40416  0.00000  0.19168

   Total alpha = 24.00000, Total beta = 24.00000, Total charge = -0.00000
