  ==> Input File <==

--------------------------------------------------------------------------
set {
	reference rhf
	basis cc-pvtz
}

set_num_threads( 4 )
memory 2 gb

molecule MOL {
0 1

H	 -2.952882	 -0.951311	 0.863208
C	 -3.100578	 -0.515573	 -0.134391
C	 -2.653809	 0.914422	 -0.273689
O	 -3.588223	 -1.161783	 -0.995741
C	 -1.216901	 1.136108	 0.207794
H	 -2.779901	 1.215714	 -1.305511
H	 -3.330346	 1.511395	 0.333950
C	 -0.247837	 0.040196	 -0.230469
H	 -0.872882	 2.093195	 -0.169002
H	 -1.209325	 1.218376	 1.291938
C	 1.181757	 0.280428	 0.247371
H	 -0.259600	 -0.030819	 -1.314870
H	 -0.591284	 -0.923375	 0.136958
C	 2.151032	 -0.811012	 -0.202643
H	 1.515939	 1.247397	 -0.115449
H	 1.191514	 0.341223	 1.333422
C	 3.580021	 -0.656538	 0.320835
H	 2.170545	 -0.847575	 -1.289412
H	 1.766632	 -1.772905	 0.124928
C	 4.327657	 0.562694	 -0.213579
H	 4.138806	 -1.549270	 0.057813
H	 3.561991	 -0.620783	 1.406976
H	 4.355973	 0.557257	 -1.298551
H	 3.867136	 1.491650	 0.100501
H	 5.351524	 0.571613	 0.142204

	symmetry c1
}
set optking {
	frozen_dihedral = ("
		6 3 5 8
	")
}

ee = optimize('scf')
oeprop('DIPOLE', 'QUADRUPOLE', 'MULLIKEN_CHARGES')
f=open( 'psi4out.xyz', 'w' )
f.write( "25  " )
f.write( str(ee) + "\n" )
f.write( MOL.save_string_xyz() )
f.close()
--------------------------------------------------------------------------

    Molecular point group: c1
  Charge       = 0
  Multiplicity = 1
  Basis Set: CC-PVTZ
  Basis Set:
  @DF-RHF Final Energy:  -387.25763413419679
    Total Energy =                       -387.2576341341967918
    Molecular point group: c1
  Basis Set: CC-PVTZ
  Basis Set:
  Basis Set: CC-PVTZ
  Basis Set:
  @DF-RHF Final Energy:  -387.25773039742586
    Total Energy =                       -387.2577303974260303
  Basis Set: CC-PVTZ
  Basis Set:
  Basis Set: CC-PVTZ
  Basis Set:
  @DF-RHF Final Energy:  -387.25805640689111
    Total Energy =                       -387.2580564068910007
  Basis Set: CC-PVTZ
  Basis Set:
  Basis Set: CC-PVTZ
  Basis Set:
  @DF-RHF Final Energy:  -387.25814971755875
    Total Energy =                       -387.2581497175583536
  Basis Set: CC-PVTZ
  Basis Set:
  Charge       = 0
  Multiplicity = 1
  Basis Set: CC-PVTZ
  Basis Set:

    Orbital Energies (a.u.)
    -----------------------

    Doubly Occupied:

       1A    -20.550725     2A    -11.321039     3A    -11.233668
       4A    -11.232978     5A    -11.222513     6A    -11.218163
       7A    -11.216489     8A    -11.215340     9A    -11.208918
      10A     -1.405764    11A     -1.105072    12A     -1.070506
      13A     -1.014524    14A     -0.943674    15A     -0.877039
      16A     -0.826473    17A     -0.783121    18A     -0.781963
      19A     -0.671055    20A     -0.659304    21A     -0.635688
      22A     -0.627701    23A     -0.602953    24A     -0.597536
      25A     -0.576956    26A     -0.547638    27A     -0.542627
      28A     -0.526931    29A     -0.503933    30A     -0.497722
      31A     -0.496463    32A     -0.476398    33A     -0.465257
      34A     -0.459840    35A     -0.443133    36A     -0.411558

  @DF-RHF Final Energy:  -387.25815018268241

   => Energetics <=

    Nuclear Repulsion Energy =            440.6966369919140902
    One-Electron Energy =               -1397.9682577687140110
    Two-Electron Energy =                 570.0134705941171660
    DFT Exchange-Correlation Energy =       0.0000000000000000
    Empirical Dispersion Energy =           0.0000000000000000
    PCM Polarization Energy =               0.0000000000000000
    EFP Energy =                            0.0000000000000000
    Total Energy =                       -387.2581501826826980
    Molecular point group: c1
  Basis Set: CC-PVTZ
  Basis Set:

  -Total Gradient:
     Atom            X                  Y                   Z
    ------   -----------------  -----------------  -----------------
       1        0.000034049174    -0.000000073366     0.000016518369
       2        0.000070575472    -0.000014264636    -0.000073727687
       3        0.001288392484    -0.006658456527    -0.000823034376
       4       -0.000001540250     0.000005732661    -0.000003744881
       5        0.000800554327     0.004009342255    -0.003986840855
       6       -0.001234384383     0.004672144660     0.001640052184
       7       -0.000033612583     0.000033284583     0.000057253434
       8       -0.000907764880    -0.002016709295     0.003155330593
       9       -0.000010953158     0.000032306433    -0.000007877413
      10        0.000001941405    -0.000023766595    -0.000008723918
      11       -0.000000859943    -0.000041480304     0.000031551247
      12       -0.000020983385     0.000004400611     0.000057497659
      13       -0.000037296827    -0.000015963342     0.000016785381
      14        0.000057379997     0.000028434869    -0.000043662595
      15        0.000002025622     0.000007264894     0.000018551367
      16       -0.000035055543    -0.000019614026    -0.000000055264
      17        0.000010525104    -0.000003683733    -0.000042623303
      18        0.000008208006    -0.000028958620    -0.000020183318
      19        0.000011355968     0.000030543806     0.000014551699
      20        0.000009343646    -0.000002562770     0.000003835299
      21        0.000007051776    -0.000003056339     0.000002748058
      22       -0.000012749982     0.000002079463    -0.000003178645
      23       -0.000000972841     0.000001525591    -0.000001885618
      24       -0.000007372128    -0.000000331123     0.000003224077
      25        0.000002142916     0.000001860852    -0.000002361495

  **** Optimization is complete! (in 5 steps) ****
    Final optimized geometry and variables:
    Molecular point group: c1

    Geometry (in Angstrom), charge = 0, multiplicity = 1:

    H           -3.150527192326    -0.893452726177     0.999409440678
    C           -3.223212619079    -0.461253518717    -0.007410843681
    C           -2.692563065097     0.938082492499    -0.137885214761
    O           -3.711005398770    -1.085531719107    -0.884911720575
    C           -1.258774451853     1.119593873288     0.383418205014
    H           -2.791917202940     1.274655761530    -1.161493949828
    H           -3.354105957047     1.568350684993     0.454426653980
    C           -0.281227514364     0.031206772604    -0.058738519344
    H           -0.902828962864     2.091324301679     0.060912896416
    H           -1.275176068546     1.149102906829     1.469502813737
    C            1.148346905960     0.292318095168     0.408278093411
    H           -0.297337231692    -0.051448825757    -1.142558484567
    H           -0.608465767445    -0.932492899651     0.321084097981
    C            2.127244532792    -0.794103782729    -0.033103261290
    H            1.469620608697     1.257943277616     0.030935552589
    H            1.162980033724     0.367667790310     1.493442283747
    C            3.558642157227    -0.613463174401     0.475141723921
    H            2.137711099017    -0.847899390265    -1.119217437548
    H            1.758025077006    -1.755446299093     0.313176817470
    C            4.286421123079     0.605756712454    -0.086055499850
    H            4.126119725362    -1.503563401881     0.221995567491
    H            3.549488241349    -0.559787710703     1.560670856648
    H            4.304419554403     0.583037230963    -1.170997689119
    H            3.817834500071     1.534175800952     0.217506123829
    H            5.313444828578     0.632538329747     0.259580042864

  Mulliken Charges: (a.u.)
   Center  Symbol    Alpha    Beta     Spin     Total
       1     H     0.46271  0.46271  0.00000  0.07458
       2     C     2.90212  2.90212  0.00000  0.19576
       3     C     3.09199  3.09199  0.00000 -0.18397
       4     O     4.16811  4.16811  0.00000 -0.33623
       5     C     3.11164  3.11164  0.00000 -0.22327
       6     H     0.44095  0.44095  0.00000  0.11810
       7     H     0.44346  0.44346  0.00000  0.11308
       8     C     3.09378  3.09378  0.00000 -0.18757
       9     H     0.44356  0.44356  0.00000  0.11289
      10     H     0.44937  0.44937  0.00000  0.10126
      11     C     3.09428  3.09428  0.00000 -0.18856
      12     H     0.44615  0.44615  0.00000  0.10770
      13     H     0.44986  0.44986  0.00000  0.10027
      14     C     3.09528  3.09528  0.00000 -0.19055
      15     H     0.45084  0.45084  0.00000  0.09832
      16     H     0.45431  0.45431  0.00000  0.09139
      17     C     3.09096  3.09096  0.00000 -0.18192
      18     H     0.45240  0.45240  0.00000  0.09520
      19     H     0.44854  0.44854  0.00000  0.10291
      20     C     3.15266  3.15266  0.00000 -0.30531
      21     H     0.44763  0.44763  0.00000  0.10474
      22     H     0.45482  0.45482  0.00000  0.09036
      23     H     0.45431  0.45431  0.00000  0.09137
      24     H     0.45438  0.45438  0.00000  0.09123
      25     H     0.44590  0.44590  0.00000  0.10820

   Total alpha = 36.00000, Total beta = 36.00000, Total charge = -0.00000
