  ==> Input File <==

--------------------------------------------------------------------------
set {
	reference rhf
	basis cc-pvtz
}

set_num_threads( 4 )
memory 2 gb

molecule MOL {
0 1

O	 -0.294688	 1.318815	 -0.000872
C	 -0.448732	 0.145721	 -0.000187
C	 -1.780748	 -0.548101	 0.000195
O	 0.550743	 -0.719877	 0.000412
H	 -1.859389	 -1.183260	 -0.872613
H	 -2.570236	 0.185547	 -0.001342
H	 -1.860233	 -1.180337	 0.875064
C	 1.321765	 -0.818396	 1.181465
H	 1.786923	 0.128357	 1.412366
H	 2.073807	 -1.564846	 0.984164
H	 0.704936	 -1.120885	 2.014558

	symmetry c1
}
set optking {
	frozen_dihedral = ("
		8 4 2 1
	")
}

ee = optimize('scf')
oeprop('DIPOLE', 'QUADRUPOLE', 'MULLIKEN_CHARGES')
f=open( 'psi4out.xyz', 'w' )
f.write( "11  " )
f.write( str(ee) + "\n" )
f.write( MOL.save_string_xyz() )
f.close()
--------------------------------------------------------------------------

    Molecular point group: c1
  Charge       = 0
  Multiplicity = 1
  Basis Set: CC-PVTZ
  Basis Set:
  @DF-RHF Final Energy:  -266.92167867301328
    Total Energy =                       -266.9216786730132185
    Molecular point group: c1
  Basis Set: CC-PVTZ
  Basis Set:
  Basis Set: CC-PVTZ
  Basis Set:
  @DF-RHF Final Energy:  -266.91973234335461
    Total Energy =                       -266.9197323433545534
  Basis Set: CC-PVTZ
  Basis Set:
  Basis Set: CC-PVTZ
  Basis Set:
  @DF-RHF Final Energy:  -266.92267649355597
    Total Energy =                       -266.9226764935560254
  Basis Set: CC-PVTZ
  Basis Set:
  Basis Set: CC-PVTZ
  Basis Set:
  @DF-RHF Final Energy:  -266.92282271200230
    Total Energy =                       -266.9228227120022439
  Basis Set: CC-PVTZ
  Basis Set:
  Basis Set: CC-PVTZ
  Basis Set:
  @DF-RHF Final Energy:  -266.92282822912671
    Total Energy =                       -266.9228282291267078
  Basis Set: CC-PVTZ
  Basis Set:
  Basis Set: CC-PVTZ
  Basis Set:
  @DF-RHF Final Energy:  -266.92282660573073
    Total Energy =                       -266.9228266057309611
  Basis Set: CC-PVTZ
  Basis Set:
  Basis Set: CC-PVTZ
  Basis Set:
  @DF-RHF Final Energy:  -266.92275905090185
    Total Energy =                       -266.9227590509018455
  Basis Set: CC-PVTZ
  Basis Set:
  Charge       = 0
  Multiplicity = 1
  Basis Set: CC-PVTZ
  Basis Set:

    Orbital Energies (a.u.)
    -----------------------

    Doubly Occupied:

       1A    -20.581874     2A    -20.545857     3A    -11.371907
       4A    -11.287773     5A    -11.236449     6A     -1.464803
       7A     -1.370799     8A     -1.030345     9A     -0.959635
      10A     -0.779119    11A     -0.697266    12A     -0.685448
      13A     -0.671958    14A     -0.609842    15A     -0.592996
      16A     -0.574963    17A     -0.538912    18A     -0.505537
      19A     -0.460529    20A     -0.444824

  @DF-RHF Final Energy:  -266.92282888388445

   => Energetics <=

    Nuclear Repulsion Energy =            182.7598341633891152
    One-Electron Energy =                -726.5436575469111631
    Two-Electron Energy =                 276.8609944996376271
    DFT Exchange-Correlation Energy =       0.0000000000000000
    Empirical Dispersion Energy =           0.0000000000000000
    PCM Polarization Energy =               0.0000000000000000
    EFP Energy =                            0.0000000000000000
    Total Energy =                       -266.9228288838844492
    Molecular point group: c1
  Basis Set: CC-PVTZ
  Basis Set:

  -Total Gradient:
     Atom            X                  Y                   Z
    ------   -----------------  -----------------  -----------------
       1       -0.000222836698    -0.000155790900    -0.006954786591
       2       -0.001245123550    -0.001587336781     0.011184907308
       3       -0.000029750001     0.000035756855     0.000030572158
       4        0.004858283549     0.005559552315    -0.006340501929
       5       -0.000000905700    -0.000004334354    -0.000016093860
       6        0.000010829282    -0.000007928862    -0.000007383438
       7       -0.000008269367    -0.000016553567     0.000001343774
       8       -0.003349212597    -0.003823874016     0.002125024148
       9        0.000004304637     0.000009428850    -0.000012936331
      10       -0.000023912317     0.000004077504    -0.000026420540
      11        0.000006592761    -0.000012997044     0.000016275301

  **** Optimization is complete! (in 8 steps) ****
    Final optimized geometry and variables:
    Molecular point group: c1

    Geometry (in Angstrom), charge = 0, multiplicity = 1:

    O           -0.169560735717     1.437713655256    -0.263542650086
    C           -0.348800324316     0.275127416180    -0.225766849703
    C           -1.695948033563    -0.385699313830    -0.267917572112
    O            0.665384473279    -0.610581328649    -0.235592599209
    H           -1.742864182054    -1.036352029570    -1.131991892386
    H           -2.475286328860     0.357516831484    -0.315727939300
    H           -1.824297529475    -1.006288549735     0.611108556432
    C            1.468093053295    -0.673291131344     0.923767841362
    H            1.894205238919     0.294288171422     1.149644346604
    H            2.256629719982    -1.378396741504     0.717355365597
    H            0.888666477189    -1.024635142786     1.770320586660

  Mulliken Charges: (a.u.)
   Center  Symbol    Alpha    Beta     Spin     Total
       1     O     4.17317  4.17317  0.00000 -0.34635
       2     C     2.79894  2.79894  0.00000  0.40212
       3     C     3.13727  3.13727  0.00000 -0.27454
       4     O     4.16615  4.16615  0.00000 -0.33229
       5     H     0.44337  0.44337  0.00000  0.11326
       6     H     0.43811  0.43811  0.00000  0.12378
       7     H     0.45041  0.45041  0.00000  0.09918
       8     C     3.03005  3.03005  0.00000 -0.06009
       9     H     0.45011  0.45011  0.00000  0.09978
      10     H     0.44501  0.44501  0.00000  0.10998
      11     H     0.46742  0.46742  0.00000  0.06516

   Total alpha = 20.00000, Total beta = 20.00000, Total charge =  0.00000
