  ==> Input File <==

--------------------------------------------------------------------------
set {
	reference rhf
	basis 6-31G*
}

set_num_threads( 4 )
memory 2 gb

molecule MOL {
0 1

O	 0.785804	 1.237737	 -0.381960
C	 0.576249	 0.131685	 -0.000108
C	 -0.766779	 -0.556801	 -0.000461
O	 1.522506	 -0.659986	 0.488274
C	 -1.945214	 0.412366	 0.000161
H	 -0.796911	 -1.211249	 -0.867467
H	 -0.796854	 -1.212390	 0.865687
C	 -3.287791	 -0.317055	 0.000105
H	 -1.876087	 1.060580	 -0.866812
H	 -1.875822	 1.059691	 0.867761
H	 -3.394745	 -0.949193	 -0.877058
H	 -4.111778	 0.388953	 0.000015
H	 -3.394954	 -0.949187	 0.877259
C	 2.835626	 -0.132953	 0.544482
H	 3.183502	 0.126690	 -0.445018
H	 3.449599	 -0.914796	 0.963558
H	 2.866146	 0.745043	 1.173531

	symmetry c1
}
set optking {
	frozen_dihedral = ("
		1 2 3 6
	")
}

ee = optimize('scf')
oeprop('DIPOLE', 'QUADRUPOLE', 'MULLIKEN_CHARGES')
f=open( 'psi4out.xyz', 'w' )
f.write( "17  " )
f.write( str(ee) + "\n" )
f.write( MOL.save_string_xyz() )
f.close()
--------------------------------------------------------------------------

    Molecular point group: c1
  Charge       = 0
  Multiplicity = 1
  Basis Set: 6-31G*
  Basis Set:
  @DF-RHF Final Energy:  -344.90632006200207
    Total Energy =                       -344.9063200620022371
    Molecular point group: c1
  Basis Set: 6-31G*
  Basis Set:
  Basis Set: 6-31G*
  Basis Set:
  @DF-RHF Final Energy:  -344.90553829745829
    Total Energy =                       -344.9055382974582358
  Basis Set: 6-31G*
  Basis Set:
  Basis Set: 6-31G*
  Basis Set:
  @DF-RHF Final Energy:  -344.90644617446384
    Total Energy =                       -344.9064461744639516
  Basis Set: 6-31G*
  Basis Set:
  Basis Set: 6-31G*
  Basis Set:
  @DF-RHF Final Energy:  -344.90652295292841
    Total Energy =                       -344.9065229529282419
  Basis Set: 6-31G*
  Basis Set:
  Charge       = 0
  Multiplicity = 1
  Basis Set: 6-31G*
  Basis Set:

    Orbital Energies (a.u.)
    -----------------------

    Doubly Occupied:

       1A    -20.604789     2A    -20.545122     3A    -11.372689
       4A    -11.281155     5A    -11.235845     6A    -11.222843
       7A    -11.214878     8A     -1.469982     9A     -1.362968
      10A     -1.080685    11A     -1.001368    12A     -0.940144
      13A     -0.827385    14A     -0.768212    15A     -0.700105
      16A     -0.683172    17A     -0.672365    18A     -0.637151
      19A     -0.594982    20A     -0.576925    21A     -0.566750
      22A     -0.528712    23A     -0.522672    24A     -0.499213
      25A     -0.486356    26A     -0.478805    27A     -0.456601
      28A     -0.437425

  @DF-RHF Final Energy:  -344.90652329025113

   => Energetics <=

    Nuclear Repulsion Energy =            312.4827366682546881
    One-Electron Energy =               -1089.2399167511621272
    Two-Electron Energy =                 431.8506567926560251
    DFT Exchange-Correlation Energy =       0.0000000000000000
    Empirical Dispersion Energy =           0.0000000000000000
    PCM Polarization Energy =               0.0000000000000000
    EFP Energy =                            0.0000000000000000
    Total Energy =                       -344.9065232902514140
    Molecular point group: c1
  Basis Set: 6-31G*
  Basis Set:

  -Total Gradient:
     Atom            X                  Y                   Z
    ------   -----------------  -----------------  -----------------
       1        0.000152381825    -0.000333304983    -0.000729452485
       2       -0.000309068862     0.000626756270     0.001017262739
       3        0.000430660219    -0.000812838268     0.000097707681
       4       -0.000005963419     0.000004424593     0.000107643570
       5        0.000007181757     0.000019984820     0.000016328295
       6       -0.000313667242     0.000556338024    -0.000410983388
       7        0.000028687367    -0.000003753178     0.000007311975
       8        0.000009795518    -0.000018677523    -0.000000802332
       9       -0.000006448823     0.000009766694    -0.000005726123
      10        0.000014913433    -0.000013111651    -0.000010091890
      11       -0.000004266295    -0.000004296158    -0.000000867177
      12        0.000008707447     0.000004872773     0.000003318380
      13       -0.000003739485    -0.000001690130     0.000000282887
      14       -0.000008535129    -0.000077085877    -0.000183954460
      15        0.000041221361     0.000014246022     0.000037253688
      16        0.000002089966     0.000012398456     0.000028142282
      17       -0.000043949646     0.000015970114     0.000026626357

  **** Optimization is complete! (in 5 steps) ****
    Final optimized geometry and variables:
    Molecular point group: c1

    Geometry (in Angstrom), charge = 0, multiplicity = 1:

    O            0.779114049842     1.225732249261    -0.440877020020
    C            0.581029236620     0.117790454164    -0.057458944024
    C           -0.759200385667    -0.577042946562    -0.056592021106
    O            1.542074307186    -0.676098545824     0.395584449845
    C           -1.938414107646     0.392386543077    -0.104559146304
    H           -0.771511260140    -1.227370532745    -0.929091326202
    H           -0.811138637514    -1.227000645935     0.809726792578
    C           -3.279989575023    -0.337246607046    -0.148357706865
    H           -1.835200923831     1.035362761942    -0.970704757089
    H           -1.903191228393     1.043219684915     0.764050146040
    H           -3.355807644636    -0.970999042191    -1.027605656511
    H           -4.103497539765     0.368640246557    -0.178888746360
    H           -3.417489960902    -0.967603157505     0.725729978130
    C            2.859085986604    -0.155435456519     0.394373046095
    H            3.167358669649     0.097304743893    -0.609923319711
    H            3.486019988387    -0.937953840305     0.792532173937
    H            2.918959831779     0.725756378196     1.016691319474

  Mulliken Charges: (a.u.)
   Center  Symbol    Alpha    Beta     Spin     Total
       1     O     4.28616  4.28616  0.00000 -0.57231
       2     C     2.60511  2.60511  0.00000  0.78978
       3     C     3.20670  3.20670  0.00000 -0.41340
       4     O     4.30664  4.30664  0.00000 -0.61328
       5     C     3.15399  3.15399  0.00000 -0.30799
       6     H     0.40052  0.40052  0.00000  0.19896
       7     H     0.40111  0.40111  0.00000  0.19777
       8     C     3.24249  3.24249  0.00000 -0.48498
       9     H     0.40582  0.40582  0.00000  0.18836
      10     H     0.41513  0.41513  0.00000  0.16974
      11     H     0.42101  0.42101  0.00000  0.15798
      12     H     0.41513  0.41513  0.00000  0.16974
      13     H     0.42124  0.42124  0.00000  0.15751
      14     C     3.09290  3.09290  0.00000 -0.18580
      15     H     0.40918  0.40918  0.00000  0.18165
      16     H     0.40833  0.40833  0.00000  0.18333
      17     H     0.40852  0.40852  0.00000  0.18296

   Total alpha = 28.00000, Total beta = 28.00000, Total charge =  0.00000
