  ==> Input File <==

--------------------------------------------------------------------------
set {
	reference rhf
	basis cc-pvtz
}

set_num_threads( 4 )
memory 2 gb

molecule MOL {
0 1

H	 1.237618	 -2.010929	 -2.418573
C	 1.249382	 -1.133940	 -1.780187
C	 0.061802	 -1.160746	 -0.827591
H	 1.207629	 -0.251633	 -2.406854
H	 2.196506	 -1.124667	 -1.255208
N	 0.000297	 0.000045	 0.046090
H	 -0.841966	 -1.190180	 -1.420427
H	 0.072470	 -2.087184	 -0.246620
C	 -1.359159	 0.315706	 0.454404
C	 0.908234	 -0.107671	 1.176829
C	 -2.416729	 -0.286720	 -0.460525
H	 -1.478729	 1.390261	 0.442008
H	 -1.539692	 0.003361	 1.486761
C	 1.377976	 1.242491	 1.701085
H	 1.779228	 -0.666582	 0.863706
H	 0.455056	 -0.683801	 1.988381
H	 -2.285276	 0.073129	 -1.473515
H	 -2.371743	 -1.368476	 -0.483209
H	 -3.408658	 -0.007405	 -0.121593
H	 1.889563	 1.790818	 0.919725
H	 0.556776	 1.854055	 2.053782
H	 2.063226	 1.104629	 2.530687

	symmetry c1
}
set optking {
	frozen_dihedral = ("
		3 6 9 11
	")
}

ee = optimize('scf')
oeprop('DIPOLE', 'QUADRUPOLE', 'MULLIKEN_CHARGES')
f=open( 'psi4out.xyz', 'w' )
f.write( "22  " )
f.write( str(ee) + "\n" )
f.write( MOL.save_string_xyz() )
f.close()
--------------------------------------------------------------------------

    Molecular point group: c1
  Charge       = 0
  Multiplicity = 1
  Basis Set: CC-PVTZ
  Basis Set:
  @DF-RHF Final Energy:  -290.45980416407650
    Total Energy =                       -290.4598041640763313
    Molecular point group: c1
  Basis Set: CC-PVTZ
  Basis Set:
  Basis Set: CC-PVTZ
  Basis Set:
  @DF-RHF Final Energy:  -290.45587139601241
    Total Energy =                       -290.4558713960121850
  Basis Set: CC-PVTZ
  Basis Set:
  Basis Set: CC-PVTZ
  Basis Set:
  @DF-RHF Final Energy:  -290.46669444912180
    Total Energy =                       -290.4666944491222011
  Basis Set: CC-PVTZ
  Basis Set:
  Basis Set: CC-PVTZ
  Basis Set:
  @DF-RHF Final Energy:  -290.46885822629679
    Total Energy =                       -290.4688582262968453
  Basis Set: CC-PVTZ
  Basis Set:
  @DF-RHF Final Energy:  -290.46903970066035
    Total Energy =                       -290.4690397006605167
  Basis Set: CC-PVTZ
  Basis Set:
  @DF-RHF Final Energy:  -290.46921361186469
    Total Energy =                       -290.4692136118648023
  Basis Set: CC-PVTZ
  Basis Set:
  Basis Set: CC-PVTZ
  Basis Set:
  @DF-RHF Final Energy:  -290.46923051629813
    Total Energy =                       -290.4692305162984667
  Basis Set: CC-PVTZ
  Basis Set:
  Basis Set: CC-PVTZ
  Basis Set:
  @DF-RHF Final Energy:  -290.46924752388009
    Total Energy =                       -290.4692475238801421
  Basis Set: CC-PVTZ
  Basis Set:
  Charge       = 0
  Multiplicity = 1
  Basis Set: CC-PVTZ
  Basis Set:

    Orbital Energies (a.u.)
    -----------------------

    Doubly Occupied:

       1A    -15.529385     2A    -11.239806     3A    -11.237334
       4A    -11.236787     5A    -11.210597     6A    -11.202921
       7A    -11.202120     8A     -1.221451     9A     -1.025563
      10A     -1.024010    11A     -0.957950    12A     -0.857521
      13A     -0.844506    14A     -0.759349    15A     -0.652050
      16A     -0.642423    17A     -0.629036    18A     -0.594354
      19A     -0.592072    20A     -0.547211    21A     -0.532666
      22A     -0.520109    23A     -0.515432    24A     -0.502201
      25A     -0.491737    26A     -0.487198    27A     -0.467101
      28A     -0.460565    29A     -0.332763

  @DF-RHF Final Energy:  -290.46924776032859

   => Energetics <=

    Nuclear Repulsion Energy =            337.8206991246682946
    One-Electron Energy =               -1061.5474652316320316
    Two-Electron Energy =                 433.2575183466350950
    DFT Exchange-Correlation Energy =       0.0000000000000000
    Empirical Dispersion Energy =           0.0000000000000000
    PCM Polarization Energy =               0.0000000000000000
    EFP Energy =                            0.0000000000000000
    Total Energy =                       -290.4692477603286420
    Molecular point group: c1
  Basis Set: CC-PVTZ
  Basis Set:

  -Total Gradient:
     Atom            X                  Y                   Z
    ------   -----------------  -----------------  -----------------
       1        0.000001192384     0.000003903994    -0.000001931807
       2       -0.000003319361    -0.000006475034    -0.000017954981
       3       -0.000225589565     0.002205686843    -0.002892515277
       4        0.000002877353    -0.000000533974     0.000000887669
       5       -0.000003102947     0.000005838289    -0.000004188489
       6        0.000159495490    -0.004575087987     0.005222540383
       7       -0.000021605015    -0.000008244584     0.000001630034
       8       -0.000003062422     0.000008703230     0.000002568326
       9        0.000354227333     0.005136518875    -0.004204399035
      10        0.000028356724     0.000024577748    -0.000047455919
      11       -0.000260413013    -0.002798565178     0.001908279085
      12        0.000027784262     0.000003767252    -0.000001732455
      13        0.000002764731     0.000006126700     0.000020120330
      14       -0.000026362500    -0.000008901712     0.000006847912
      15       -0.000004729176    -0.000008984705     0.000011104847
      16       -0.000015241093     0.000016472194    -0.000001907140
      17        0.000014063807    -0.000009865100    -0.000013173834
      18       -0.000004985046     0.000009232158     0.000008944353
      19        0.000001785543     0.000000445508    -0.000002445363
      20        0.000000822906    -0.000014253658    -0.000001315669
      21       -0.000021868919     0.000014748243     0.000002330733
      22       -0.000003091482    -0.000005109101     0.000003766295

  **** Optimization is complete! (in 9 steps) ****
    Final optimized geometry and variables:
    Molecular point group: c1

    Geometry (in Angstrom), charge = 0, multiplicity = 1:

    H            1.385453119537    -1.851782061320    -2.480294465576
    C            1.377383718258    -1.003769692100    -1.803502965748
    C            0.153310814673    -1.077982708996    -0.896468136455
    H            1.351909059600    -0.094521399854    -2.391738974040
    H            2.309280090555    -1.020638430565    -1.253468852514
    N            0.030834199073     0.067920482384    -0.016458896845
    H           -0.711757864191    -1.124219299128    -1.535644404700
    H            0.173755784367    -2.020348424837    -0.339214472087
    C           -1.300240944848     0.489390260627     0.409104378579
    C            0.973731259029     0.061456691188     1.082290339415
    C           -2.481119895151     0.025219291282    -0.432196315886
    H           -1.319091946426     1.572254943821     0.449659305535
    H           -1.486178176129     0.145996996394     1.430074895158
    C            1.253460115912     1.443830362060     1.658865002799
    H            1.908937101804    -0.349017655698     0.730555606057
    H            0.629326913420    -0.599604545104     1.884823644579
    H           -2.397560583931     0.340079005744    -1.465876159259
    H           -2.607436876625    -1.049348507225    -0.409639466994
    H           -3.382732889294     0.469834096025    -0.027038377968
    H            1.596717556049     2.115666168350     0.881091918518
    H            0.377173173837     1.881193962843     2.120261145875
    H            2.023296370441     1.377250543253     2.419712386428

  Mulliken Charges: (a.u.)
   Center  Symbol    Alpha    Beta     Spin     Total
       1     H     0.45310  0.45310  0.00000  0.09379
       2     C     3.14228  3.14228  0.00000 -0.28456
       3     C     3.04205  3.04205  0.00000 -0.08411
       4     H     0.45270  0.45270  0.00000  0.09459
       5     H     0.45520  0.45520  0.00000  0.08960
       6     N     3.61828  3.61828  0.00000 -0.23656
       7     H     0.44671  0.44671  0.00000  0.10659
       8     H     0.46816  0.46816  0.00000  0.06367
       9     C     3.02377  3.02377  0.00000 -0.04754
      10     C     3.04235  3.04235  0.00000 -0.08471
      11     C     3.16320  3.16320  0.00000 -0.32641
      12     H     0.45597  0.45597  0.00000  0.08805
      13     H     0.47164  0.47164  0.00000  0.05672
      14     C     3.14761  3.14761  0.00000 -0.29523
      15     H     0.45010  0.45010  0.00000  0.09979
      16     H     0.46600  0.46600  0.00000  0.06801
      17     H     0.45111  0.45111  0.00000  0.09777
      18     H     0.45064  0.45064  0.00000  0.09871
      19     H     0.44435  0.44435  0.00000  0.11130
      20     H     0.45105  0.45105  0.00000  0.09790
      21     H     0.45310  0.45310  0.00000  0.09381
      22     H     0.45060  0.45060  0.00000  0.09880

   Total alpha = 29.00000, Total beta = 29.00000, Total charge = -0.00000
