  ==> Input File <==

--------------------------------------------------------------------------
set {
	reference rhf
	basis 6-31G*
}

set_num_threads( 1 )
memory 2 gb

molecule MOL {
0 1

O	 -2.763190	 0.722013	 0.474477
C	 -1.921153	 0.064240	 -0.045697
C	 -2.169092	 -0.971831	 -1.108443
O	 -0.632575	 0.154573	 0.251549
H	 -1.815428	 -1.938081	 -0.767516
H	 -3.225203	 -1.020764	 -1.327695
H	 -1.615078	 -0.717016	 -2.004487
C	 0.160891	 -1.019931	 0.106212
C	 1.589627	 -0.672828	 0.480843
H	 0.089836	 -1.367806	 -0.916050
H	 -0.238459	 -1.792301	 0.749618
C	 2.246377	 0.346236	 -0.452210
H	 2.163194	 -1.597435	 0.473358
H	 1.604769	 -0.303424	 1.502885
C	 3.691736	 0.652107	 -0.061850
H	 2.219579	 -0.032311	 -1.472055
H	 1.666466	 1.263317	 -0.447249
H	 4.134505	 1.377213	 -0.737283
H	 4.305508	 -0.243868	 -0.089969
H	 3.748266	 1.059562	 0.943567

	symmetry c1
}
set optking {
	frozen_dihedral = ("
		16 12 9 8,
		2 4 8 10,
		12 9 8 10
	")
}

ee = energy('scf')
oeprop('DIPOLE', 'QUADRUPOLE', 'MULLIKEN_CHARGES')
f=open( 'psi4out.xyz', 'w' )
f.write( "20  " )
f.write( str(ee) + "\n" )
f.write( MOL.save_string_xyz() )
f.close()
--------------------------------------------------------------------------

    Molecular point group: c1

    Geometry (in Angstrom), charge = 0, multiplicity = 1:

       Center              X                  Y                   Z               Mass
    ------------   -----------------  -----------------  -----------------  -----------------
           O         -2.780467513217     0.812961606923     0.521735293838    15.994914619560
           C         -1.938430513217     0.155188606923     0.001561293838    12.000000000000
           C         -2.186369513217    -0.880882393077    -1.061184706162    12.000000000000
           O         -0.649852513217     0.245521606923     0.298807293838    15.994914619560
           H         -1.832705513217    -1.847132393077    -0.720257706162     1.007825032070
           H         -3.242480513217    -0.929815393077    -1.280436706162     1.007825032070
           H         -1.632355513217    -0.626067393077    -1.957228706162     1.007825032070
           C          0.143613486783    -0.928982393077     0.153470293838    12.000000000000
           C          1.572349486783    -0.581879393077     0.528101293838    12.000000000000
           H          0.072558486783    -1.276857393077    -0.868791706162     1.007825032070
           H         -0.255736513217    -1.701352393077     0.796876293838     1.007825032070
           C          2.229099486783     0.437184606923    -0.404951706162    12.000000000000
           H          2.145916486783    -1.506486393077     0.520616293838     1.007825032070
           H          1.587491486783    -0.212475393077     1.550143293838     1.007825032070
           C          3.674458486783     0.743055606923    -0.014591706162    12.000000000000
           H          2.202301486783     0.058637606923    -1.424796706162     1.007825032070
           H          1.649188486783     1.354265606923    -0.399990706162     1.007825032070
           H          4.117227486783     1.468161606923    -0.690024706162     1.007825032070
           H          4.288230486783    -0.152919393077    -0.042710706162     1.007825032070
           H          3.730988486783     1.150510606923     0.990825293838     1.007825032070

  Charge       = 0
  Multiplicity = 1
  Basis Set: 6-31G*
  Basis Set:

    Orbital Energies (a.u.)
    -----------------------

    Doubly Occupied:

       1A    -20.600565     2A    -20.545386     3A    -11.376432
       4A    -11.298865     5A    -11.237895     6A    -11.232752
       7A    -11.225012     8A    -11.216290     9A     -1.465698
      10A     -1.368465    11A     -1.089226    12A     -1.021979
      13A     -1.004164    14A     -0.892157    15A     -0.816182
      16A     -0.783108    17A     -0.700081    18A     -0.693660
      19A     -0.664981    20A     -0.635282    21A     -0.614628
      22A     -0.592183    23A     -0.577624    24A     -0.560492
      25A     -0.550308    26A     -0.537857    27A     -0.508827
      28A     -0.489930    29A     -0.482871    30A     -0.479148
      31A     -0.447284    32A     -0.432888

  @DF-RHF Final Energy:  -383.92170128799671

   => Energetics <=

    Nuclear Repulsion Energy =            387.4648037097763336
    One-Electron Energy =               -1290.4883556755282825
    Two-Electron Energy =                 519.1018506777563744
    DFT Exchange-Correlation Energy =       0.0000000000000000
    Empirical Dispersion Energy =           0.0000000000000000
    PCM Polarization Energy =               0.0000000000000000
    EFP Energy =                            0.0000000000000000
    Total Energy =                       -383.9217012879955746

  Mulliken Charges: (a.u.)
   Center  Symbol    Alpha    Beta     Spin     Total
       1     O     4.26693  4.26693  0.00000 -0.53386
       2     C     2.60858  2.60858  0.00000  0.78284
       3     C     3.31714  3.31714  0.00000 -0.63429
       4     O     4.30173  4.30173  0.00000 -0.60346
       5     H     0.40162  0.40162  0.00000  0.19676
       6     H     0.39057  0.39057  0.00000  0.21886
       7     H     0.39867  0.39867  0.00000  0.20267
       8     C     3.01505  3.01505  0.00000 -0.03009
       9     C     3.16055  3.16055  0.00000 -0.32111
      10     H     0.41474  0.41474  0.00000  0.17053
      11     H     0.41113  0.41113  0.00000  0.17774
      12     C     3.15676  3.15676  0.00000 -0.31351
      13     H     0.41928  0.41928  0.00000  0.16145
      14     H     0.40832  0.40832  0.00000  0.18337
      15     C     3.24094  3.24094  0.00000 -0.48188
      16     H     0.42527  0.42527  0.00000  0.14947
      17     H     0.40585  0.40585  0.00000  0.18829
      18     H     0.41622  0.41622  0.00000  0.16755
      19     H     0.42228  0.42228  0.00000  0.15544
      20     H     0.41838  0.41838  0.00000  0.16323

   Total alpha = 32.00000, Total beta = 32.00000, Total charge =  0.00000
