  ==> Input File <==

--------------------------------------------------------------------------
set {
	reference rhf
	basis cc-pvtz
}

set_num_threads( 4 )
memory 2 gb

molecule MOL {
0 1

H	 2.927771	 1.465131	 -0.935266
C	 2.214341	 1.287668	 -0.141034
C	 1.322304	 0.099773	 -0.484271
H	 2.771520	 1.111321	 0.772106
H	 1.632252	 2.192783	 -0.009586
C	 0.308557	 -0.162619	 0.622645
H	 1.923852	 -0.789271	 -0.627363
H	 0.791244	 0.287281	 -1.409340
N	 -1.069352	 -0.004081	 0.085342
H	 0.371632	 -1.172932	 0.991288
H	 0.400391	 0.548875	 1.426218
O	 -1.584901	 -0.965470	 -0.377818
O	 -1.548033	 1.079343	 0.130056

	symmetry c1
}
set optking {
	frozen_dihedral = ("
		7 3 6 9
	")
}

ee = optimize('scf')
oeprop('DIPOLE', 'QUADRUPOLE', 'MULLIKEN_CHARGES')
f=open( 'psi4out.xyz', 'w' )
f.write( "13  " )
f.write( str(ee) + "\n" )
f.write( MOL.save_string_xyz() )
f.close()
--------------------------------------------------------------------------

    Molecular point group: c1
  Charge       = 0
  Multiplicity = 1
  Basis Set: CC-PVTZ
  Basis Set:
  @DF-RHF Final Energy:  -321.85556941530172
    Total Energy =                       -321.8555694153014883
    Molecular point group: c1
  Basis Set: CC-PVTZ
  Basis Set:
  Basis Set: CC-PVTZ
  Basis Set:
  @DF-RHF Final Energy:  -321.85301691312696
    Total Energy =                       -321.8530169131265097
  Basis Set: CC-PVTZ
  Basis Set:
  Basis Set: CC-PVTZ
  Basis Set:
  @DF-RHF Final Energy:  -321.84877342467780
    Total Energy =                       -321.8487734246778018
  Basis Set: CC-PVTZ
  Basis Set:
  Basis Set: CC-PVTZ
  Basis Set:
  @DF-RHF Final Energy:  -321.85595641447287
    Total Energy =                       -321.8559564144729279
  Basis Set: CC-PVTZ
  Basis Set:
  @DF-RHF Final Energy:  -321.85605990199389
    Total Energy =                       -321.8560599019940014
  @DF-RHF Final Energy:  -321.85608093813130
    Total Energy =                       -321.8560809381316972
  Basis Set: CC-PVTZ
  Basis Set:
  @DF-RHF Final Energy:  -321.85608841011435
    Total Energy =                       -321.8560884101143529
  Basis Set: CC-PVTZ
  Basis Set:
  Basis Set: CC-PVTZ
  Basis Set:
  @DF-RHF Final Energy:  -321.85609539785656
    Total Energy =                       -321.8560953978567909
  Basis Set: CC-PVTZ
  Basis Set:
  Basis Set: CC-PVTZ
  Basis Set:
  @DF-RHF Final Energy:  -321.85609769545675
    Total Energy =                       -321.8560976954565831
  Basis Set: CC-PVTZ
  Basis Set:
  Charge       = 0
  Multiplicity = 1
  Basis Set: CC-PVTZ
  Basis Set:

    Orbital Energies (a.u.)
    -----------------------

    Doubly Occupied:

       1A    -20.592135     2A    -20.589032     3A    -15.837068
       4A    -11.297456     5A    -11.255173     6A    -11.232293
       7A     -1.636205     8A     -1.420446     9A     -1.131075
      10A     -1.026083    11A     -0.885206    12A     -0.833741
      13A     -0.763208    14A     -0.737648    15A     -0.727135
      16A     -0.657831    17A     -0.617215    18A     -0.591122
      19A     -0.537676    20A     -0.520118    21A     -0.515257
      22A     -0.484091    23A     -0.474387    24A     -0.454308

  @DF-RHF Final Energy:  -321.85609806491527

   => Energetics <=

    Nuclear Repulsion Energy =            249.3689982943284633
    One-Electron Energy =                -932.8183805283920265
    Two-Electron Energy =                 361.5932841691483191
    DFT Exchange-Correlation Energy =       0.0000000000000000
    Empirical Dispersion Energy =           0.0000000000000000
    PCM Polarization Energy =               0.0000000000000000
    EFP Energy =                            0.0000000000000000
    Total Energy =                       -321.8560980649152725
    Molecular point group: c1
  Basis Set: CC-PVTZ
  Basis Set:

  -Total Gradient:
     Atom            X                  Y                   Z
    ------   -----------------  -----------------  -----------------
       1       -0.000005503239    -0.000006101158     0.000006263691
       2       -0.000000834616    -0.000000750169     0.000009969156
       3        0.000573852959     0.000118259094     0.000511702165
       4        0.000001965100     0.000004429246     0.000004557604
       5        0.000002134731     0.000004830971    -0.000005996291
       6       -0.000153135700     0.000614478598     0.000097151171
       7       -0.000453242029    -0.000224065765    -0.000489740308
       8       -0.000003295007    -0.000009080724    -0.000001070905
       9       -0.000041845927    -0.000536618655    -0.000172844092
      10       -0.000005652628    -0.000001207548    -0.000007792371
      11       -0.000003877274    -0.000000705206    -0.000004815094
      12        0.000054346104    -0.000029857421     0.000024683392
      13        0.000035087527     0.000066388739     0.000027931881

  **** Optimization is complete! (in 10 steps) ****
    Final optimized geometry and variables:
    Molecular point group: c1

    Geometry (in Angstrom), charge = 0, multiplicity = 1:

    H            3.036847401020     1.257041734836    -0.907444569523
    C            2.320491573273     1.080542873179    -0.114904321408
    C            1.425307390448    -0.104863419869    -0.456560457813
    H            2.875103376915     0.902597992091     0.800010061580
    H            1.733537863654     1.981429778853     0.016092798011
    C            0.393225615976    -0.414791220979     0.644637916372
    H            2.023877322516    -0.990473293442    -0.624326688212
    H            0.905916455442     0.090034741824    -1.385822212366
    N           -0.985412414272    -0.239813265019     0.116229569772
    H            0.447652507443    -1.432526984993     0.987367724092
    H            0.472480877963     0.268061095551     1.474079013882
    O           -1.575078180310    -1.213310093590    -0.211497954192
    O           -1.391793536426     0.871642310829     0.032164598760

  Mulliken Charges: (a.u.)
   Center  Symbol    Alpha    Beta     Spin     Total
       1     H     0.44535  0.44535  0.00000  0.10931
       2     C     3.14890  3.14890  0.00000 -0.29780
       3     C     3.08934  3.08934  0.00000 -0.17869
       4     H     0.45402  0.45402  0.00000  0.09196
       5     H     0.44459  0.44459  0.00000  0.11082
       6     C     3.04419  3.04419  0.00000 -0.08838
       7     H     0.44282  0.44282  0.00000  0.11436
       8     H     0.44054  0.44054  0.00000  0.11892
       9     N     3.27871  3.27871  0.00000  0.44259
      10     H     0.42956  0.42956  0.00000  0.14088
      11     H     0.43640  0.43640  0.00000  0.12721
      12     O     4.16995  4.16995  0.00000 -0.33989
      13     O     4.17565  4.17565  0.00000 -0.35130

   Total alpha = 24.00000, Total beta = 24.00000, Total charge =  0.00000
