  ==> Input File <==

--------------------------------------------------------------------------
set {
	reference rhf
	basis 6-31G*
}

set_num_threads( 4 )
memory 2 gb

molecule MOL {
0 1

H	 -1.132040	 -0.602443	 0.584739
N	 -0.712432	 0.000013	 -0.096310
C	 0.734192	 -0.000004	 0.040609
H	 -1.082384	 0.917381	 0.059987
H	 1.139899	 -0.873598	 -0.456463
H	 1.139939	 0.873831	 -0.456100
H	 1.096456	 -0.000300	 1.069655

	symmetry c1
}
set optking {
	frozen_dihedral = ("
		1 2 3 7
	")
}

ee = optimize('scf')
oeprop('DIPOLE', 'QUADRUPOLE', 'MULLIKEN_CHARGES')
f=open( 'psi4out.xyz', 'w' )
f.write( "7  " )
f.write( str(ee) + "\n" )
f.write( MOL.save_string_xyz() )
f.close()
--------------------------------------------------------------------------

    Molecular point group: c1
  Charge       = 0
  Multiplicity = 1
  Basis Set: 6-31G*
  Basis Set:
  @DF-RHF Final Energy:   -95.20888916739469
    Total Energy =                        -95.2088891673946733
    Molecular point group: c1
  Basis Set: 6-31G*
  Basis Set:
  Basis Set: 6-31G*
  Basis Set:
  @DF-RHF Final Energy:   -95.20894686693367
    Total Energy =                        -95.2089468669336298
  Basis Set: 6-31G*
  Basis Set:
  Charge       = 0
  Multiplicity = 1
  Basis Set: 6-31G*
  Basis Set:

    Orbital Energies (a.u.)
    -----------------------

    Doubly Occupied:

       1A    -15.535190     2A    -11.237618     3A     -1.171094
       4A     -0.897058     5A     -0.663537     6A     -0.602641
       7A     -0.556561     8A     -0.517968     9A     -0.384811

  @DF-RHF Final Energy:   -95.20895244609824

   => Energetics <=

    Nuclear Repulsion Energy =             42.3098934299735063
    One-Electron Energy =                -211.9047378240536545
    Two-Electron Energy =                  74.3858919479820173
    DFT Exchange-Correlation Energy =       0.0000000000000000
    Empirical Dispersion Energy =           0.0000000000000000
    PCM Polarization Energy =               0.0000000000000000
    EFP Energy =                            0.0000000000000000
    Total Energy =                        -95.2089524460981380
    Molecular point group: c1
  Basis Set: 6-31G*
  Basis Set:

  -Total Gradient:
     Atom            X                  Y                   Z
    ------   -----------------  -----------------  -----------------
       1       -0.000050490644     0.002166335992     0.001613436168
       2        0.000289571423    -0.003206691447    -0.002058206344
       3       -0.000385801576     0.003751655442     0.000424280755
       4        0.000068062515    -0.000161306136     0.000001081556
       5        0.000071865370    -0.000004916511     0.000030391962
       6       -0.000045113008    -0.000005152481    -0.000000907299
       7        0.000051905919    -0.002539924858    -0.000010076799

  **** Optimization is complete! (in 3 steps) ****
    Final optimized geometry and variables:
    Molecular point group: c1

    Geometry (in Angstrom), charge = 0, multiplicity = 1:

    H           -1.131975976917    -0.615033027167     0.583086707623
    N           -0.713948939716    -0.010674223960    -0.097318026541
    C            0.734920079484    -0.008527097912     0.042811955692
    H           -1.079304423395     0.903584533314     0.086080633312
    H            1.146304150798    -0.888326349142    -0.440290669188
    H            1.144769849227     0.858934440782    -0.460183700576
    H            1.089495559790    -0.009317497234     1.073723154965

  Mulliken Charges: (a.u.)
   Center  Symbol    Alpha    Beta     Spin     Total
       1     H     0.33377  0.33377  0.00000  0.33245
       2     N     3.91637  3.91637  0.00000 -0.83275
       3     C     3.14849  3.14849  0.00000 -0.29698
       4     H     0.33418  0.33418  0.00000  0.33164
       5     H     0.41632  0.41632  0.00000  0.16736
       6     H     0.41847  0.41847  0.00000  0.16305
       7     H     0.43239  0.43239  0.00000  0.13523

   Total alpha =  9.00000, Total beta =  9.00000, Total charge =  0.00000
