  ==> Input File <==

--------------------------------------------------------------------------
set {
	reference rhf
	basis 6-31G*
}

set_num_threads( 4 )
memory 2 gb

molecule MOL {
0 1

H	 -0.821032	 -1.655889	 0.000000
O	 -1.037828	 -0.728600	 0.000000
C	 0.100509	 -0.036935	 0.000000
C	 0.112967	 1.019156	 1.067904
O	 0.978323	 -0.257695	 -0.768069
H	 -0.714226	 1.702466	 0.914425
H	 1.049014	 1.555712	 1.035113
H	 -0.018073	 0.556742	 2.039355

	symmetry c1
}
set optking {
	frozen_dihedral = ("
		4 3 2 1
	")
}

ee = optimize('scf')
oeprop('DIPOLE', 'QUADRUPOLE', 'MULLIKEN_CHARGES')
f=open( 'psi4out.xyz', 'w' )
f.write( "8  " )
f.write( str(ee) + "\n" )
f.write( MOL.save_string_xyz() )
f.close()
--------------------------------------------------------------------------

    Molecular point group: c1
  Charge       = 0
  Multiplicity = 1
  Basis Set: 6-31G*
  Basis Set:
  @DF-RHF Final Energy:  -227.79729013464458
    Total Energy =                       -227.7972901346446406
    Molecular point group: c1
  Basis Set: 6-31G*
  Basis Set:
  Basis Set: 6-31G*
  Basis Set:
  @DF-RHF Final Energy:  -227.79499897606695
    Total Energy =                       -227.7949989760670633
  Basis Set: 6-31G*
  Basis Set:
  Basis Set: 6-31G*
  Basis Set:
  @DF-RHF Final Energy:  -227.79815029979369
    Total Energy =                       -227.7981502997936900
  Basis Set: 6-31G*
  Basis Set:
  Basis Set: 6-31G*
  Basis Set:
  @DF-RHF Final Energy:  -227.79831935120205
    Total Energy =                       -227.7983193512020250
  Basis Set: 6-31G*
  Basis Set:
  @DF-RHF Final Energy:  -227.79838159179366
    Total Energy =                       -227.7983815917935999
  @DF-RHF Final Energy:  -227.79838913720522
    Total Energy =                       -227.7983891372052767
  @DF-RHF Final Energy:  -227.79838568487028
    Total Energy =                       -227.7983856848703397
  Basis Set: 6-31G*
  Basis Set:
  @DF-RHF Final Energy:  -227.79834109798838
    Total Energy =                       -227.7983410979884411
  Basis Set: 6-31G*
  Basis Set:
  Basis Set: 6-31G*
  Basis Set:
  @DF-RHF Final Energy:  -227.79840465828062
    Total Energy =                       -227.7984046582806741
  Basis Set: 6-31G*
  Basis Set:
  Basis Set: 6-31G*
  Basis Set:
  @DF-RHF Final Energy:  -227.79840645377175
    Total Energy =                       -227.7984064537717472
  Basis Set: 6-31G*
  Basis Set:
  Charge       = 0
  Multiplicity = 1
  Basis Set: 6-31G*
  Basis Set:

    Orbital Energies (a.u.)
    -----------------------

    Doubly Occupied:

       1A    -20.604743     2A    -20.558696     3A    -11.386627
       4A    -11.241099     5A     -1.468690     6A     -1.368912
       7A     -1.024724     8A     -0.828491     9A     -0.704151
      10A     -0.677880    11A     -0.656788    12A     -0.582771
      13A     -0.579596    14A     -0.535684    15A     -0.486242
      16A     -0.449446

  @DF-RHF Final Energy:  -227.79840727825587

   => Energetics <=

    Nuclear Repulsion Energy =            122.0680175978149435
    One-Electron Energy =                -553.4237664662493899
    Two-Electron Energy =                 203.5573415901786234
    DFT Exchange-Correlation Energy =       0.0000000000000000
    Empirical Dispersion Energy =           0.0000000000000000
    PCM Polarization Energy =               0.0000000000000000
    EFP Energy =                            0.0000000000000000
    Total Energy =                       -227.7984072782558087
    Molecular point group: c1
  Basis Set: 6-31G*
  Basis Set:

  -Total Gradient:
     Atom            X                  Y                   Z
    ------   -----------------  -----------------  -----------------
       1       -0.000735275761     0.000119034825     0.012536864027
       2        0.001954112365    -0.002408274091    -0.013273759494
       3       -0.003908337540     0.007598396785    -0.004497414172
       4        0.002704788606    -0.005286232931     0.005332472341
       5        0.000036038943    -0.000007366664    -0.000131449843
       6       -0.000025432946     0.000009731364     0.000029047976
       7       -0.000016633586    -0.000016475062     0.000005139018
       8       -0.000009260086    -0.000008814225    -0.000000899852

  **** Optimization is complete! (in 11 steps) ****
    Final optimized geometry and variables:
    Molecular point group: c1

    Geometry (in Angstrom), charge = 0, multiplicity = 1:

    H           -0.935756668003    -1.590616339763    -0.131385768098
    O           -1.093467475000    -0.653666719412    -0.149567036826
    C            0.080258818887     0.007536078258    -0.089050894966
    C            0.078289570405     1.076143707106     0.967265342938
    O            1.019695362880    -0.308502222349    -0.735220164879
    H           -0.816928336102     1.682875808333     0.907176633668
    H            0.960561813035     1.691947854807     0.875937140165
    H            0.075131636144     0.582922458862     1.933737980029

  Mulliken Charges: (a.u.)
   Center  Symbol    Alpha    Beta     Spin     Total
       1     H     0.26524  0.26524  0.00000  0.46952
       2     O     4.35621  4.35621  0.00000 -0.71242
       3     C     2.64175  2.64175  0.00000  0.71650
       4     C     3.28262  3.28262  0.00000 -0.56524
       5     O     4.25893  4.25893  0.00000 -0.51785
       6     H     0.39852  0.39852  0.00000  0.20296
       7     H     0.39634  0.39634  0.00000  0.20733
       8     H     0.40040  0.40040  0.00000  0.19920

   Total alpha = 16.00000, Total beta = 16.00000, Total charge =  0.00000
