                              Psi4 1.0.54 Driver

  ==> Input File <==

--------------------------------------------------------------------------
set {
	reference rhf
	basis cc-pvtz
}

set_num_threads( 4 )
memory 2 gb

molecule MOL {
0 1

H	 2.065282	 1.291343	 -0.948302
O	 1.193361	 0.928626	 -0.992205
C	 1.050374	 0.054877	 0.000135
C	 -0.318151	 -0.570512	 0.000144
O	 1.919991	 -0.173187	 0.768068
C	 -1.454884	 0.441630	 -0.000560
H	 -0.371613	 -1.223646	 -0.864985
H	 -0.371920	 -1.222758	 0.865929
C	 -2.822577	 -0.232186	 0.000063
H	 -1.359760	 1.084704	 -0.867077
H	 -1.359641	 1.085996	 0.864983
H	 -2.954352	 -0.858985	 -0.875745
H	 -3.615886	 0.505352	 0.000019
H	 -2.953878	 -0.858359	 0.876394

	symmetry c1
}
set optking {
	frozen_dihedral = ("
		2 3 4 7
	")
}

ee,wfn = optimize('scf', return_wfn=True)
oeprop( wfn, 'DIPOLE', 'QUADRUPOLE', 'MULLIKEN_CHARGES')
f=open( 'psi4out.xyz', 'w' )
f.write( "14  " )
f.write( str(ee) + "\n" )
f.write( MOL.save_string_xyz() )
f.close()
--------------------------------------------------------------------------

    Molecular point group: c1
  Charge       = 0
  Multiplicity = 1
  Basis Set: CC-PVTZ
  Basis Set:
  @DF-RHF Final Energy:  -305.99919955933774
    Total Energy =                       -305.9991995593377396
    Molecular point group: c1
  Basis Set: CC-PVTZ
  Basis Set:
  Basis Set: CC-PVTZ
  Basis Set:
  @DF-RHF Final Energy:  -305.99939858518798
    Total Energy =                       -305.9993985851880325
  Basis Set: CC-PVTZ
  Basis Set:
  Basis Set: CC-PVTZ
  Basis Set:
  @DF-RHF Final Energy:  -305.99931125148134
    Total Energy =                       -305.9993112514811742
  Basis Set: CC-PVTZ
  Basis Set:
  Basis Set: CC-PVTZ
  Basis Set:
  @DF-RHF Final Energy:  -305.99948242978076
    Total Energy =                       -305.9994824297806417
  Basis Set: CC-PVTZ
  Basis Set:
  Charge       = 0
  Multiplicity = 1
  Basis Set: CC-PVTZ
  Basis Set:

    Orbital Energies (a.u.)
    -----------------------

    Doubly Occupied:

       1A    -20.605103     2A    -20.539430     3A    -11.373180
       4A    -11.238993     5A    -11.231868     6A    -11.218855
       7A     -1.477883     8A     -1.368340     9A     -1.087392
      10A     -0.980519    11A     -0.849941    12A     -0.816853
      13A     -0.704923    14A     -0.687520    15A     -0.654732
      16A     -0.628905    17A     -0.595347    18A     -0.566453
      19A     -0.552894    20A     -0.522676    21A     -0.500660
      22A     -0.488522    23A     -0.478095    24A     -0.440643

  @DF-RHF Final Energy:  -305.99948295879432

   => Energetics <=

    Nuclear Repulsion Energy =            240.8912498634956023
    One-Electron Energy =                -894.5620123351050097
    Two-Electron Energy =                 347.6712795128150901
    DFT Exchange-Correlation Energy =       0.0000000000000000
    Empirical Dispersion Energy =           0.0000000000000000
    PCM Polarization Energy =               0.0000000000000000
    EFP Energy =                            0.0000000000000000
    Total Energy =                       -305.9994829587942604
    Molecular point group: c1
  Basis Set: CC-PVTZ
  Basis Set:

  -Total Gradient:
     Atom            X                  Y                   Z
    ------   -----------------  -----------------  -----------------
       1        0.000022888402     0.000018855021    -0.000015280134
       2       -0.000164475560     0.000468557553     0.000334832069
       3        0.000336440467    -0.000840350446    -0.000316233784
       4       -0.000407676616     0.000840363661    -0.000303964024
       5       -0.000019871793     0.000088494355    -0.000049923823
       6        0.000028066428    -0.000027908891    -0.000042292068
       7        0.000233331106    -0.000510754629     0.000377215278
       8       -0.000007663034    -0.000030154989    -0.000000580177
       9       -0.000016388890     0.000000172035     0.000035173487
      10        0.000013153617     0.000013516904     0.000000481505
      11       -0.000001496472    -0.000013695863    -0.000022067002
      12        0.000003344154     0.000007857327    -0.000003113952
      13       -0.000008802976     0.000005322770     0.000006752488
      14       -0.000010848830    -0.000020274806    -0.000000999864

  **** Optimization is complete! (in 5 steps) ****
    Final optimized geometry and variables:
    Molecular point group: c1

    Geometry (in Angstrom), charge = 0, multiplicity = 1:

    H            2.142314458802     1.211520159350    -0.839329021014
    O            1.262410056568     0.871693800050    -0.903243608301
    C            1.092963302141    -0.034478831980     0.055412594592
    C           -0.276567932441    -0.658248132576     0.034190755240
    O            1.953387030838    -0.305324946165     0.820396907079
    C           -1.425635517653     0.351461029536     0.022696667779
    H           -0.327299654014    -1.286075856367    -0.850527589896
    H           -0.337443136299    -1.305670331470     0.897088420868
    C           -2.786170343150    -0.335793120626     0.048627972685
    H           -1.346735683645     0.979156970645    -0.855415489545
    H           -1.334363271968     1.006344279872     0.883558480299
    H           -2.918063845866    -0.974858851531    -0.817963184292
    H           -3.587069438046     0.393629008779     0.046868379495
    H           -2.899801824169    -0.951103909827     0.934415261997

  Mulliken Charges: (a.u.)
   Center  Symbol    Alpha    Beta     Spin     Total
       1     H     0.38060  0.38060  0.00000  0.23880
       2     O     4.16235  4.16235  0.00000 -0.32470
       3     C     2.80972  2.80972  0.00000  0.38056
       4     C     3.08734  3.08734  0.00000 -0.17468
       5     O     4.19326  4.19326  0.00000 -0.38652
       6     C     3.09118  3.09118  0.00000 -0.18235
       7     H     0.44564  0.44564  0.00000  0.10871
       8     H     0.43593  0.43593  0.00000  0.12813
       9     C     3.15008  3.15008  0.00000 -0.30017
      10     H     0.44223  0.44223  0.00000  0.11555
      11     H     0.44891  0.44891  0.00000  0.10219
      12     H     0.45417  0.45417  0.00000  0.09165
      13     H     0.44562  0.44562  0.00000  0.10876
      14     H     0.45296  0.45296  0.00000  0.09407

   Total alpha = 24.00000, Total beta = 24.00000, Total charge = -0.00000

*** Psi4 exiting successfully. Buy a developer a beer!
