  ==> Input File <==

--------------------------------------------------------------------------
set {
	reference rhf
	basis 6-31G*
}

set_num_threads( 1 )
memory 2 gb

molecule MOL {
0 1

H	 2.300715	 2.256207	 -0.492317
O	 3.070584	 1.878450	 -0.891908
C	 3.415453	 0.690507	 -0.225641
C	 2.464713	 -0.463616	 -0.523670
H	 4.411931	 0.440518	 -0.566536
H	 3.474503	 0.859640	 0.848923
C	 1.032123	 -0.231276	 -0.037283
H	 2.461926	 -0.639925	 -1.596178
H	 2.864400	 -1.361657	 -0.055546
C	 0.115918	 -1.429151	 -0.302766
H	 0.627520	 0.650412	 -0.526455
H	 1.042619	 -0.019750	 1.032057
C	 -1.309753	 -1.282496	 0.241564
H	 0.074463	 -1.617646	 -1.374026
H	 0.565263	 -2.314038	 0.143065
C	 -2.037799	 -0.007733	 -0.193645
H	 -1.890610	 -2.142323	 -0.085726
H	 -1.285946	 -1.330893	 1.329189
C	 -3.489788	 0.042957	 0.286558
H	 -2.017067	 0.064384	 -1.280144
H	 -1.513726	 0.868678	 0.179924
C	 -4.216917	 1.317354	 -0.141063
H	 -4.025645	 -0.823308	 -0.095450
H	 -3.513059	 -0.038752	 1.371301
H	 -4.239342	 1.411634	 -1.223113
H	 -5.243387	 1.322503	 0.212445
H	 -3.726170	 2.201406	 0.256408

	symmetry c1
}
set optking {
	frozen_dihedral = ("
		14 10 7 4,
		10 7 4 8,
		8 4 3 2,
		10 13 16 20,
		20 16 19 22,
		4 3 2 1
	")
}

ee = energy('scf')
oeprop('DIPOLE', 'QUADRUPOLE', 'MULLIKEN_CHARGES')
f=open( 'psi4out.xyz', 'w' )
f.write( "27  " )
f.write( str(ee) + "\n" )
f.write( MOL.save_string_xyz() )
f.close()
--------------------------------------------------------------------------

    Molecular point group: c1

    Geometry (in Angstrom), charge = 0, multiplicity = 1:

       Center              X                  Y                   Z               Mass
    ------------   -----------------  -----------------  -----------------  -----------------
           H          2.369150074302     2.152702607344    -0.285190508831     1.007825032070
           O          3.139019074302     1.774945607344    -0.684781508831    15.994914619560
           C          3.483888074302     0.587002607344    -0.018514508831    12.000000000000
           C          2.533148074302    -0.567120392656    -0.316543508831    12.000000000000
           H          4.480366074302     0.337013607344    -0.359409508831     1.007825032070
           H          3.542938074302     0.756135607344     1.056049491169     1.007825032070
           C          1.100558074302    -0.334780392656     0.169843491169    12.000000000000
           H          2.530361074302    -0.743429392656    -1.389051508831     1.007825032070
           H          2.932835074302    -1.465161392656     0.151580491169     1.007825032070
           C          0.184353074302    -1.532655392656    -0.095639508831    12.000000000000
           H          0.695955074302     0.546907607344    -0.319328508831     1.007825032070
           H          1.111054074302    -0.123254392656     1.239183491169     1.007825032070
           C         -1.241317925698    -1.386000392656     0.448690491169    12.000000000000
           H          0.142898074302    -1.721150392656    -1.166899508831     1.007825032070
           H          0.633698074302    -2.417542392656     0.350191491169     1.007825032070
           C         -1.969363925698    -0.111237392656     0.013481491169    12.000000000000
           H         -1.822174925698    -2.245827392656     0.121400491169     1.007825032070
           H         -1.217510925698    -1.434397392656     1.536315491169     1.007825032070
           C         -3.421352925698    -0.060547392656     0.493684491169    12.000000000000
           H         -1.948631925698    -0.039120392656    -1.073017508831     1.007825032070
           H         -1.445290925698     0.765173607344     0.387050491169     1.007825032070
           C         -4.148481925698     1.213849607344     0.066063491169    12.000000000000
           H         -3.957209925698    -0.926812392656     0.111676491169     1.007825032070
           H         -3.444623925698    -0.142256392656     1.578427491169     1.007825032070
           H         -4.170906925698     1.308129607344    -1.015986508831     1.007825032070
           H         -5.174951925698     1.218998607344     0.419571491169     1.007825032070
           H         -3.657734925698     2.097901607344     0.463534491169     1.007825032070

  Charge       = 0
  Multiplicity = 1
  Basis Set: 6-31G*
  Basis Set:

    Orbital Energies (a.u.)
    -----------------------

    Doubly Occupied:

       1A    -20.552260     2A    -11.266998     3A    -11.219637
       4A    -11.217358     5A    -11.216256     6A    -11.215810
       7A    -11.215112     8A    -11.214560     9A    -11.209637
      10A     -1.359001    11A     -1.095778    12A     -1.061249
      13A     -1.011603    14A     -0.947973    15A     -0.889350
      16A     -0.819985    17A     -0.804222    18A     -0.774694
      19A     -0.693567    20A     -0.654309    21A     -0.636338
      22A     -0.615005    23A     -0.600823    24A     -0.583773
      25A     -0.579200    26A     -0.553033    27A     -0.540162
      28A     -0.533251    29A     -0.505402    30A     -0.495170
      31A     -0.486236    32A     -0.474221    33A     -0.467434
      34A     -0.459203    35A     -0.452709    36A     -0.442130
      37A     -0.423191

  @DF-RHF Final Energy:  -388.28101736713410

   => Energetics <=

    Nuclear Repulsion Energy =            461.4715875285615425
    One-Electron Energy =               -1440.9318983680154815
    Two-Electron Energy =                 591.1792934723210919
    DFT Exchange-Correlation Energy =       0.0000000000000000
    Empirical Dispersion Energy =           0.0000000000000000
    PCM Polarization Energy =               0.0000000000000000
    EFP Energy =                            0.0000000000000000
    Total Energy =                       -388.2810173671329039

  Mulliken Charges: (a.u.)
   Center  Symbol    Alpha    Beta     Spin     Total
       1     H     0.27991  0.27991  0.00000  0.44017
       2     O     4.37094  4.37094  0.00000 -0.74188
       3     C     2.99734  2.99734  0.00000  0.00532
       4     C     3.16074  3.16074  0.00000 -0.32147
       5     H     0.41445  0.41445  0.00000  0.17111
       6     H     0.43210  0.43210  0.00000  0.13581
       7     C     3.16469  3.16469  0.00000 -0.32937
       8     H     0.41501  0.41501  0.00000  0.16998
       9     H     0.42443  0.42443  0.00000  0.15114
      10     C     3.15146  3.15146  0.00000 -0.30292
      11     H     0.42191  0.42191  0.00000  0.15618
      12     H     0.42563  0.42563  0.00000  0.14873
      13     C     3.15280  3.15280  0.00000 -0.30559
      14     H     0.42162  0.42162  0.00000  0.15675
      15     H     0.42146  0.42146  0.00000  0.15708
      16     C     3.15378  3.15378  0.00000 -0.30756
      17     H     0.42114  0.42114  0.00000  0.15773
      18     H     0.42405  0.42405  0.00000  0.15190
      19     C     3.15100  3.15100  0.00000 -0.30201
      20     H     0.42367  0.42367  0.00000  0.15265
      21     H     0.42364  0.42364  0.00000  0.15271
      22     C     3.23917  3.23917  0.00000 -0.47834
      23     H     0.42281  0.42281  0.00000  0.15437
      24     H     0.42321  0.42321  0.00000  0.15357
      25     H     0.42144  0.42144  0.00000  0.15711
      26     H     0.41911  0.41911  0.00000  0.16178
      27     H     0.42248  0.42248  0.00000  0.15503

   Total alpha = 37.00000, Total beta = 37.00000, Total charge = -0.00000
