                              Psi4 1.0.54 Driver

  ==> Input File <==

--------------------------------------------------------------------------
set {
	reference rhf
	basis cc-pvtz
}

set_num_threads( 4 )
memory 2 gb

molecule MOL {
0 1

H	 -0.852584	 -1.208884	 1.115832
C	 -0.281863	 -0.289969	 1.186761
N	 0.526300	 -0.128137	 0.000000
H	 0.356247	 -0.366241	 2.057989
H	 -0.988383	 0.526385	 1.350982
C	 -0.247113	 0.037112	 -1.209233
H	 1.147634	 0.642931	 0.114271
H	 -0.996493	 -0.743733	 -1.271440
H	 0.397975	 -0.057351	 -2.073512
H	 -0.763794	 0.997171	 -1.271673

	symmetry c1
}
set optking {
	frozen_dihedral = ("
		2 3 6 8
	")
}

ee,wfn = optimize('scf', return_wfn=True)
oeprop( wfn, 'DIPOLE', 'QUADRUPOLE', 'MULLIKEN_CHARGES')
f=open( 'psi4out.xyz', 'w' )
f.write( "10  " )
f.write( str(ee) + "\n" )
f.write( MOL.save_string_xyz() )
f.close()
--------------------------------------------------------------------------

    Molecular point group: c1
  Charge       = 0
  Multiplicity = 1
  Basis Set: CC-PVTZ
  Basis Set:
  @DF-RHF Final Energy:  -134.29239885965762
    Total Energy =                       -134.2923988596576521
    Molecular point group: c1
  Basis Set: CC-PVTZ
  Basis Set:
  Basis Set: CC-PVTZ
  Basis Set:
  @DF-RHF Final Energy:  -134.29246342158410
    Total Energy =                       -134.2924634215840172
  Basis Set: CC-PVTZ
  Basis Set:
  Basis Set: CC-PVTZ
  Basis Set:
  @DF-RHF Final Energy:  -134.29247026756570
    Total Energy =                       -134.2924702675657898
  Basis Set: CC-PVTZ
  Basis Set:
  Charge       = 0
  Multiplicity = 1
  Basis Set: CC-PVTZ
  Basis Set:

    Orbital Energies (a.u.)
    -----------------------

    Doubly Occupied:

       1A    -15.531539     2A    -11.234378     3A    -11.234189
       4A     -1.200080     5A     -0.948080     6A     -0.855229
       7A     -0.662980     8A     -0.611464     9A     -0.592243
      10A     -0.538703    11A     -0.512886    12A     -0.508342
      13A     -0.361821

  @DF-RHF Final Energy:  -134.29247072643525

   => Energetics <=

    Nuclear Repulsion Energy =             84.7262105038398943
    One-Electron Energy =                -348.4534954219448082
    Two-Electron Energy =                 129.4348141916696591
    DFT Exchange-Correlation Energy =       0.0000000000000000
    Empirical Dispersion Energy =           0.0000000000000000
    PCM Polarization Energy =               0.0000000000000000
    EFP Energy =                            0.0000000000000000
    Total Energy =                       -134.2924707264352833
    Molecular point group: c1
  Basis Set: CC-PVTZ
  Basis Set:

  -Total Gradient:
     Atom            X                  Y                   Z
    ------   -----------------  -----------------  -----------------
       1        0.000016999252     0.000015636365    -0.000022214305
       2       -0.000036857359    -0.001882379298    -0.000182291167
       3       -0.000348787283     0.002979457184     0.000646968840
       4       -0.000002826875    -0.000001902060     0.000018514492
       5        0.000022261560    -0.000007285449    -0.000022173945
       6        0.001967738587    -0.002546111043    -0.001694623740
       7       -0.000026964959    -0.000006994978    -0.000013796357
       8       -0.001590747757     0.001437456443     0.001223626749
       9        0.000003755662     0.000016304748     0.000041775001
      10       -0.000004570828    -0.000004181912     0.000004214432

  **** Optimization is complete! (in 4 steps) ****
    Final optimized geometry and variables:
    Molecular point group: c1

    Geometry (in Angstrom), charge = 0, multiplicity = 1:

    H           -0.835997710718    -1.096768746658     1.126562795926
    C           -0.268794054620    -0.175812879023     1.193905830177
    N            0.538772335131    -0.017237598514     0.006867212425
    H            0.370816893520    -0.246753402184     2.064564414469
    H           -0.977398443387     0.638910125777     1.359017578692
    C           -0.227193515349     0.148023295218    -1.207417681337
    H            1.178793281380     0.738197943190     0.118892104389
    H           -0.976083150699    -0.632672463443    -1.268147814657
    H            0.418494235376     0.068988297987    -2.072583974839
    H           -0.758877619805     1.100489290424    -1.262837261821

  Mulliken Charges: (a.u.)
   Center  Symbol    Alpha    Beta     Spin     Total
       1     H     0.45677  0.45677  0.00000  0.08647
       2     C     3.08040  3.08040  0.00000 -0.16081
       3     N     3.63034  3.63034  0.00000 -0.26069
       4     H     0.45251  0.45251  0.00000  0.09499
       5     H     0.47582  0.47582  0.00000  0.04836
       6     C     3.08209  3.08209  0.00000 -0.16419
       7     H     0.44004  0.44004  0.00000  0.11992
       8     H     0.45807  0.45807  0.00000  0.08385
       9     H     0.45151  0.45151  0.00000  0.09699
      10     H     0.47245  0.47245  0.00000  0.05511

   Total alpha = 13.00000, Total beta = 13.00000, Total charge =  0.00000

*** Psi4 exiting successfully. Buy a developer a beer!
