                              Psi4 1.0.54 Driver

  ==> Input File <==

--------------------------------------------------------------------------
set {
	reference rhf
	basis cc-pvtz
}

set_num_threads( 4 )
memory 2 gb

molecule MOL {
0 1

H	 1.352625	 -1.540121	 0.308172
O	 1.583947	 -0.677544	 -0.001533
C	 0.489979	 0.078084	 0.002623
C	 -0.763662	 -0.754014	 0.000816
O	 0.539051	 1.259395	 -0.000088
C	 -2.038001	 0.074705	 -0.000833
H	 -0.712945	 -1.405886	 -0.864342
H	 -0.715137	 -1.405770	 0.866182
H	 -2.087267	 0.710831	 -0.874232
H	 -2.903419	 -0.576199	 -0.001922
H	 -2.089467	 0.710909	 0.872389

	symmetry c1
}
set optking {
	frozen_dihedral = ("
		1 2 3 5
	")
}

ee,wfn = optimize('scf', return_wfn=True)
oeprop( wfn, 'DIPOLE', 'QUADRUPOLE', 'MULLIKEN_CHARGES')
f=open( 'psi4out.xyz', 'w' )
f.write( "11  " )
f.write( str(ee) + "\n" )
f.write( MOL.save_string_xyz() )
f.close()
--------------------------------------------------------------------------

    Molecular point group: c1
  Charge       = 0
  Multiplicity = 1
  Basis Set: CC-PVTZ
  Basis Set:
  @DF-RHF Final Energy:  -266.94117421272244
    Total Energy =                       -266.9411742127227853
    Molecular point group: c1
  Basis Set: CC-PVTZ
  Basis Set:
  Basis Set: CC-PVTZ
  Basis Set:
  @DF-RHF Final Energy:  -266.94239370972036
    Total Energy =                       -266.9423937097203066
  Basis Set: CC-PVTZ
  Basis Set:
  Basis Set: CC-PVTZ
  Basis Set:
  @DF-RHF Final Energy:  -266.94204638671391
    Total Energy =                       -266.9420463867139119
  Basis Set: CC-PVTZ
  Basis Set:
  Basis Set: CC-PVTZ
  Basis Set:
  @DF-RHF Final Energy:  -266.94261935643567
    Total Energy =                       -266.9426193564356709
  Basis Set: CC-PVTZ
  Basis Set:
  Basis Set: CC-PVTZ
  Basis Set:
  @DF-RHF Final Energy:  -266.94262390775009
    Total Energy =                       -266.9426239077500895
  Basis Set: CC-PVTZ
  Basis Set:
  Charge       = 0
  Multiplicity = 1
  Basis Set: CC-PVTZ
  Basis Set:

    Orbital Energies (a.u.)
    -----------------------

    Doubly Occupied:

       1A    -20.603669     2A    -20.538854     3A    -11.373757
       4A    -11.253617     5A    -11.224272     6A     -1.471600
       7A     -1.374619     8A     -1.069716     9A     -0.909444
      10A     -0.831096    11A     -0.719929    12A     -0.670165
      13A     -0.662048    14A     -0.614378    15A     -0.594621
      16A     -0.535076    17A     -0.528944    18A     -0.513479
      19A     -0.483660    20A     -0.445916

  @DF-RHF Final Energy:  -266.94262405613654

   => Energetics <=

    Nuclear Repulsion Energy =            180.0242776676042809
    One-Electron Energy =                -721.0960789432838283
    Two-Electron Energy =                 274.1291772195430667
    DFT Exchange-Correlation Energy =       0.0000000000000000
    Empirical Dispersion Energy =           0.0000000000000000
    PCM Polarization Energy =               0.0000000000000000
    EFP Energy =                            0.0000000000000000
    Total Energy =                       -266.9426240561364239
    Molecular point group: c1
  Basis Set: CC-PVTZ
  Basis Set:

  -Total Gradient:
     Atom            X                  Y                   Z
    ------   -----------------  -----------------  -----------------
       1        0.000972397041     0.001366433064     0.004188481016
       2       -0.001177102968    -0.001760229604    -0.003576323426
       3        0.000082848408     0.000342184392    -0.004484596483
       4        0.000022534556     0.000007387540    -0.000033122702
       5        0.000089397530     0.000042902291     0.003886625786
       6        0.000007893753     0.000005989705     0.000006138800
       7       -0.000005352782    -0.000008192977     0.000009909280
       8        0.000007933740     0.000002969468     0.000012397704
       9       -0.000004195747     0.000002496576    -0.000001911549
      10        0.000001887845    -0.000000150586    -0.000002985554
      11        0.000001758626    -0.000001789867    -0.000004612873

  **** Optimization is complete! (in 6 steps) ****
    Final optimized geometry and variables:
    Molecular point group: c1

    Geometry (in Angstrom), charge = 0, multiplicity = 1:

    H            1.515304707620    -1.497791615346     0.258451468868
    O            1.636456097979    -0.618262530766    -0.053978053179
    C            0.499286161794     0.085562350842    -0.024807639173
    C           -0.763438962483    -0.745112233299     0.027802237912
    O            0.528401807206     1.260638842253    -0.038962871919
    C           -2.033626605213     0.088696404690     0.072928805129
    H           -0.757548125240    -1.400268906094    -0.837942524510
    H           -0.699165410614    -1.392726834970     0.898904543092
    H           -2.110242248187     0.720467962490    -0.801108628465
    H           -2.902292646058    -0.557017637495     0.108831806420
    H           -2.044656492476     0.729413370365     0.943896298524

  Mulliken Charges: (a.u.)
   Center  Symbol    Alpha    Beta     Spin     Total
       1     H     0.38797  0.38797  0.00000  0.22406
       2     O     4.14773  4.14773  0.00000 -0.29547
       3     C     2.80563  2.80563  0.00000  0.38875
       4     C     3.11503  3.11503  0.00000 -0.23005
       5     O     4.17364  4.17364  0.00000 -0.34728
       6     C     3.14039  3.14039  0.00000 -0.28079
       7     H     0.43884  0.43884  0.00000  0.12233
       8     H     0.45005  0.45005  0.00000  0.09989
       9     H     0.44452  0.44452  0.00000  0.11097
      10     H     0.45043  0.45043  0.00000  0.09914
      11     H     0.44578  0.44578  0.00000  0.10845

   Total alpha = 20.00000, Total beta = 20.00000, Total charge =  0.00000

*** Psi4 exiting successfully. Buy a developer a beer!
