  ==> Input File <==

--------------------------------------------------------------------------
set {
	reference rhf
	basis 6-31G*
}

set_num_threads( 4 )
memory 2 gb

molecule MOL {
0 1

H	 3.089270	 -1.380733	 0.000000
O	 2.178328	 -1.639175	 0.000000
C	 1.368216	 -0.558384	 0.000000
C	 0.758919	 -0.085063	 1.155001
C	 1.153919	 0.082583	 -1.207754
H	 0.927012	 -0.585343	 2.093884
C	 -0.063478	 1.027810	 1.101623
H	 1.623940	 -0.281984	 -2.100641
C	 0.329166	 1.196063	 -1.252501
H	 -0.529492	 1.384817	 2.002043
C	 -0.283239	 1.674585	 -0.101090
C	 0.094642	 1.889444	 -2.546754
H	 -0.921655	 2.539175	 -0.144847
O	 0.571326	 1.558720	 -3.584993
H	 -0.568634	 2.757878	 -2.490765

	symmetry c1
}
set optking {
	frozen_dihedral = ("
		4 3 2 1
	")
}

ee = optimize('scf')
oeprop('DIPOLE', 'QUADRUPOLE', 'MULLIKEN_CHARGES')
f=open( 'psi4out.xyz', 'w' )
f.write( "15  " )
f.write( str(ee) + "\n" )
f.write( MOL.save_string_xyz() )
f.close()
--------------------------------------------------------------------------

    Molecular point group: c1
  Charge       = 0
  Multiplicity = 1
  Basis Set: 6-31G*
  Basis Set:
  @DF-RHF Final Energy:  -418.28185727998556
    Total Energy =                       -418.2818572799864114
    Molecular point group: c1
  Basis Set: 6-31G*
  Basis Set:
  Basis Set: 6-31G*
  Basis Set:
  @DF-RHF Final Energy:  -418.28285845973033
    Total Energy =                       -418.2828584597301642
  Basis Set: 6-31G*
  Basis Set:
  Basis Set: 6-31G*
  Basis Set:
  @DF-RHF Final Energy:  -418.28104391066324
    Total Energy =                       -418.2810439106633567
  Basis Set: 6-31G*
  Basis Set:
  Basis Set: 6-31G*
  Basis Set:
  @DF-RHF Final Energy:  -418.28296455475368
    Total Energy =                       -418.2829645547534483
  Basis Set: 6-31G*
  Basis Set:
  Basis Set: 6-31G*
  Basis Set:
  @DF-RHF Final Energy:  -418.28297659012594
    Total Energy =                       -418.2829765901259407
  Basis Set: 6-31G*
  Basis Set:
  Charge       = 0
  Multiplicity = 1
  Basis Set: 6-31G*
  Basis Set:

    Orbital Energies (a.u.)
    -----------------------

    Doubly Occupied:

       1A    -20.587316     2A    -20.565403     3A    -11.334216
       4A    -11.303316     5A    -11.253723     6A    -11.251585
       7A    -11.250695     8A    -11.248624     9A    -11.244981
      10A     -1.406189    11A     -1.403239    12A     -1.170303
      13A     -1.049002    14A     -1.026166    15A     -0.897755
      16A     -0.846586    17A     -0.799729    18A     -0.743254
      19A     -0.698244    20A     -0.677509    21A     -0.653910
      22A     -0.633132    23A     -0.618433    24A     -0.605992
      25A     -0.556408    26A     -0.545341    27A     -0.531050
      28A     -0.498127    29A     -0.486098    30A     -0.424331
      31A     -0.352120    32A     -0.342072

  @DF-RHF Final Energy:  -418.28297827047544

   => Energetics <=

    Nuclear Repulsion Energy =            402.6014669616983497
    One-Electron Energy =               -1367.7591876816052263
    Two-Electron Energy =                 546.8747424494313236
    DFT Exchange-Correlation Energy =       0.0000000000000000
    Empirical Dispersion Energy =           0.0000000000000000
    PCM Polarization Energy =               0.0000000000000000
    EFP Energy =                            0.0000000000000000
    Total Energy =                       -418.2829782704754962
    Molecular point group: c1
  Basis Set: 6-31G*
  Basis Set:

  -Total Gradient:
     Atom            X                  Y                   Z
    ------   -----------------  -----------------  -----------------
       1       -0.000022248329     0.000033088079     0.001002721299
       2        0.000397057814     0.000098771233    -0.001220780732
       3       -0.001047641548    -0.000504384096     0.000270901727
       4        0.000691704855     0.000274629272     0.000068785814
       5        0.000001086716     0.000026975591    -0.000092796777
       6        0.000005979383    -0.000017519656    -0.000001818462
       7       -0.000056470548     0.000196852602    -0.000100634266
       8       -0.000018381873     0.000009708573     0.000011236829
       9        0.000104303429    -0.000071092631    -0.000073645097
      10        0.000011237231    -0.000015048390    -0.000003099695
      11       -0.000051280853    -0.000070716321     0.000192460339
      12       -0.000007113713     0.000033506419     0.000015379219
      13       -0.000001494556     0.000005660619    -0.000039757068
      14       -0.000006470380     0.000003454896    -0.000013416512
      15       -0.000000267630    -0.000003886188    -0.000015536608

  **** Optimization is complete! (in 6 steps) ****
    Final optimized geometry and variables:
    Molecular point group: c1

    Geometry (in Angstrom), charge = 0, multiplicity = 1:

    H            2.363439989443    -1.961191687057     0.825035752219
    O            1.447696990975    -2.205569763219     0.799534941894
    C            0.657997372109    -1.089562129621     0.740756625325
    C            0.052434536117    -0.624331358169     1.900981644089
    C            0.434621543524    -0.453134011962    -0.462721191469
    H            0.234672618974    -1.143088599603     2.824207655968
    C           -0.778117167440     0.481155632388     1.855454976386
    H            0.891023019434    -0.817396554120    -1.363598293163
    C           -0.396041570068     0.661970330771    -0.506186333701
    H           -1.246746359235     0.835604158051     2.755322669107
    C           -1.002838328267     1.128138693586     0.650465861696
    C           -0.638036787618     1.356275526052    -1.795924855723
    H           -1.647637947183     1.988793101876     0.611348214684
    O           -0.149305252828     1.039567175694    -2.833728521535
    H           -1.316999878022     2.212512484734    -1.740097328594

  Mulliken Charges: (a.u.)
   Center  Symbol    Alpha    Beta     Spin     Total
       1     H     0.26929  0.26929  0.00000  0.46142
       2     O     4.38670  4.38670  0.00000 -0.77340
       3     C     2.81984  2.81984  0.00000  0.36032
       4     C     3.10730  3.10730  0.00000 -0.21460
       5     C     3.10993  3.10993  0.00000 -0.21985
       6     H     0.38767  0.38767  0.00000  0.22466
       7     C     3.10179  3.10179  0.00000 -0.20359
       8     H     0.37324  0.37324  0.00000  0.25351
       9     C     3.05172  3.05172  0.00000 -0.10344
      10     H     0.39258  0.39258  0.00000  0.21483
      11     C     3.10733  3.10733  0.00000 -0.21466
      12     C     2.83190  2.83190  0.00000  0.33620
      13     H     0.39199  0.39199  0.00000  0.21602
      14     O     4.24703  4.24703  0.00000 -0.49405
      15     H     0.42169  0.42169  0.00000  0.15663

   Total alpha = 32.00000, Total beta = 32.00000, Total charge = -0.00000
