                              Psi4 1.0.54 Driver

  ==> Input File <==

--------------------------------------------------------------------------
set {
	reference rhf
	basis cc-pvtz
}

set_num_threads( 4 )
memory 2 gb

molecule MOL {
0 1

H	 -2.827050	 -0.248885	 -0.725924
O	 -2.346257	 -0.289210	 0.080372
C	 -1.183935	 0.486039	 -0.009831
C	 0.062853	 -0.375310	 0.027457
H	 -1.178881	 1.094526	 -0.908634
H	 -1.184406	 1.155156	 0.838676
O	 1.172093	 0.457955	 -0.054438
H	 0.052476	 -1.081302	 -0.804627
H	 0.076323	 -0.955658	 0.947560
C	 2.395478	 -0.199028	 -0.000366
H	 2.505946	 -0.901710	 -0.823354
H	 3.174616	 0.545641	 -0.071768
H	 2.513730	 -0.742241	 0.934223

	symmetry c1
}
set optking {
	frozen_dihedral = ("
		1 2 3 5
	")
}

ee,wfn = optimize('scf', return_wfn=True)
oeprop( wfn, 'DIPOLE', 'QUADRUPOLE', 'MULLIKEN_CHARGES')
f=open( 'psi4out.xyz', 'w' )
f.write( "13  " )
f.write( str(ee) + "\n" )
f.write( MOL.save_string_xyz() )
f.close()
--------------------------------------------------------------------------

    Molecular point group: c1
  Charge       = 0
  Multiplicity = 1
  Basis Set: CC-PVTZ
  Basis Set:
  @DF-RHF Final Energy:  -268.06120803872363
    Total Energy =                       -268.0612080387237484
    Molecular point group: c1
  Basis Set: CC-PVTZ
  Basis Set:
  Basis Set: CC-PVTZ
  Basis Set:
  @DF-RHF Final Energy:  -268.06144481625131
    Total Energy =                       -268.0614448162511394
  Basis Set: CC-PVTZ
  Basis Set:
  Basis Set: CC-PVTZ
  Basis Set:
  @DF-RHF Final Energy:  -268.06152826582957
    Total Energy =                       -268.0615282658297929
  Basis Set: CC-PVTZ
  Basis Set:
  Basis Set: CC-PVTZ
  Basis Set:
  @DF-RHF Final Energy:  -268.06153031604339
    Total Energy =                       -268.0615303160433314
  Basis Set: CC-PVTZ
  Basis Set:
  Charge       = 0
  Multiplicity = 1
  Basis Set: CC-PVTZ
  Basis Set:

    Orbital Energies (a.u.)
    -----------------------

    Doubly Occupied:

       1A    -20.553424     2A    -20.551574     3A    -11.267921
       4A    -11.265704     5A    -11.265357     6A     -1.389376
       7A     -1.367737     8A     -1.019190     9A     -0.912635
      10A     -0.836220    11A     -0.715748    12A     -0.678342
      13A     -0.652284    14A     -0.642572    15A     -0.603667
      16A     -0.556236    17A     -0.548637    18A     -0.490903
      19A     -0.481883    20A     -0.440763    21A     -0.421968

  @DF-RHF Final Energy:  -268.06153053247482

   => Energetics <=

    Nuclear Repulsion Energy =            190.4373616045709241
    One-Electron Energy =                -743.6735024634642741
    Two-Electron Energy =                 285.1746103264184740
    DFT Exchange-Correlation Energy =       0.0000000000000000
    Empirical Dispersion Energy =           0.0000000000000000
    PCM Polarization Energy =               0.0000000000000000
    EFP Energy =                            0.0000000000000000
    Total Energy =                       -268.0615305324748761
    Molecular point group: c1
  Basis Set: CC-PVTZ
  Basis Set:

  -Total Gradient:
     Atom            X                  Y                   Z
    ------   -----------------  -----------------  -----------------
       1       -0.000255825694     0.000379555437     0.000158961387
       2        0.000388680667    -0.000537369656    -0.000252689927
       3       -0.000329300070     0.000466526617     0.000303551349
       4        0.000001776359    -0.000011220566    -0.000009983213
       5        0.000207521735    -0.000313760499    -0.000201071374
       6       -0.000004368287    -0.000008593371    -0.000001187046
       7        0.000011314775     0.000012633772     0.000001854983
       8       -0.000008447192    -0.000002698702    -0.000003720888
       9       -0.000002212702     0.000014404296    -0.000001108191
      10       -0.000004399760    -0.000001356481     0.000008888799
      11       -0.000004059888     0.000002146563    -0.000000385294
      12       -0.000001750538     0.000001005104    -0.000001821934
      13        0.000001070596    -0.000001272514    -0.000001288652

  **** Optimization is complete! (in 5 steps) ****
    Final optimized geometry and variables:
    Molecular point group: c1

    Geometry (in Angstrom), charge = 0, multiplicity = 1:

    H           -2.810932033515    -0.303213298296    -0.710186827680
    O           -2.326998982238    -0.308217057443     0.092730907053
    C           -1.180319508643     0.493545653113    -0.016026781565
    C            0.059797187465    -0.375088934833     0.012745995507
    H           -1.187426033220     1.079352876920    -0.928398055714
    H           -1.155669848671     1.183625497401     0.817612460317
    O            1.174444128078     0.454443558319    -0.047575844147
    H            0.045645304395    -1.066637246597    -0.828709343503
    H            0.063940384481    -0.968438823135     0.924687548618
    C            2.393084450632    -0.211100477416     0.000724317501
    H            2.503425381288    -0.899794328038    -0.833990814613
    H            3.177675505898     0.529455173730    -0.053145941095
    H            2.503043998541    -0.771977166205     0.925926790269

  Mulliken Charges: (a.u.)
   Center  Symbol    Alpha    Beta     Spin     Total
       1     H     0.38960  0.38960  0.00000  0.22081
       2     O     4.20655  4.20655  0.00000 -0.41310
       3     C     2.97324  2.97324  0.00000  0.05353
       4     C     2.95829  2.95829  0.00000  0.08342
       5     H     0.46864  0.46864  0.00000  0.06272
       6     H     0.45908  0.45908  0.00000  0.08183
       7     O     4.17652  4.17652  0.00000 -0.35304
       8     H     0.47836  0.47836  0.00000  0.04328
       9     H     0.47071  0.47071  0.00000  0.05857
      10     C     3.03110  3.03110  0.00000 -0.06220
      11     H     0.47119  0.47119  0.00000  0.05763
      12     H     0.44672  0.44672  0.00000  0.10657
      13     H     0.47001  0.47001  0.00000  0.05998

   Total alpha = 21.00000, Total beta = 21.00000, Total charge = -0.00000

*** Psi4 exiting successfully. Buy a developer a beer!
