  ==> Input File <==

--------------------------------------------------------------------------
set {
	reference rhf
	basis 6-31G*
}

set_num_threads( 4 )
memory 2 gb

molecule MOL {
0 1

H	 -3.261111	 -0.295142	 1.469456
C	 -3.306842	 -0.277400	 0.373456
C	 -2.660244	 0.921717	 -0.272021
O	 -3.838538	 -1.161155	 -0.216482
C	 -1.399261	 1.382382	 0.472266
H	 -2.446335	 0.679553	 -1.306578
H	 -3.395474	 1.725458	 -0.262380
C	 -0.247244	 0.376810	 0.401692
H	 -1.077531	 2.329753	 0.050054
H	 -1.647497	 1.583828	 1.513205
C	 1.006271	 0.853971	 1.137784
H	 -0.005107	 0.185673	 -0.641708
H	 -0.564853	 -0.577993	 0.816440
C	 2.161603	 -0.146891	 1.051576
H	 1.312647	 1.812459	 0.726485
H	 0.763552	 1.032982	 2.184410
C	 3.412429	 0.250487	 1.843786
H	 2.430992	 -0.296896	 0.007248
H	 1.814306	 -1.111320	 1.416230
C	 4.125860	 1.498562	 1.321346
H	 4.110167	 -0.583007	 1.823847
H	 3.145697	 0.397074	 2.888434
H	 4.390367	 1.386762	 0.273107
H	 3.510749	 2.387353	 1.414430
H	 5.042299	 1.678339	 1.875255

	symmetry c1
}
set optking {
	frozen_dihedral = ("
		6 3 2 4
	")
}

ee = optimize('scf')
oeprop('DIPOLE', 'QUADRUPOLE', 'MULLIKEN_CHARGES')
f=open( 'psi4out.xyz', 'w' )
f.write( "25  " )
f.write( str(ee) + "\n" )
f.write( MOL.save_string_xyz() )
f.close()
--------------------------------------------------------------------------

    Molecular point group: c1
  Charge       = 0
  Multiplicity = 1
  Basis Set: 6-31G*
  Basis Set:
  @DF-RHF Final Energy:  -387.12173231966847
    Total Energy =                       -387.1217323196684674
    Molecular point group: c1
  Basis Set: 6-31G*
  Basis Set:
  Basis Set: 6-31G*
  Basis Set:
  @DF-RHF Final Energy:  -387.12022554943331
    Total Energy =                       -387.1202255494340534
  Basis Set: 6-31G*
  Basis Set:
  Basis Set: 6-31G*
  Basis Set:
  @DF-RHF Final Energy:  -387.12179644017135
    Total Energy =                       -387.1217964401708969
  Basis Set: 6-31G*
  Basis Set:
  Basis Set: 6-31G*
  Basis Set:
  @DF-RHF Final Energy:  -387.12168212137351
    Total Energy =                       -387.1216821213737376
  Basis Set: 6-31G*
  Basis Set:
  @DF-RHF Final Energy:  -387.12181313169975
    Total Energy =                       -387.1218131317000370
  Basis Set: 6-31G*
  Basis Set:
  @DF-RHF Final Energy:  -387.12181694988487
    Total Energy =                       -387.1218169498855559
  Basis Set: 6-31G*
  Basis Set:
  Basis Set: 6-31G*
  Basis Set:
  @DF-RHF Final Energy:  -387.12181401295959
    Total Energy =                       -387.1218140129593621
  Basis Set: 6-31G*
  Basis Set:
  Basis Set: 6-31G*
  Basis Set:
  @DF-RHF Final Energy:  -387.12181900536308
    Total Energy =                       -387.1218190053631361
  Basis Set: 6-31G*
  Basis Set:
  Charge       = 0
  Multiplicity = 1
  Basis Set: 6-31G*
  Basis Set:

    Orbital Energies (a.u.)
    -----------------------

    Doubly Occupied:

       1A    -20.561475     2A    -11.326506     3A    -11.235123
       4A    -11.234216     5A    -11.225678     6A    -11.220903
       7A    -11.218875     8A    -11.218012     9A    -11.211358
      10A     -1.401850    11A     -1.104902    12A     -1.070387
      13A     -1.013836    14A     -0.942687    15A     -0.875488
      16A     -0.821978    17A     -0.789126    18A     -0.782532
      19A     -0.664084    20A     -0.658670    21A     -0.633302
      22A     -0.629070    23A     -0.605282    24A     -0.596067
      25A     -0.573236    26A     -0.549793    27A     -0.537486
      28A     -0.526154    29A     -0.507183    30A     -0.496730
      31A     -0.491475    32A     -0.480349    33A     -0.465651
      34A     -0.459935    35A     -0.442073    36A     -0.409392

  @DF-RHF Final Energy:  -387.12181987450020

   => Energetics <=

    Nuclear Repulsion Energy =            437.9576594062801291
    One-Electron Energy =               -1392.1972313501564713
    Two-Electron Energy =                 567.1177520693755696
    DFT Exchange-Correlation Energy =       0.0000000000000000
    Empirical Dispersion Energy =           0.0000000000000000
    PCM Polarization Energy =               0.0000000000000000
    EFP Energy =                            0.0000000000000000
    Total Energy =                       -387.1218198745008294
    Molecular point group: c1
  Basis Set: 6-31G*
  Basis Set:

  -Total Gradient:
     Atom            X                  Y                   Z
    ------   -----------------  -----------------  -----------------
       1        0.000000665085     0.000020906666     0.000006025849
       2        0.001318255381    -0.000737671952     0.000024246316
       3       -0.001255662501     0.000557118236    -0.000329685385
       4       -0.000765634890     0.000481803562     0.000016175966
       5       -0.000027629195    -0.000026400767     0.000095793833
       6        0.000715692581    -0.000297094854     0.000205902116
       7        0.000013050873    -0.000013665459    -0.000007007084
       8        0.000003705203     0.000006108539    -0.000024419001
       9       -0.000015415437    -0.000026073474    -0.000014339287
      10        0.000021876660     0.000030252247     0.000031209193
      11       -0.000012252474    -0.000004267897     0.000020305447
      12        0.000008654652    -0.000009667261    -0.000008278513
      13       -0.000004062462     0.000012231699    -0.000000858472
      14        0.000009336913     0.000004661596    -0.000028851102
      15       -0.000005117765    -0.000011966934    -0.000001038235
      16       -0.000004651898     0.000005739061     0.000005646433
      17       -0.000012191948     0.000017361487     0.000012947836
      18       -0.000002433283    -0.000003828488    -0.000007426170
      19        0.000003839932     0.000004314464     0.000000225100
      20        0.000007155071    -0.000009492618    -0.000002570498
      21       -0.000001555656     0.000003296759     0.000001081097
      22       -0.000001418934     0.000005008605     0.000003321165
      23       -0.000004239219     0.000002097040    -0.000003385963
      24        0.000006764579    -0.000006036988     0.000007196114
      25        0.000003268736    -0.000004733269    -0.000002216756

  **** Optimization is complete! (in 9 steps) ****
    Final optimized geometry and variables:
    Molecular point group: c1

    Geometry (in Angstrom), charge = 0, multiplicity = 1:

    H           -3.227804158849    -0.697775052942     0.795414290066
    C           -3.238206352524    -0.688027506851    -0.301601008789
    C           -2.577824298370     0.508143361167    -0.943519987497
    O           -3.774282132039    -1.562488930592    -0.901092068558
    C           -1.319185816123     0.974147028758    -0.204075235536
    H           -2.364096535812     0.262635253249    -1.977780223310
    H           -3.317742747658     1.307688126819    -0.944634569286
    C           -0.165280074862    -0.029397730190    -0.275911781431
    H           -0.998668903565     1.921954292655    -0.626758045912
    H           -1.565014331436     1.175469793871     0.837340484586
    C            1.090062633076     0.448343943781     0.456583417992
    H            0.074947782503    -0.220508965232    -1.319950167785
    H           -0.480587365219    -0.984955163006     0.140527585264
    C            2.244906334346    -0.553178084721     0.371196321614
    H            1.395793785116     1.405978739248     0.043005510549
    H            0.848836806888     0.629452816405     1.503037501444
    C            3.494866650260    -0.157420689394     1.165539475423
    H            2.516016464621    -0.701614244935    -0.672826399962
    H            1.896754080326    -1.518082499975     0.733805828381
    C            4.208865662225     1.092055593974     0.646645710441
    H            4.192437336502    -0.990960222931     1.145218740081
    H            3.226303799342    -0.012931009263     2.210082200297
    H            4.477364451849     0.981415095083    -0.400577841047
    H            3.592797685274     1.980455223538     0.738354235256
    H            5.123094814369     1.272197140420     1.203681381955

  Mulliken Charges: (a.u.)
   Center  Symbol    Alpha    Beta     Spin     Total
       1     H     0.43175  0.43175  0.00000  0.13650
       2     C     2.83191  2.83191  0.00000  0.33619
       3     C     3.20877  3.20877  0.00000 -0.41755
       4     O     4.23891  4.23891  0.00000 -0.47781
       5     C     3.16654  3.16654  0.00000 -0.33308
       6     H     0.39921  0.39921  0.00000  0.20159
       7     H     0.40273  0.40273  0.00000  0.19453
       8     C     3.15495  3.15495  0.00000 -0.30989
       9     H     0.41320  0.41320  0.00000  0.17360
      10     H     0.41984  0.41984  0.00000  0.16031
      11     C     3.15394  3.15394  0.00000 -0.30789
      12     H     0.41829  0.41829  0.00000  0.16343
      13     H     0.42069  0.42069  0.00000  0.15863
      14     C     3.15312  3.15312  0.00000 -0.30623
      15     H     0.42045  0.42045  0.00000  0.15911
      16     H     0.42354  0.42354  0.00000  0.15293
      17     C     3.15279  3.15279  0.00000 -0.30558
      18     H     0.42301  0.42301  0.00000  0.15398
      19     H     0.42097  0.42097  0.00000  0.15806
      20     C     3.24142  3.24142  0.00000 -0.48284
      21     H     0.41988  0.41988  0.00000  0.16025
      22     H     0.42317  0.42317  0.00000  0.15367
      23     H     0.42184  0.42184  0.00000  0.15632
      24     H     0.42059  0.42059  0.00000  0.15882
      25     H     0.41850  0.41850  0.00000  0.16299

   Total alpha = 36.00000, Total beta = 36.00000, Total charge = -0.00000
