                              Psi4 1.0.54 Driver

  ==> Input File <==

--------------------------------------------------------------------------
set {
	reference rhf
	basis cc-pvtz
}

set_num_threads( 4 )
memory 2 gb

molecule MOL {
0 1

O	 3.219313	 0.959291	 -0.614106
C	 2.698710	 0.058177	 -0.050237
C	 1.246364	 -0.005813	 0.348416
O	 3.344101	 -1.038700	 0.312317
C	 0.453207	 1.232821	 -0.049003
H	 0.839270	 -0.907818	 -0.092281
H	 1.216683	 -0.160521	 1.422434
C	 -0.998367	 1.217982	 0.432195
H	 0.481498	 1.345443	 -1.127236
H	 0.951413	 2.105557	 0.354893
C	 -1.882951	 0.151251	 -0.211235
H	 -1.429490	 2.193659	 0.228843
H	 -1.019755	 1.099323	 1.513279
C	 -2.608560	 0.650384	 -1.457889
H	 -1.270761	 -0.708726	 -0.473028
H	 -2.619442	 -0.204801	 0.503149
C	 -3.500030	 -0.405215	 -2.105780
H	 -1.877212	 0.995753	 -2.184655
H	 -3.211716	 1.517677	 -1.199292
C	 -4.220029	 0.100355	 -3.351483
H	 -2.898702	 -1.272378	 -2.364921
H	 -4.233380	 -0.749450	 -1.381517
H	 -4.843643	 -0.672487	 -3.786000
H	 -3.512746	 0.419521	 -4.109766
H	 -4.857145	 0.947179	 -3.118718
C	 4.720529	 -1.114346	 0.001449
H	 4.874321	 -1.055557	 -1.065852
H	 5.057824	 -2.067950	 0.373977
H	 5.264321	 -0.313596	 0.480350

	symmetry c1
}
set optking {
	frozen_dihedral = ("
		15 11 8 5
	")
}

ee,wfn = optimize('scf', return_wfn=True)
oeprop( wfn, 'DIPOLE', 'QUADRUPOLE', 'MULLIKEN_CHARGES')
f=open( 'psi4out.xyz', 'w' )
f.write( "29  " )
f.write( str(ee) + "\n" )
f.write( MOL.save_string_xyz() )
f.close()
--------------------------------------------------------------------------

    Molecular point group: c1
  Charge       = 0
  Multiplicity = 1
  Basis Set: CC-PVTZ
  Basis Set:
  @DF-RHF Final Energy:  -501.22091426879888
    Total Energy =                       -501.2209142687989925
    Molecular point group: c1
  Basis Set: CC-PVTZ
  Basis Set:
  Basis Set: CC-PVTZ
  Basis Set:
  @DF-RHF Final Energy:  -501.22072016895140
    Total Energy =                       -501.2207201689511749
  Basis Set: CC-PVTZ
  Basis Set:
  Basis Set: CC-PVTZ
  Basis Set:
  @DF-RHF Final Energy:  -501.22139430459288
    Total Energy =                       -501.2213943045935594
  Basis Set: CC-PVTZ
  Basis Set:
  Basis Set: CC-PVTZ
  Basis Set:
  @DF-RHF Final Energy:  -501.22140622692052
    Total Energy =                       -501.2214062269205215
  Basis Set: CC-PVTZ
  Basis Set:
  @DF-RHF Final Energy:  -501.22135077321570
    Total Energy =                       -501.2213507732159314
  Basis Set: CC-PVTZ
  Basis Set:
  @DF-RHF Final Energy:  -501.22152435262706
    Total Energy =                       -501.2215243526275117
  Basis Set: CC-PVTZ
  Basis Set:
  Basis Set: CC-PVTZ
  Basis Set:
  @DF-RHF Final Energy:  -501.22152653436376
    Total Energy =                       -501.2215265343638748
  Basis Set: CC-PVTZ
  Basis Set:
  Basis Set: CC-PVTZ
  Basis Set:
  @DF-RHF Final Energy:  -501.22152778178383
    Total Energy =                       -501.2215277817839478
  Basis Set: CC-PVTZ
  Basis Set:
  Charge       = 0
  Multiplicity = 1
  Basis Set: CC-PVTZ
  Basis Set:

    Orbital Energies (a.u.)
    -----------------------

    Doubly Occupied:

       1A    -20.596208     2A    -20.534073     3A    -11.364494
       4A    -11.278423     5A    -11.233164     6A    -11.217351
       7A    -11.215484     8A    -11.213583     9A    -11.213081
      10A    -11.211321    11A    -11.206262    12A     -1.472098
      13A     -1.365681    14A     -1.098883    15A     -1.067039
      16A     -1.019568    17A     -0.977328    18A     -0.928110
      19A     -0.864077    20A     -0.803927    21A     -0.786644
      22A     -0.764512    23A     -0.703042    24A     -0.686086
      25A     -0.675691    26A     -0.650946    27A     -0.628035
      28A     -0.607773    29A     -0.594887    30A     -0.576050
      31A     -0.565821    32A     -0.560283    33A     -0.534292
      34A     -0.527163    35A     -0.521330    36A     -0.511400
      37A     -0.494115    38A     -0.478136    39A     -0.473655
      40A     -0.461191    41A     -0.459000    42A     -0.453621
      43A     -0.443695    44A     -0.437883

  @DF-RHF Final Energy:  -501.22152797693866

   => Energetics <=

    Nuclear Repulsion Energy =            617.7373453754585171
    One-Electron Energy =               -1906.9669342914608023
    Two-Electron Energy =                 788.0080609390647624
    DFT Exchange-Correlation Energy =       0.0000000000000000
    Empirical Dispersion Energy =           0.0000000000000000
    PCM Polarization Energy =               0.0000000000000000
    EFP Energy =                            0.0000000000000000
    Total Energy =                       -501.2215279769375229
    Molecular point group: c1
  Basis Set: CC-PVTZ
  Basis Set:

  -Total Gradient:
     Atom            X                  Y                   Z
    ------   -----------------  -----------------  -----------------
       1       -0.000000337987     0.000028550762     0.000008363750
       2       -0.000017643767    -0.000022971487    -0.000021720278
       3        0.000005473577    -0.000008908408    -0.000016175668
       4        0.000002584650    -0.000008595716     0.000005663669
       5        0.000501314497    -0.001316852556     0.001412015680
       6        0.000005251762     0.000005047662     0.000008548014
       7        0.000004772259     0.000007059127     0.000016664106
       8       -0.000594363990     0.002149799119    -0.002595082537
       9       -0.000002402448     0.000000852180    -0.000000612742
      10        0.000003173189    -0.000006168713    -0.000003788259
      11       -0.000366309333    -0.001975021823     0.003603878248
      12       -0.000005452449    -0.000001442247    -0.000000364488
      13       -0.000001074153     0.000000816135     0.000001156070
      14       -0.000009410591     0.000007181866    -0.000000183905
      15        0.000472490334     0.001143723147    -0.002423191707
      16        0.000000302704    -0.000000072835    -0.000004922278
      17       -0.000002559629     0.000001639165     0.000006595732
      18       -0.000002512649     0.000000135116     0.000003931369
      19        0.000004875312    -0.000005592737    -0.000004193860
      20       -0.000001923768    -0.000003598729    -0.000003680586
      21       -0.000005723411     0.000005256815     0.000002019571
      22        0.000001224271     0.000001037125    -0.000001389103
      23        0.000006266503     0.000005202309     0.000001259012
      24       -0.000002934225     0.000000660946     0.000000555893
      25        0.000004228180    -0.000005933684    -0.000000090246
      26       -0.000002008438    -0.000000209212     0.000003544225
      27        0.000001874933     0.000002393251     0.000002679835
      28        0.000000000291    -0.000000601861     0.000001901163
      29        0.000000824390    -0.000003384716    -0.000003380687

  **** Optimization is complete! (in 9 steps) ****
    Final optimized geometry and variables:
    Molecular point group: c1

    Geometry (in Angstrom), charge = 0, multiplicity = 1:

    O            2.898487860058     0.693664079676    -0.134386279490
    C            2.421188269735    -0.108186799062     0.593866095442
    C            0.994787421955    -0.111264521214     1.081109639288
    O            3.098574294271    -1.132646629912     1.086407954453
    C            0.170562357693     1.058797934391     0.558993683185
    H            0.568247829515    -1.067436351808     0.801537384604
    H            1.027385402900    -0.109144369038     2.165776863814
    C           -1.279373169936     1.042183131516     1.051752337736
    H            0.199488787399     1.064259765478    -0.524639448411
    H            0.646145921042     1.980333884342     0.872337092663
    C           -2.177118571856    -0.010331414742     0.381260484240
    H           -1.713465370790     2.024371277031     0.897551418665
    H           -1.275256532348     0.885833031142     2.126863578620
    C           -2.893749994802     0.516393010655    -0.862306470187
    H           -1.585227781742    -0.872074122063     0.088175794010
    H           -2.918088696086    -0.368575048016     1.088306277355
    C           -3.729948395599    -0.542425120295    -1.574862355657
    H           -2.163582626619     0.922134157224    -1.558348607817
    H           -3.534964808751     1.347126832605    -0.577874066288
    C           -4.457603937061    -0.005932136641    -2.803122730700
    H           -3.088265337812    -1.368410538890    -1.869620845432
    H           -4.455233330190    -0.955017227689    -0.878554402729
    H           -5.039880029919    -0.782587745111    -3.285583333707
    H           -3.756763951296     0.383944568056    -3.533813542299
    H           -5.135635129292     0.797885011759    -2.536184492482
    C            4.455694430702    -1.253800208988     0.711510454310
    H            4.547392083646    -1.363957531691    -0.358867359620
    H            4.824418748436    -2.135957124597     1.209254491899
    H            5.017095518571    -0.386417697310     1.025699764118

  Mulliken Charges: (a.u.)
   Center  Symbol    Alpha    Beta     Spin     Total
       1     O     4.19680  4.19680  0.00000 -0.39360
       2     C     2.80454  2.80454  0.00000  0.39093
       3     C     3.10119  3.10119  0.00000 -0.20239
       4     O     4.14739  4.14739  0.00000 -0.29478
       5     C     3.09113  3.09113  0.00000 -0.18226
       6     H     0.43939  0.43939  0.00000  0.12122
       7     H     0.43927  0.43927  0.00000  0.12146
       8     C     3.11529  3.11529  0.00000 -0.23057
       9     H     0.44498  0.44498  0.00000  0.11004
      10     H     0.44097  0.44097  0.00000  0.11806
      11     C     3.09928  3.09928  0.00000 -0.19855
      12     H     0.44466  0.44466  0.00000  0.11067
      13     H     0.44703  0.44703  0.00000  0.10594
      14     C     3.08468  3.08468  0.00000 -0.16936
      15     H     0.45560  0.45560  0.00000  0.08881
      16     H     0.44638  0.44638  0.00000  0.10725
      17     C     3.08468  3.08468  0.00000 -0.16935
      18     H     0.45303  0.45303  0.00000  0.09393
      19     H     0.45396  0.45396  0.00000  0.09208
      20     C     3.14999  3.14999  0.00000 -0.29997
      21     H     0.45477  0.45477  0.00000  0.09046
      22     H     0.45482  0.45482  0.00000  0.09036
      23     H     0.44852  0.44852  0.00000  0.10297
      24     H     0.45467  0.45467  0.00000  0.09067
      25     H     0.45510  0.45510  0.00000  0.08979
      26     C     3.03803  3.03803  0.00000 -0.07605
      27     H     0.45438  0.45438  0.00000  0.09124
      28     H     0.44526  0.44526  0.00000  0.10947
      29     H     0.45423  0.45423  0.00000  0.09155

   Total alpha = 44.00000, Total beta = 44.00000, Total charge =  0.00000

*** Psi4 exiting successfully. Buy a developer a beer!
