  ==> Input File <==

--------------------------------------------------------------------------
set {
	reference rhf
	basis cc-pvtz
}

set_num_threads( 4 )
memory 2 gb

molecule MOL {
0 1

H	 -2.579498	 -0.818514	 1.759833
C	 -2.572620	 -1.330973	 0.800551
O	 -1.326463	 -1.255995	 0.193089
H	 -2.799327	 -2.374663	 0.962424
H	 -3.349945	 -0.897694	 0.173718
C	 -0.902177	 0.037304	 -0.087977
C	 0.498427	 0.004964	 -0.646194
H	 -1.563326	 0.500565	 -0.820262
H	 -0.914897	 0.650421	 0.810553
O	 1.401606	 -0.295166	 0.366636
H	 0.549859	 -0.736958	 -1.440132
H	 0.727889	 0.978056	 -1.080258
C	 2.714315	 -0.441627	 -0.061017
H	 2.765292	 -0.641548	 -1.128869
H	 3.305661	 0.447341	 0.150952
H	 3.143725	 -1.278506	 0.470147

	symmetry c1
}
set optking {
	frozen_dihedral = ("
		7 10 13 14
	")
}

ee = optimize('scf')
oeprop('DIPOLE', 'QUADRUPOLE', 'MULLIKEN_CHARGES')
f=open( 'psi4out.xyz', 'w' )
f.write( "16  " )
f.write( str(ee) + "\n" )
f.write( MOL.save_string_xyz() )
f.close()
--------------------------------------------------------------------------

    Molecular point group: c1
  Charge       = 0
  Multiplicity = 1
  Basis Set: CC-PVTZ
  Basis Set:
  @DF-RHF Final Energy:  -307.09489324338409
    Total Energy =                       -307.0948932433838081
    Molecular point group: c1
  Basis Set: CC-PVTZ
  Basis Set:
  Basis Set: CC-PVTZ
  Basis Set:
  @DF-RHF Final Energy:  -307.09509008158795
    Total Energy =                       -307.0950900815881255
  Basis Set: CC-PVTZ
  Basis Set:
  Basis Set: CC-PVTZ
  Basis Set:
  @DF-RHF Final Energy:  -307.09516187719379
    Total Energy =                       -307.0951618771937888
  Basis Set: CC-PVTZ
  Basis Set:
  Charge       = 0
  Multiplicity = 1
  Basis Set: CC-PVTZ
  Basis Set:

    Orbital Energies (a.u.)
    -----------------------

    Doubly Occupied:

       1A    -20.547503     2A    -20.545048     3A    -11.267806
       4A    -11.266696     5A    -11.261402     6A    -11.261203
       7A     -1.390011     8A     -1.372230     9A     -1.031854
      10A     -0.937289    11A     -0.892184    12A     -0.824142
      13A     -0.685170    14A     -0.681357    15A     -0.659097
      16A     -0.637198    17A     -0.630165    18A     -0.598207
      19A     -0.553628    20A     -0.536960    21A     -0.509501
      22A     -0.479247    23A     -0.464078    24A     -0.421457
      25A     -0.410913

  @DF-RHF Final Energy:  -307.09516271975224

   => Energetics <=

    Nuclear Repulsion Energy =            258.7008258270791430
    One-Electron Energy =                -931.8632877250223601
    Two-Electron Energy =                 366.0672991781909218
    DFT Exchange-Correlation Energy =       0.0000000000000000
    Empirical Dispersion Energy =           0.0000000000000000
    PCM Polarization Energy =               0.0000000000000000
    EFP Energy =                            0.0000000000000000
    Total Energy =                       -307.0951627197522953
    Molecular point group: c1
  Basis Set: CC-PVTZ
  Basis Set:

  -Total Gradient:
     Atom            X                  Y                   Z
    ------   -----------------  -----------------  -----------------
       1       -0.000001013920    -0.000000425811     0.000000437918
       2       -0.000002708743     0.000005965877     0.000003074370
       3        0.000006147702    -0.000002576149     0.000019406489
       4        0.000003153668     0.000000085483    -0.000000691547
       5        0.000003406289     0.000000582526    -0.000001276625
       6       -0.000036418547     0.000011821162    -0.000066148058
       7       -0.000371681272    -0.001826808961    -0.000316723070
       8       -0.000044351809     0.000009833733     0.000000661000
       9        0.000017051603    -0.000026639960    -0.000018423767
      10        0.000618031853     0.003396754662     0.000314533500
      11        0.000001569061    -0.000006472465     0.000029559958
      12        0.000004056203    -0.000021203208     0.000000625304
      13       -0.000335526551    -0.003930140829     0.000481923797
      14        0.000123564885     0.002402722553    -0.000432648653
      15       -0.000019256119     0.000005861293    -0.000008607666
      16        0.000033975697    -0.000019359903    -0.000005702951

  **** Optimization is complete! (in 4 steps) ****
    Final optimized geometry and variables:
    Molecular point group: c1

    Geometry (in Angstrom), charge = 0, multiplicity = 1:

    H           -2.539072694331    -0.269810834433     1.670967893739
    C           -2.537931440294    -0.779500979009     0.710192742677
    O           -1.296260012524    -0.700365824372     0.094250637806
    H           -2.761549692617    -1.824086721501     0.870629960797
    H           -3.320504301758    -0.345916125550     0.090092114172
    C           -0.876330726623     0.594571312366    -0.185744086996
    C            0.520826872487     0.566709809606    -0.753077033544
    H           -1.542834984589     1.058480172583    -0.912917426999
    H           -0.885062211934     1.205055460305     0.714484029039
    O            1.427567316253     0.255648959102     0.254159399113
    H            0.566399060936    -0.169310727619    -1.551625289338
    H            0.743122687799     1.543988024309    -1.181524546397
    C            2.751674074296     0.096627186783    -0.147556246763
    H            2.830435438282    -0.102389044031    -1.211884497271
    H            3.326232236706     0.994846234992     0.062706749502
    H            3.186818826083    -0.729191180433     0.398716770783

  Mulliken Charges: (a.u.)
   Center  Symbol    Alpha    Beta     Spin     Total
       1     H     0.47018  0.47018  0.00000  0.05964
       2     C     3.03203  3.03203  0.00000 -0.06405
       3     O     4.17030  4.17030  0.00000 -0.34060
       4     H     0.44644  0.44644  0.00000  0.10713
       5     H     0.47374  0.47374  0.00000  0.05252
       6     C     2.96287  2.96287  0.00000  0.07425
       7     C     2.95916  2.95916  0.00000  0.08168
       8     H     0.47622  0.47622  0.00000  0.04756
       9     H     0.47095  0.47095  0.00000  0.05809
      10     O     4.17399  4.17399  0.00000 -0.34798
      11     H     0.46951  0.46951  0.00000  0.06099
      12     H     0.47705  0.47705  0.00000  0.04591
      13     C     3.02804  3.02804  0.00000 -0.05608
      14     H     0.47398  0.47398  0.00000  0.05204
      15     H     0.46447  0.46447  0.00000  0.07106
      16     H     0.45108  0.45108  0.00000  0.09785

   Total alpha = 25.00000, Total beta = 25.00000, Total charge =  0.00000
