  ==> Input File <==

--------------------------------------------------------------------------
set {
	reference rhf
	basis 6-31G*
}

set_num_threads( 1 )
memory 2 gb

molecule MOL {
0 1

O	 0.749854	 1.307668	 -0.000040
C	 0.576249	 0.131685	 -0.000108
C	 -0.766779	 -0.556801	 -0.000461
O	 1.568443	 -0.749345	 -0.000005
C	 -1.945214	 0.412366	 0.000161
H	 -0.796911	 -1.211249	 -0.867467
H	 -0.796854	 -1.212390	 0.865687
C	 -3.287791	 -0.317055	 0.000105
H	 -1.876087	 1.060580	 -0.866812
H	 -1.875822	 1.059691	 0.867761
H	 -3.394745	 -0.949193	 -0.877058
H	 -4.111778	 0.388953	 0.000015
H	 -3.394954	 -0.949187	 0.877259
C	 1.223887	 -2.105266	 0.219009
H	 0.753554	 -2.226643	 1.184201
H	 2.151551	 -2.654837	 0.183282
H	 0.551142	 -2.455520	 -0.550566

	symmetry c1
}
set optking {
	frozen_dihedral = ("
		1 2 3 6,
		9 5 3 6
	")
}

ee = energy('scf')
oeprop('DIPOLE', 'QUADRUPOLE', 'MULLIKEN_CHARGES')
f=open( 'psi4out.xyz', 'w' )
f.write( "17  " )
f.write( str(ee) + "\n" )
f.write( MOL.save_string_xyz() )
f.close()
--------------------------------------------------------------------------

    Molecular point group: c1

    Geometry (in Angstrom), charge = 0, multiplicity = 1:

       Center              X                  Y                   Z               Mass
    ------------   -----------------  -----------------  -----------------  -----------------
           O          1.006602307299     1.596807521890    -0.033806108200    15.994914619560
           C          0.832997307299     0.420824521890    -0.033874108200    12.000000000000
           C         -0.510030692701    -0.267661478110    -0.034227108200    12.000000000000
           O          1.825191307299    -0.460205478110    -0.033771108200    15.994914619560
           C         -1.688465692701     0.701505521890    -0.033605108200    12.000000000000
           H         -0.540162692701    -0.922109478110    -0.901233108200     1.007825032070
           H         -0.540105692701    -0.923250478110     0.831920891800     1.007825032070
           C         -3.031042692701    -0.027915478110    -0.033661108200    12.000000000000
           H         -1.619338692701     1.349719521890    -0.900578108200     1.007825032070
           H         -1.619073692701     1.348830521890     0.833994891800     1.007825032070
           H         -3.137996692701    -0.660053478110    -0.910824108200     1.007825032070
           H         -3.855029692701     0.678092521890    -0.033751108200     1.007825032070
           H         -3.138205692701    -0.660047478110     0.843492891800     1.007825032070
           C          1.480635307299    -1.816126478110     0.185242891800    12.000000000000
           H          1.010302307299    -1.937503478110     1.150434891800     1.007825032070
           H          2.408299307299    -2.365697478110     0.149515891800     1.007825032070
           H          0.807890307299    -2.166380478110    -0.584332108200     1.007825032070

  Charge       = 0
  Multiplicity = 1
  Basis Set: 6-31G*
  Basis Set:

    Orbital Energies (a.u.)
    -----------------------

    Doubly Occupied:

       1A    -20.608686     2A    -20.543592     3A    -11.375225
       4A    -11.297963     5A    -11.243083     6A    -11.225998
       7A    -11.219134     8A     -1.469227     9A     -1.369421
      10A     -1.084749    11A     -0.989934    12A     -0.978596
      13A     -0.844827    14A     -0.762573    15A     -0.707808
      16A     -0.702063    17A     -0.677512    18A     -0.637354
      19A     -0.603761    20A     -0.580456    21A     -0.570156
      22A     -0.550974    23A     -0.540268    24A     -0.499783
      25A     -0.490873    26A     -0.485023    27A     -0.449974
      28A     -0.430032

  @DF-RHF Final Energy:  -344.87938731763552

   => Energetics <=

    Nuclear Repulsion Energy =            317.6146462972985773
    One-Electron Energy =               -1099.1099959897744611
    Two-Electron Energy =                 436.6159623748408194
    DFT Exchange-Correlation Energy =       0.0000000000000000
    Empirical Dispersion Energy =           0.0000000000000000
    PCM Polarization Energy =               0.0000000000000000
    EFP Energy =                            0.0000000000000000
    Total Energy =                       -344.8793873176350644

  Mulliken Charges: (a.u.)
   Center  Symbol    Alpha    Beta     Spin     Total
       1     O     4.27335  4.27335  0.00000 -0.54671
       2     C     2.58837  2.58837  0.00000  0.82326
       3     C     3.24527  3.24527  0.00000 -0.49054
       4     O     4.30062  4.30062  0.00000 -0.60123
       5     C     3.14677  3.14677  0.00000 -0.29353
       6     H     0.40086  0.40086  0.00000  0.19827
       7     H     0.40386  0.40386  0.00000  0.19228
       8     C     3.24284  3.24284  0.00000 -0.48568
       9     H     0.40867  0.40867  0.00000  0.18266
      10     H     0.40918  0.40918  0.00000  0.18163
      11     H     0.42235  0.42235  0.00000  0.15530
      12     H     0.41358  0.41358  0.00000  0.17284
      13     H     0.42269  0.42269  0.00000  0.15461
      14     C     3.10087  3.10087  0.00000 -0.20175
      15     H     0.41203  0.41203  0.00000  0.17595
      16     H     0.39449  0.39449  0.00000  0.21103
      17     H     0.41420  0.41420  0.00000  0.17161

   Total alpha = 28.00000, Total beta = 28.00000, Total charge = -0.00000
