                              Psi4 1.0.54 Driver

  ==> Input File <==

--------------------------------------------------------------------------
set {
	reference rhf
	basis cc-pvtz
}

set_num_threads( 4 )
memory 2 gb

molecule MOL {
0 1

H	 -1.835082	 1.385983	 0.000069
C	 -1.300516	 0.441153	 -0.000028
O	 -0.006604	 0.654344	 -0.000106
O	 -1.828920	 -0.612308	 0.000113
C	 0.848969	 -0.463638	 -0.219045
C	 2.275065	 0.031214	 -0.173530
H	 0.609760	 -0.904268	 -1.176428
H	 0.658788	 -1.203901	 0.545026
H	 2.449961	 0.774284	 -0.941142
H	 2.953563	 -0.797486	 -0.337085
H	 2.499231	 0.473173	 0.788962

	symmetry c1
}
set optking {
	frozen_dihedral = ("
		5 3 2 4
	")
}

ee,wfn = optimize('scf', return_wfn=True)
oeprop( wfn, 'DIPOLE', 'QUADRUPOLE', 'MULLIKEN_CHARGES')
f=open( 'psi4out.xyz', 'w' )
f.write( "11  " )
f.write( str(ee) + "\n" )
f.write( MOL.save_string_xyz() )
f.close()
--------------------------------------------------------------------------

    Molecular point group: c1
  Charge       = 0
  Multiplicity = 1
  Basis Set: CC-PVTZ
  Basis Set:
  @DF-RHF Final Energy:  -266.93124249118728
    Total Energy =                       -266.9312424911872199
    Molecular point group: c1
  Basis Set: CC-PVTZ
  Basis Set:
  Basis Set: CC-PVTZ
  Basis Set:
  @DF-RHF Final Energy:  -266.92918437120653
    Total Energy =                       -266.9291843712065315
  Basis Set: CC-PVTZ
  Basis Set:
  Basis Set: CC-PVTZ
  Basis Set:
  @DF-RHF Final Energy:  -266.93124164087885
    Total Energy =                       -266.9312416408788522
  Basis Set: CC-PVTZ
  Basis Set:
  Basis Set: CC-PVTZ
  Basis Set:
  @DF-RHF Final Energy:  -266.93131841826266
    Total Energy =                       -266.9313184182628333
  Basis Set: CC-PVTZ
  Basis Set:
  Basis Set: CC-PVTZ
  Basis Set:
  @DF-RHF Final Energy:  -266.93132397082150
    Total Energy =                       -266.9313239708214951
  Basis Set: CC-PVTZ
  Basis Set:
  Charge       = 0
  Multiplicity = 1
  Basis Set: CC-PVTZ
  Basis Set:

    Orbital Energies (a.u.)
    -----------------------

    Doubly Occupied:

       1A    -20.605141     2A    -20.546066     3A    -11.370211
       4A    -11.290265     5A    -11.225214     6A     -1.479214
       7A     -1.377469     8A     -1.053815     9A     -0.903591
      10A     -0.806393    11A     -0.740652    12A     -0.693220
      13A     -0.682339    14A     -0.594839    15A     -0.577222
      16A     -0.558338    17A     -0.519431    18A     -0.516206
      19A     -0.463950    20A     -0.457873

  @DF-RHF Final Energy:  -266.93132456884138

   => Energetics <=

    Nuclear Repulsion Energy =            179.5864513299754890
    One-Electron Energy =                -720.1126531472768875
    Two-Electron Energy =                 273.5948772484599658
    DFT Exchange-Correlation Energy =       0.0000000000000000
    Empirical Dispersion Energy =           0.0000000000000000
    PCM Polarization Energy =               0.0000000000000000
    EFP Energy =                            0.0000000000000000
    Total Energy =                       -266.9313245688414327
    Molecular point group: c1
  Basis Set: CC-PVTZ
  Basis Set:

  -Total Gradient:
     Atom            X                  Y                   Z
    ------   -----------------  -----------------  -----------------
       1        0.000021971133     0.000011724607    -0.000010511965
       2        0.000208163140     0.000581620360    -0.006794739494
       3       -0.000118439697    -0.000878804202     0.005886689537
       4       -0.000133548005    -0.000240139297     0.003572164666
       5        0.000031408590     0.000508327915    -0.002625197144
       6       -0.000002553305     0.000005122728    -0.000014296832
       7       -0.000002464022     0.000011807946    -0.000005435018
       8       -0.000003012110    -0.000000565818    -0.000003056392
       9        0.000006602830     0.000004241838    -0.000002668353
      10       -0.000001515844     0.000001167791    -0.000001596213
      11       -0.000006612714    -0.000004503867    -0.000001352791

  **** Optimization is complete! (in 6 steps) ****
    Final optimized geometry and variables:
    Molecular point group: c1

    Geometry (in Angstrom), charge = 0, multiplicity = 1:

    H           -1.831673611638     1.380184083190     0.111002044455
    C           -1.299682284231     0.434815009867     0.068943187820
    O           -0.004976016959     0.641459012900     0.116047824324
    O           -1.831458506243    -0.615763228663     0.020559158430
    C            0.852985599035    -0.473484349958    -0.109588324479
    C            2.276784324022     0.029618881971    -0.094378840059
    H            0.597627889513    -0.920797026661    -1.059947786105
    H            0.682983928669    -1.210692959842     0.661937041668
    H            2.433455259103     0.768463554191    -0.869970007198
    H            2.956882113891    -0.796505155870    -0.264308179801
    H            2.515732979716     0.479299016533     0.860942296409

  Mulliken Charges: (a.u.)
   Center  Symbol    Alpha    Beta     Spin     Total
       1     H     0.44822  0.44822  0.00000  0.10357
       2     C     2.84612  2.84612  0.00000  0.30777
       3     O     4.14468  4.14468  0.00000 -0.28935
       4     O     4.19425  4.19425  0.00000 -0.38851
       5     C     2.97233  2.97233  0.00000  0.05535
       6     C     3.13319  3.13319  0.00000 -0.26639
       7     H     0.45466  0.45466  0.00000  0.09067
       8     H     0.45167  0.45167  0.00000  0.09665
       9     H     0.45067  0.45067  0.00000  0.09865
      10     H     0.45425  0.45425  0.00000  0.09149
      11     H     0.44995  0.44995  0.00000  0.10010

   Total alpha = 20.00000, Total beta = 20.00000, Total charge =  0.00000

*** Psi4 exiting successfully. Buy a developer a beer!
