  ==> Input File <==

--------------------------------------------------------------------------
set {
	reference rhf
	basis 6-31G*
}

set_num_threads( 4 )
memory 2 gb

molecule MOL {
0 1

H	 2.947557	 5.276195	 -1.538646
C	 1.972175	 5.071148	 -1.968888
C	 1.418167	 3.736930	 -1.470778
H	 1.313000	 5.891176	 -1.699845
H	 2.080290	 5.073940	 -3.050139
C	 0.045192	 3.413430	 -2.064159
H	 1.348058	 3.759847	 -0.388114
H	 2.116277	 2.940663	 -1.724337
C	 -0.527130	 2.074722	 -1.597710
H	 -0.654713	 4.202489	 -1.812839
H	 0.122943	 3.392532	 -3.148852
C	 -0.974344	 2.056836	 -0.143433
H	 -1.402288	 1.821450	 -2.194136
H	 0.184507	 1.268920	 -1.763339
C	 -1.181045	 0.701995	 0.511084
O	 -1.175213	 3.066615	 0.461881
C	 -2.285934	 -0.139295	 -0.145128
H	 -1.418783	 0.885994	 1.551920
H	 -0.241541	 0.153605	 0.475247
C	 -3.651768	 0.085446	 0.506485
H	 -2.346596	 0.110469	 -1.202272
H	 -2.034737	 -1.195320	 -0.088721
C	 -4.759797	 -0.746382	 -0.137905
H	 -3.908762	 1.140117	 0.445781
H	 -3.588286	 -0.154158	 1.565709
H	 -4.868882	 -0.505166	 -1.191300
H	 -4.548009	 -1.809175	 -0.062213
H	 -5.715422	 -0.564821	 0.343442

	symmetry c1
}
set optking {
	frozen_dihedral = ("
		12 15 17 21
	")
}

ee = optimize('scf')
oeprop('DIPOLE', 'QUADRUPOLE', 'MULLIKEN_CHARGES')
f=open( 'psi4out.xyz', 'w' )
f.write( "28  " )
f.write( str(ee) + "\n" )
f.write( MOL.save_string_xyz() )
f.close()
--------------------------------------------------------------------------

    Molecular point group: c1
  Charge       = 0
  Multiplicity = 1
  Basis Set: 6-31G*
  Basis Set:
  @DF-RHF Final Energy:  -426.16532688667940
    Total Energy =                       -426.1653268866791677
    Molecular point group: c1
  Basis Set: 6-31G*
  Basis Set:
  Basis Set: 6-31G*
  Basis Set:
  @DF-RHF Final Energy:  -426.16402457757260
    Total Energy =                       -426.1640245775720359
  Basis Set: 6-31G*
  Basis Set:
  Basis Set: 6-31G*
  Basis Set:
  @DF-RHF Final Energy:  -426.16451772606172
    Total Energy =                       -426.1645177260619448
  Basis Set: 6-31G*
  Basis Set:
  Basis Set: 6-31G*
  Basis Set:
  @DF-RHF Final Energy:  -426.16578969708360
    Total Energy =                       -426.1657896970835964
  Basis Set: 6-31G*
  Basis Set:
  @DF-RHF Final Energy:  -426.16579984815235
    Total Energy =                       -426.1657998481524601
  @DF-RHF Final Energy:  -426.16586357310962
    Total Energy =                       -426.1658635731098457
  @DF-RHF Final Energy:  -426.16590246075839
    Total Energy =                       -426.1659024607583888
  @DF-RHF Final Energy:  -426.16415196906564
    Total Energy =                       -426.1641519690654150
  @DF-RHF Final Energy:  -426.15643188082367
    Total Energy =                       -426.1564318808235612
  @DF-RHF Final Energy:  -426.15907033436019
    Total Energy =                       -426.1590703343601945
  @DF-RHF Final Energy:  -426.16231545287360
    Total Energy =                       -426.1623154528735995
  @DF-RHF Final Energy:  -426.16567982697643
    Total Energy =                       -426.1656798269762021
  @DF-RHF Final Energy:  -426.16597129148488
    Total Energy =                       -426.1659712914847660
  @DF-RHF Final Energy:  -426.16605457756214
    Total Energy =                       -426.1660545775619084
  @DF-RHF Final Energy:  -426.16622206304180
    Total Energy =                       -426.1662220630413458
  @DF-RHF Final Energy:  -426.16652194646281
    Total Energy =                       -426.1665219464631491
  @DF-RHF Final Energy:  -426.16666763609896
    Total Energy =                       -426.1666676360988504
  @DF-RHF Final Energy:  -426.16676752300646
    Total Energy =                       -426.1667675230069108
  @DF-RHF Final Energy:  -426.16681380983550
    Total Energy =                       -426.1668138098352756
  Basis Set: 6-31G*
  Basis Set:
  @DF-RHF Final Energy:  -426.16682782783255
    Total Energy =                       -426.1668278278325488
  Basis Set: 6-31G*
  Basis Set:
  Basis Set: 6-31G*
  Basis Set:
  @DF-RHF Final Energy:  -426.16683217959610
    Total Energy =                       -426.1668321795963266
  Basis Set: 6-31G*
  Basis Set:
  Basis Set: 6-31G*
  Basis Set:
  @DF-RHF Final Energy:  -426.16683322380675
    Total Energy =                       -426.1668332238074299
  Basis Set: 6-31G*
  Basis Set:
  Charge       = 0
  Multiplicity = 1
  Basis Set: 6-31G*
  Basis Set:

    Orbital Energies (a.u.)
    -----------------------

    Doubly Occupied:

       1A    -20.548755     2A    -11.323317     3A    -11.231488
       4A    -11.230688     5A    -11.228870     6A    -11.216676
       7A    -11.216356     8A    -11.210179     9A    -11.210108
      10A    -11.204652    11A     -1.393911    12A     -1.090507
      13A     -1.076327    14A     -1.020894    15A     -0.988736
      16A     -0.907699    17A     -0.868500    18A     -0.805738
      19A     -0.796289    20A     -0.726814    21A     -0.671094
      22A     -0.646943    23A     -0.620696    24A     -0.614899
      25A     -0.607398    26A     -0.583663    27A     -0.579345
      28A     -0.571222    29A     -0.541119    30A     -0.532119
      31A     -0.525715    32A     -0.512432    33A     -0.496412
      34A     -0.479217    35A     -0.474029    36A     -0.470828
      37A     -0.464821    38A     -0.460814    39A     -0.455401
      40A     -0.391835

  @DF-RHF Final Energy:  -426.16683384945338

   => Energetics <=

    Nuclear Repulsion Energy =            537.2327596577758868
    One-Electron Energy =               -1642.8061736824352010
    Two-Electron Energy =                 679.4065801752062725
    DFT Exchange-Correlation Energy =       0.0000000000000000
    Empirical Dispersion Energy =           0.0000000000000000
    PCM Polarization Energy =               0.0000000000000000
    EFP Energy =                            0.0000000000000000
    Total Energy =                       -426.1668338494530417
    Molecular point group: c1
  Basis Set: 6-31G*
  Basis Set:

  -Total Gradient:
     Atom            X                  Y                   Z
    ------   -----------------  -----------------  -----------------
       1       -0.000005033738     0.000004182511     0.000003897766
       2       -0.000007888923    -0.000009032431    -0.000005494054
       3       -0.000024766546    -0.000019034487     0.000055036090
       4       -0.000000862255    -0.000000273606    -0.000006121906
       5        0.000007436357     0.000002237688     0.000002795068
       6       -0.000014521405    -0.000025247434     0.000051076506
       7        0.000015755799     0.000006261092    -0.000037511181
       8        0.000007296447    -0.000004114071    -0.000008581533
       9       -0.000001558734     0.000022421339     0.000051752797
      10       -0.000025438898     0.000020892982     0.000001074759
      11       -0.000015988691    -0.000013438956    -0.000004286711
      12        0.001057345816    -0.001018429983    -0.002121225993
      13       -0.000020156469    -0.000020443766     0.000008671319
      14        0.000026325584     0.000007583732    -0.000002171145
      15       -0.001976906188     0.001926396253     0.003181743530
      16        0.000080466314     0.000022294567    -0.000008154614
      17        0.002430941634    -0.003792069693    -0.002592656941
      18        0.000045624482     0.000024676152     0.000020687661
      19        0.000056129245     0.000048079294    -0.000035845568
      20       -0.000030309469     0.000083260974    -0.000075059890
      21       -0.001577414113     0.002765955898     0.001508530803
      22       -0.000016315335    -0.000002204258     0.000008358167
      23       -0.000037813751     0.000006155104     0.000012845638
      24       -0.000005006295    -0.000011509409     0.000011252447
      25        0.000035808921    -0.000012773646    -0.000022322306
      26        0.000010970162    -0.000004887085    -0.000000172046
      27       -0.000007308774    -0.000005852118     0.000006102626
      28       -0.000006811173    -0.000001086641    -0.000004221291

  **** Optimization is complete! (in 23 steps) ****
    Final optimized geometry and variables:
    Molecular point group: c1

    Geometry (in Angstrom), charge = 0, multiplicity = 1:

    H            3.349938086771     4.060900962093    -0.660940044121
    C            2.635258289493     3.498519633283    -1.253814024877
    C            2.414585235195     2.102171058142    -0.673640768880
    H            1.707463176002     4.062694154223    -1.275135971510
    H            3.015888442970     3.448218151617    -2.270506557500
    C            1.418537140794     1.278303735093    -1.493208811789
    H            2.059112178209     2.187203704719     0.346855769086
    H            3.366832812324     1.575409063077    -0.634198106610
    C            1.182623744555    -0.129206957400    -0.946751534665
    H            0.469877594301     1.802627550278    -1.545278790280
    H            1.786421883680     1.191676438556    -2.513170145878
    C            0.324058624581    -0.195899999982     0.303894963430
    H            0.699988262470    -0.755220894506    -1.696394198998
    H            2.128519545770    -0.622843076551    -0.728698348065
    C            0.017243139537    -1.581305816767     0.845905597006
    O           -0.130625795317     0.781011679826     0.820479179634
    C           -1.359540644137    -2.079730057851     0.347091254542
    H            0.028503841417    -1.533952277416     1.928717305774
    H            0.794708299890    -2.272141436336     0.535345527976
    C           -2.504084882188    -1.700990117395     1.291361774858
    H           -1.574411590244    -1.651699471219    -0.630061517518
    H           -1.331193453875    -3.157655130137     0.220953644237
    C           -3.871443690012    -2.133467390676     0.764511749090
    H           -2.492908370702    -0.627435392880     1.451050722567
    H           -2.328736135975    -2.159309314702     2.262165140192
    H           -4.093149295116    -1.660524208600    -0.188116941752
    H           -3.915676061295    -3.209280278839     0.617495581478
    H           -4.660929439961    -1.862350368202     1.458212564160

  Mulliken Charges: (a.u.)
   Center  Symbol    Alpha    Beta     Spin     Total
       1     H     0.41935  0.41935  0.00000  0.16129
       2     C     3.24036  3.24036  0.00000 -0.48073
       3     C     3.15608  3.15608  0.00000 -0.31216
       4     H     0.41891  0.41891  0.00000  0.16217
       5     H     0.42418  0.42418  0.00000  0.15164
       6     C     3.14878  3.14878  0.00000 -0.29756
       7     H     0.40604  0.40604  0.00000  0.18792
       8     H     0.42819  0.42819  0.00000  0.14363
       9     C     3.21295  3.21295  0.00000 -0.42589
      10     H     0.41000  0.41000  0.00000  0.18000
      11     H     0.42199  0.42199  0.00000  0.15601
      12     C     2.73665  2.73665  0.00000  0.52670
      13     H     0.40644  0.40644  0.00000  0.18711
      14     H     0.40848  0.40848  0.00000  0.18303
      15     C     3.20100  3.20100  0.00000 -0.40200
      16     O     4.26688  4.26688  0.00000 -0.53377
      17     C     3.16005  3.16005  0.00000 -0.32010
      18     H     0.40016  0.40016  0.00000  0.19969
      19     H     0.41360  0.41360  0.00000  0.17280
      20     C     3.15552  3.15552  0.00000 -0.31103
      21     H     0.41913  0.41913  0.00000  0.16174
      22     H     0.41542  0.41542  0.00000  0.16916
      23     C     3.24116  3.24116  0.00000 -0.48232
      24     H     0.40485  0.40485  0.00000  0.19029
      25     H     0.42268  0.42268  0.00000  0.15465
      26     H     0.42112  0.42112  0.00000  0.15776
      27     H     0.42298  0.42298  0.00000  0.15405
      28     H     0.41704  0.41704  0.00000  0.16591

   Total alpha = 40.00000, Total beta = 40.00000, Total charge = -0.00000
