  ==> Input File <==

--------------------------------------------------------------------------
set {
	reference rhf
	basis cc-pvtz
}

set_num_threads( 4 )
memory 2 gb

molecule MOL {
0 1

H	 -2.498963	 -0.741158	 -0.729149
O	 -2.346257	 -0.289210	 0.080372
C	 -1.183935	 0.486039	 -0.009831
C	 0.062853	 -0.375310	 0.027457
H	 -1.178881	 1.094526	 -0.908634
H	 -1.184406	 1.155156	 0.838676
O	 0.824168	 -0.090919	 -1.099917
H	 -0.214304	 -1.430653	 0.045650
H	 0.620300	 -0.168650	 0.938565
C	 2.021440	 -0.791610	 -1.182345
H	 1.851851	 -1.865538	 -1.216886
H	 2.520374	 -0.488785	 -2.091217
H	 2.669034	 -0.572459	 -0.336701

	symmetry c1
}
set optking {
	frozen_dihedral = ("
		8 4 3 5
	")
}

ee = optimize('scf')
oeprop('DIPOLE', 'QUADRUPOLE', 'MULLIKEN_CHARGES')
f=open( 'psi4out.xyz', 'w' )
f.write( "13  " )
f.write( str(ee) + "\n" )
f.write( MOL.save_string_xyz() )
f.close()
--------------------------------------------------------------------------

    Molecular point group: c1
  Charge       = 0
  Multiplicity = 1
  Basis Set: CC-PVTZ
  Basis Set:
  @DF-RHF Final Energy:  -268.05646621100431
    Total Energy =                       -268.0564662110042491
    Molecular point group: c1
  Basis Set: CC-PVTZ
  Basis Set:
  Basis Set: CC-PVTZ
  Basis Set:
  @DF-RHF Final Energy:  -268.05703583866841
    Total Energy =                       -268.0570358386685825
  Basis Set: CC-PVTZ
  Basis Set:
  Basis Set: CC-PVTZ
  Basis Set:
  @DF-RHF Final Energy:  -268.05723365016183
    Total Energy =                       -268.0572336501616064
  Basis Set: CC-PVTZ
  Basis Set:
  Basis Set: CC-PVTZ
  Basis Set:
  @DF-RHF Final Energy:  -268.05723644999887
    Total Energy =                       -268.0572364499990954
  Basis Set: CC-PVTZ
  Basis Set:
  Charge       = 0
  Multiplicity = 1
  Basis Set: CC-PVTZ
  Basis Set:

    Orbital Energies (a.u.)
    -----------------------

    Doubly Occupied:

       1A    -20.555924     2A    -20.549545     3A    -11.269650
       4A    -11.267720     5A    -11.267709     6A     -1.390967
       7A     -1.365875     8A     -1.016702     9A     -0.915475
      10A     -0.842756    11A     -0.707333    12A     -0.680990
      13A     -0.659043    14A     -0.631515    15A     -0.609185
      16A     -0.566409    17A     -0.538702    18A     -0.493782
      19A     -0.486163    20A     -0.440723    21A     -0.422193

  @DF-RHF Final Energy:  -268.05723678012930

   => Energetics <=

    Nuclear Repulsion Energy =            190.6042848784748287
    One-Electron Energy =                -743.9663198893492790
    Two-Electron Energy =                 285.3047982307451775
    DFT Exchange-Correlation Energy =       0.0000000000000000
    Empirical Dispersion Energy =           0.0000000000000000
    PCM Polarization Energy =               0.0000000000000000
    EFP Energy =                            0.0000000000000000
    Total Energy =                       -268.0572367801293012
    Molecular point group: c1
  Basis Set: CC-PVTZ
  Basis Set:

  -Total Gradient:
     Atom            X                  Y                   Z
    ------   -----------------  -----------------  -----------------
       1       -0.000012872350    -0.000004557306    -0.000000372760
       2        0.000025634663    -0.000006363116    -0.000014950943
       3        0.000146977908     0.000271944502     0.000131368067
       4       -0.000021799521    -0.000015944471     0.000276706480
       5       -0.000142811484    -0.000208888047    -0.000144878446
       6        0.000011768372     0.000001515655    -0.000002733274
       7       -0.000036771502    -0.000015864130     0.000056193231
       8        0.000003321457    -0.000012751531    -0.000287525829
       9       -0.000003172630    -0.000000132468     0.000000278482
      10        0.000025224149    -0.000009663275    -0.000012422715
      11        0.000001410981     0.000001409450    -0.000002645680
      12        0.000000501722    -0.000001896089     0.000001300949
      13        0.000002588231     0.000001190827    -0.000000317563

  **** Optimization is complete! (in 5 steps) ****
    Final optimized geometry and variables:
    Molecular point group: c1

    Geometry (in Angstrom), charge = 0, multiplicity = 1:

    H           -2.365583737275    -0.515147464969    -0.272939078849
    O           -2.230291081532    -0.042764921022     0.528451277566
    C           -1.050334903366     0.708815953453     0.445406879035
    C            0.216124982772    -0.151587889549     0.464928845198
    H           -1.033190355489     1.311714388976    -0.454895359568
    H           -1.068218652282     1.377683398101     1.293442147644
    O            0.982069397236     0.130745008251    -0.666329945098
    H           -0.069156547795    -1.201134896160     0.477244077472
    H            0.801037174973     0.037373490718     1.362531829254
    C            2.180084424439    -0.569467590371    -0.735871802423
    H            2.012855313645    -1.644209199717    -0.757248248698
    H            2.682272934248    -0.277125848290    -1.646509714578
    H            2.825070664889    -0.339727753759     0.109296828649

  Mulliken Charges: (a.u.)
   Center  Symbol    Alpha    Beta     Spin     Total
       1     H     0.39264  0.39264  0.00000  0.21472
       2     O     4.20319  4.20319  0.00000 -0.40638
       3     C     2.97085  2.97085  0.00000  0.05830
       4     C     2.97638  2.97638  0.00000  0.04723
       5     H     0.46202  0.46202  0.00000  0.07595
       6     H     0.45687  0.45687  0.00000  0.08626
       7     O     4.17427  4.17427  0.00000 -0.34855
       8     H     0.47205  0.47205  0.00000  0.05591
       9     H     0.47409  0.47409  0.00000  0.05182
      10     C     3.02886  3.02886  0.00000 -0.05771
      11     H     0.47165  0.47165  0.00000  0.05670
      12     H     0.44641  0.44641  0.00000  0.10719
      13     H     0.47072  0.47072  0.00000  0.05856

   Total alpha = 21.00000, Total beta = 21.00000, Total charge =  0.00000
