  ==> Input File <==

--------------------------------------------------------------------------
set {
	reference rhf
	basis 6-31G*
}

set_num_threads( 1 )
memory 2 gb

molecule MOL {
0 1

O	 -2.821601	 1.309235	 -0.001213
C	 -2.668563	 0.129746	 -0.000350
C	 -3.801572	 -0.864014	 -0.000442
O	 -1.481751	 -0.454642	 0.000584
H	 -4.417280	 -0.689587	 -0.874708
H	 -3.443784	 -1.883046	 -0.000565
H	 -4.417179	 -0.689832	 0.873954
C	 -0.334255	 0.388708	 0.000906
C	 0.891947	 -0.504646	 0.000751
H	 -0.365390	 1.025305	 -0.873475
H	 -0.365484	 1.024911	 0.875569
C	 2.191998	 0.301789	 0.000897
H	 0.855148	 -1.151283	 -0.871571
H	 0.855132	 -1.151660	 0.872805
C	 3.441114	 -0.581407	 0.000108
H	 2.215074	 0.954890	 -0.869742
H	 2.215465	 0.953923	 0.872248
C	 4.668783	 0.123472	 0.575296
H	 3.652691	 -0.903491	 -1.017031
H	 3.242370	 -1.485234	 0.571656
H	 4.913408	 1.014202	 0.003656
H	 5.537428	 -0.527290	 0.561151
H	 4.500140	 0.427777	 1.604358

	symmetry c1
}
set optking {
	frozen_dihedral = ("
		13 9 8 10,
		2 4 8 10,
		16 12 9 13,
		1 2 4 8
	")
}

ee = energy('scf')
oeprop('DIPOLE', 'QUADRUPOLE', 'MULLIKEN_CHARGES')
f=open( 'psi4out.xyz', 'w' )
f.write( "23  " )
f.write( str(ee) + "\n" )
f.write( MOL.save_string_xyz() )
f.close()
--------------------------------------------------------------------------

    Molecular point group: c1

    Geometry (in Angstrom), charge = 0, multiplicity = 1:

       Center              X                  Y                   Z               Mass
    ------------   -----------------  -----------------  -----------------  -----------------
           O         -2.813427375095     1.320853820015    -0.067760283019    15.994914619560
           C         -2.660389375095     0.141364820015    -0.066897283019    12.000000000000
           C         -3.793398375095    -0.852395179985    -0.066989283019    12.000000000000
           O         -1.473577375095    -0.443023179985    -0.065963283019    15.994914619560
           H         -4.409106375095    -0.677968179985    -0.941255283019     1.007825032070
           H         -3.435610375095    -1.871427179985    -0.067112283019     1.007825032070
           H         -4.409005375095    -0.678213179985     0.807406716981     1.007825032070
           C         -0.326081375095     0.400326820015    -0.065641283019    12.000000000000
           C          0.900120624905    -0.493027179985    -0.065796283019    12.000000000000
           H         -0.357216375095     1.036923820015    -0.940022283019     1.007825032070
           H         -0.357310375095     1.036529820015     0.809021716981     1.007825032070
           C          2.200171624905     0.313407820015    -0.065650283019    12.000000000000
           H          0.863321624905    -1.139664179985    -0.938118283019     1.007825032070
           H          0.863305624905    -1.140041179985     0.806257716981     1.007825032070
           C          3.449287624905    -0.569788179985    -0.066439283019    12.000000000000
           H          2.223247624905     0.966508820015    -0.936289283019     1.007825032070
           H          2.223638624905     0.965541820015     0.805700716981     1.007825032070
           C          4.676956624905     0.135090820015     0.508748716981    12.000000000000
           H          3.660864624905    -0.891872179985    -1.083578283019     1.007825032070
           H          3.250543624905    -1.473615179985     0.505108716981     1.007825032070
           H          4.921581624905     1.025820820015    -0.062891283019     1.007825032070
           H          5.545601624905    -0.515671179985     0.494603716981     1.007825032070
           H          4.508313624905     0.439395820015     1.537810716981     1.007825032070

  Charge       = 0
  Multiplicity = 1
  Basis Set: 6-31G*
  Basis Set:

    Orbital Energies (a.u.)
    -----------------------

    Doubly Occupied:

       1A    -20.602952     2A    -20.540531     3A    -11.374062
       4A    -11.281333     5A    -11.232378     6A    -11.224458
       7A    -11.223384     8A    -11.221123     9A    -11.213061
      10A     -1.467941    11A     -1.360719    12A     -1.094274
      13A     -1.042186    14A     -1.003354    15A     -0.930830
      16A     -0.842119    17A     -0.802578    18A     -0.774304
      19A     -0.692025    20A     -0.685111    21A     -0.668193
      22A     -0.644980    23A     -0.606847    24A     -0.589365
      25A     -0.582439    26A     -0.568539    27A     -0.556243
      28A     -0.536565    29A     -0.524021    30A     -0.504638
      31A     -0.493889    32A     -0.476354    33A     -0.468983
      34A     -0.465312    35A     -0.451238    36A     -0.435271

  @DF-RHF Final Energy:  -422.97748987198571

   => Energetics <=

    Nuclear Repulsion Energy =            449.8908037384708791
    One-Electron Energy =               -1467.3734809319621490
    Two-Electron Energy =                 594.5051873215061278
    DFT Exchange-Correlation Energy =       0.0000000000000000
    Empirical Dispersion Energy =           0.0000000000000000
    PCM Polarization Energy =               0.0000000000000000
    EFP Energy =                            0.0000000000000000
    Total Energy =                       -422.9774898719851990

  Mulliken Charges: (a.u.)
   Center  Symbol    Alpha    Beta     Spin     Total
       1     O     4.28390  4.28390  0.00000 -0.56780
       2     C     2.61533  2.61533  0.00000  0.76935
       3     C     3.28774  3.28774  0.00000 -0.57548
       4     O     4.31271  4.31271  0.00000 -0.62542
       5     H     0.39750  0.39750  0.00000  0.20500
       6     H     0.39987  0.39987  0.00000  0.20026
       7     H     0.39751  0.39751  0.00000  0.20497
       8     C     2.99584  2.99584  0.00000  0.00832
       9     C     3.16579  3.16579  0.00000 -0.33158
      10     H     0.41069  0.41069  0.00000  0.17863
      11     H     0.41063  0.41063  0.00000  0.17875
      12     C     3.16107  3.16107  0.00000 -0.32214
      13     H     0.41412  0.41412  0.00000  0.17177
      14     H     0.41402  0.41402  0.00000  0.17195
      15     C     3.15218  3.15218  0.00000 -0.30435
      16     H     0.41936  0.41936  0.00000  0.16128
      17     H     0.42042  0.42042  0.00000  0.15916
      18     C     3.24034  3.24034  0.00000 -0.48067
      19     H     0.42000  0.42000  0.00000  0.15999
      20     H     0.42100  0.42100  0.00000  0.15800
      21     H     0.42071  0.42071  0.00000  0.15859
      22     H     0.41846  0.41846  0.00000  0.16308
      23     H     0.42082  0.42082  0.00000  0.15835

   Total alpha = 36.00000, Total beta = 36.00000, Total charge =  0.00000
