                              Psi4 1.0.54 Driver

  ==> Input File <==

--------------------------------------------------------------------------
set {
	reference rhf
	basis cc-pvtz
}

set_num_threads( 4 )
memory 2 gb

molecule MOL {
0 1

H	 1.679567	 -1.617991	 -1.004276
C	 0.786116	 -2.224380	 -0.805052
C	 -0.518931	 -1.481127	 -0.877352
O	 0.896031	 -3.374077	 -0.552565
C	 -0.554654	 -0.292621	 0.086567
H	 -1.321912	 -2.177475	 -0.674480
H	 -0.632585	 -1.121567	 -1.897978
C	 -1.846385	 0.513195	 -0.016346
H	 -0.435023	 -0.654387	 1.103795
H	 0.292134	 0.360072	 -0.109936
C	 -3.089953	 -0.365049	 -0.098564
H	 -1.798267	 1.154820	 -0.891143
H	 -1.925398	 1.173265	 0.842889
H	 -3.055079	 -1.012299	 -0.968245
H	 -3.988403	 0.236438	 -0.170014
H	 -3.183055	 -0.995885	 0.779079

	symmetry c1
}
set optking {
	frozen_dihedral = ("
		9 5 8 12
	")
}

ee,wfn = optimize('scf', return_wfn=True)
oeprop( wfn, 'DIPOLE', 'QUADRUPOLE', 'MULLIKEN_CHARGES')
f=open( 'psi4out.xyz', 'w' )
f.write( "16  " )
f.write( str(ee) + "\n" )
f.write( MOL.save_string_xyz() )
f.close()
--------------------------------------------------------------------------

    Molecular point group: c1
  Charge       = 0
  Multiplicity = 1
  Basis Set: CC-PVTZ
  Basis Set:
  @DF-RHF Final Energy:  -270.11451031291915
    Total Energy =                       -270.1145103129192080
    Molecular point group: c1
  Basis Set: CC-PVTZ
  Basis Set:
  Basis Set: CC-PVTZ
  Basis Set:
  @DF-RHF Final Energy:  -270.11507573443589
    Total Energy =                       -270.1150757344357771
  Basis Set: CC-PVTZ
  Basis Set:
  Basis Set: CC-PVTZ
  Basis Set:
  @DF-RHF Final Energy:  -270.11634337341911
    Total Energy =                       -270.1163433734188857
  Basis Set: CC-PVTZ
  Basis Set:
  Basis Set: CC-PVTZ
  Basis Set:
  @DF-RHF Final Energy:  -270.11623697606194
    Total Energy =                       -270.1162369760621118
  Basis Set: CC-PVTZ
  Basis Set:
  Basis Set: CC-PVTZ
  Basis Set:
  @DF-RHF Final Energy:  -270.11638769613103
    Total Energy =                       -270.1163876961310848
  Basis Set: CC-PVTZ
  Basis Set:
  Basis Set: CC-PVTZ
  Basis Set:
  @DF-RHF Final Energy:  -270.11645402385460
    Total Energy =                       -270.1164540238544305
  Basis Set: CC-PVTZ
  Basis Set:
  Basis Set: CC-PVTZ
  Basis Set:
  @DF-RHF Final Energy:  -270.11645682732467
    Total Energy =                       -270.1164568273247255
  Basis Set: CC-PVTZ
  Basis Set:
  Charge       = 0
  Multiplicity = 1
  Basis Set: CC-PVTZ
  Basis Set:

    Orbital Energies (a.u.)
    -----------------------

    Doubly Occupied:

       1A    -20.552179     2A    -11.321282     3A    -11.234834
       4A    -11.233742     5A    -11.227765     6A    -11.216425
       7A     -1.406963     8A     -1.097028     9A     -1.016393
      10A     -0.915603    11A     -0.811195    12A     -0.788252
      13A     -0.681828    14A     -0.647077    15A     -0.633416
      16A     -0.602442    17A     -0.581062    18A     -0.558117
      19A     -0.539963    20A     -0.509612    21A     -0.487959
      22A     -0.479168    23A     -0.472569    24A     -0.412328

  @DF-RHF Final Energy:  -270.11645731483361

   => Energetics <=

    Nuclear Repulsion Energy =            232.5946151536690252
    One-Electron Energy =                -826.5677412974566778
    Two-Electron Energy =                 323.8566688289540707
    DFT Exchange-Correlation Energy =       0.0000000000000000
    Empirical Dispersion Energy =           0.0000000000000000
    PCM Polarization Energy =               0.0000000000000000
    EFP Energy =                            0.0000000000000000
    Total Energy =                       -270.1164573148336103
    Molecular point group: c1
  Basis Set: CC-PVTZ
  Basis Set:

  -Total Gradient:
     Atom            X                  Y                   Z
    ------   -----------------  -----------------  -----------------
       1        0.000011485060     0.000014244527     0.000005689452
       2       -0.000002678993     0.000006767834     0.000004902314
       3        0.000006681062     0.000043508066     0.000041532443
       4       -0.000001222262    -0.000028460331    -0.000013294943
       5       -0.002153067087    -0.003346532215    -0.000674392460
       6       -0.000016402110    -0.000006284463    -0.000000694738
       7        0.000006532519    -0.000009705033    -0.000017317063
       8       -0.001521135803    -0.002703559723    -0.002502824611
       9        0.002056459905     0.003206895764     0.000960215145
      10       -0.000006095325     0.000008744828    -0.000008118680
      11        0.000009783138     0.000006619073     0.000019484135
      12        0.001622971849     0.002807981802     0.002189269138
      13        0.000001675317    -0.000002399724     0.000009444557
      14        0.000001459488    -0.000011911516    -0.000017400061
      15       -0.000015497065     0.000010344969    -0.000001236500
      16       -0.000000949694     0.000003746146     0.000004741874

  **** Optimization is complete! (in 8 steps) ****
    Final optimized geometry and variables:
    Molecular point group: c1

    Geometry (in Angstrom), charge = 0, multiplicity = 1:

    H            2.424434737783    -0.314511530434    -0.630624519257
    C            1.571422394135    -0.976518923862    -0.431340969954
    C            0.220815799850    -0.318935619852    -0.505979291812
    O            1.753999133297    -2.116367070608    -0.176628696703
    C            0.114832560696     0.853328135229     0.472438624036
    H           -0.531720854114    -1.071848864247    -0.321396689817
    H            0.093891844026     0.047500949305    -1.523177453942
    C           -1.152286100401     1.702512773433     0.331506444853
    H            0.201335916905     0.494583668001     1.493861779728
    H            0.970491287091     1.507837080931     0.326663116815
    C           -2.463290169079     0.924350077038     0.297553498050
    H           -1.064002753633     2.335961270305    -0.546580920036
    H           -1.177801448587     2.388699076604     1.172651071619
    H           -2.544964975465     0.302687140899    -0.585773174883
    H           -3.307521387427     1.603524115992     0.296844196860
    H           -2.558498987945     0.280565779184     1.165915232598

  Mulliken Charges: (a.u.)
   Center  Symbol    Alpha    Beta     Spin     Total
       1     H     0.46409  0.46409  0.00000  0.07181
       2     C     2.91178  2.91178  0.00000  0.17644
       3     C     3.08143  3.08143  0.00000 -0.16286
       4     O     4.16309  4.16309  0.00000 -0.32617
       5     C     3.10863  3.10863  0.00000 -0.21725
       6     H     0.44083  0.44083  0.00000  0.11833
       7     H     0.44855  0.44855  0.00000  0.10289
       8     C     3.09049  3.09049  0.00000 -0.18099
       9     H     0.44326  0.44326  0.00000  0.11348
      10     H     0.44823  0.44823  0.00000  0.10353
      11     C     3.15404  3.15404  0.00000 -0.30807
      12     H     0.45151  0.45151  0.00000  0.09698
      13     H     0.44756  0.44756  0.00000  0.10488
      14     H     0.45158  0.45158  0.00000  0.09685
      15     H     0.44386  0.44386  0.00000  0.11228
      16     H     0.45106  0.45106  0.00000  0.09788

   Total alpha = 24.00000, Total beta = 24.00000, Total charge =  0.00000

*** Psi4 exiting successfully. Buy a developer a beer!
