                              Psi4 1.0.54 Driver

  ==> Input File <==

--------------------------------------------------------------------------
set {
	reference rhf
	basis cc-pvtz
}

set_num_threads( 4 )
memory 2 gb

molecule MOL {
0 1

H	 -3.941973	 0.934228	 -0.390224
C	 -3.240162	 0.342701	 0.161016
C	 -2.105997	 -0.000418	 -0.398703
H	 -3.485368	 0.047206	 1.162193
O	 -1.372156	 -1.048119	 0.041325
H	 -1.702470	 0.524130	 -1.245545
C	 -0.135808	 -1.280283	 -0.533708
C	 0.974882	 -0.558659	 0.201588
H	 -0.099720	 -0.975953	 -1.572868
H	 0.068804	 -2.338552	 -0.473364
F	 2.131254	 -0.840260	 -0.364615
F	 0.820004	 0.747558	 0.165302
F	 1.045733	 -0.916075	 1.460831

	symmetry c1
}
set optking {
	frozen_dihedral = ("
		6 3 2 1
	")
}

ee,wfn = optimize('scf', return_wfn=True)
oeprop( wfn, 'DIPOLE', 'QUADRUPOLE', 'MULLIKEN_CHARGES')
f=open( 'psi4out.xyz', 'w' )
f.write( "13  " )
f.write( str(ee) + "\n" )
f.write( MOL.save_string_xyz() )
f.close()
--------------------------------------------------------------------------

    Molecular point group: c1
  Charge       = 0
  Multiplicity = 1
  Basis Set: CC-PVTZ
  Basis Set:
  @DF-RHF Final Energy:  -527.73372296202695
    Total Energy =                       -527.7337229620268317
    Molecular point group: c1
  Basis Set: CC-PVTZ
  Basis Set:
  Basis Set: CC-PVTZ
  Basis Set:
  @DF-RHF Final Energy:  -527.73883683380109
    Total Energy =                       -527.7388368338008604
  Basis Set: CC-PVTZ
  Basis Set:
  Basis Set: CC-PVTZ
  Basis Set:
  @DF-RHF Final Energy:  -527.73907238317815
    Total Energy =                       -527.7390723831781543
  Basis Set: CC-PVTZ
  Basis Set:
  Basis Set: CC-PVTZ
  Basis Set:
  @DF-RHF Final Energy:  -527.73921712345418
    Total Energy =                       -527.7392171234540683
  Basis Set: CC-PVTZ
  Basis Set:
  Basis Set: CC-PVTZ
  Basis Set:
  @DF-RHF Final Energy:  -527.73921933360032
    Total Energy =                       -527.7392193336006585
  Basis Set: CC-PVTZ
  Basis Set:
  Charge       = 0
  Multiplicity = 1
  Basis Set: CC-PVTZ
  Basis Set:

    Orbital Energies (a.u.)
    -----------------------

    Doubly Occupied:

       1A    -26.341754     2A    -26.340463     3A    -26.338025
       4A    -20.604282     5A    -11.497798     6A    -11.320011
       7A    -11.299464     8A    -11.214234     9A     -1.750423
      10A     -1.646886    11A     -1.645361    12A     -1.444740
      13A     -1.088107    14A     -1.020612    15A     -0.932162
      16A     -0.844061    17A     -0.839557    18A     -0.827163
      19A     -0.798572    20A     -0.728454    21A     -0.719160
      22A     -0.703182    23A     -0.681461    24A     -0.668327
      25A     -0.661477    26A     -0.650874    27A     -0.642664
      28A     -0.586529    29A     -0.566534    30A     -0.527124
      31A     -0.518307    32A     -0.356541

  @DF-RHF Final Energy:  -527.73921987110566

   => Energetics <=

    Nuclear Repulsion Energy =            414.1086379617939883
    One-Electron Energy =               -1552.0870957888200792
    Two-Electron Energy =                 610.2392379559206574
    DFT Exchange-Correlation Energy =       0.0000000000000000
    Empirical Dispersion Energy =           0.0000000000000000
    PCM Polarization Energy =               0.0000000000000000
    EFP Energy =                            0.0000000000000000
    Total Energy =                       -527.7392198711053197
    Molecular point group: c1
  Basis Set: CC-PVTZ
  Basis Set:

  -Total Gradient:
     Atom            X                  Y                   Z
    ------   -----------------  -----------------  -----------------
       1       -0.005226081440    -0.007238050352    -0.003336259274
       2        0.009909588360     0.012364193153     0.007395045225
       3       -0.010611048635    -0.010386851913    -0.009889687639
       4        0.000043814160     0.000070203819    -0.000150926051
       5        0.000061521928     0.000028372402     0.000073772419
       6        0.005832654417     0.005183615353     0.005935722615
       7       -0.000024186470    -0.000015759923    -0.000029081942
       8        0.000010896996    -0.000012074777     0.000011351472
       9        0.000005581058     0.000001457561     0.000002079343
      10       -0.000001030204     0.000000430508    -0.000002778719
      11       -0.000002013729     0.000001717422    -0.000001113568
      12        0.000007639152     0.000004566594    -0.000002834429
      13       -0.000007335590    -0.000001819847    -0.000005289450

  **** Optimization is complete! (in 6 steps) ****
    Final optimized geometry and variables:
    Molecular point group: c1

    Geometry (in Angstrom), charge = 0, multiplicity = 1:

    H           -3.736799508505     1.564658119853    -0.414896235809
    C           -3.084584521228     0.868174614548     0.071750597192
    C           -2.035274029800     0.404965838597    -0.565180353504
    H           -3.417075640939     0.417591528778     0.986711202974
    O           -1.306266579410    -0.629059328751    -0.085049837241
    H           -1.612136850402     0.903429945949    -1.418836872212
    C           -0.061330569356    -0.875819481853    -0.634871214282
    C            1.037653067628    -0.120354638307     0.083938861261
    H           -0.014780919797    -0.611275581572    -1.684639170420
    H            0.147578506596    -1.929791611863    -0.530878734182
    F            2.202290787848    -0.423039439314    -0.453753000495
    F            0.880835368181     1.182659321805    -0.010778969756
    F            1.091794425382    -0.423231335591     1.358249946378

  Mulliken Charges: (a.u.)
   Center  Symbol    Alpha    Beta     Spin     Total
       1     H     0.42632  0.42632  0.00000  0.14737
       2     C     3.19231  3.19231  0.00000 -0.38463
       3     C     2.96055  2.96055  0.00000  0.07889
       4     H     0.42608  0.42608  0.00000  0.14783
       5     O     4.14443  4.14443  0.00000 -0.28887
       6     H     0.43493  0.43493  0.00000  0.13014
       7     C     3.01942  3.01942  0.00000 -0.03883
       8     C     2.67499  2.67499  0.00000  0.65003
       9     H     0.45546  0.45546  0.00000  0.08908
      10     H     0.43568  0.43568  0.00000  0.12864
      11     F     4.61256  4.61256  0.00000 -0.22512
      12     F     4.61042  4.61042  0.00000 -0.22085
      13     F     4.60684  4.60684  0.00000 -0.21368

   Total alpha = 32.00000, Total beta = 32.00000, Total charge = -0.00000

*** Psi4 exiting successfully. Buy a developer a beer!
