  ==> Input File <==

--------------------------------------------------------------------------
set {
	reference rhf
	basis 6-31G*
}

set_num_threads( 4 )
memory 2 gb

molecule MOL {
0 1

H	 -2.637986	 0.716754	 0.207116
O	 -2.315789	 -0.143634	 -0.024262
C	 -0.945151	 -0.064130	 -0.333158
H	 -0.813375	 -0.223047	 -1.403232
C	 -0.232801	 -1.184051	 0.407206
C	 -0.355424	 1.302939	 0.054523
H	 -0.318824	 -0.992899	 1.473524
H	 -0.742411	 -2.122033	 0.217954
C	 1.248522	 -1.270719	 -0.013048
H	 -0.546144	 2.018388	 -0.742941
H	 -0.890929	 1.656788	 0.930149
C	 1.156425	 1.235120	 0.355905
H	 1.825384	 -1.683246	 0.809111
H	 1.357782	 -1.965923	 -0.840362
C	 1.828244	 0.099899	 -0.419275
H	 1.626109	 2.185622	 0.123525
H	 1.309438	 1.071213	 1.419539
H	 2.901447	 0.112642	 -0.255830
H	 1.681817	 0.263413	 -1.484607

	symmetry c1
}
set optking {
	frozen_dihedral = ("
		1 2 3 4
	")
}

ee = optimize('scf')
oeprop('DIPOLE', 'QUADRUPOLE', 'MULLIKEN_CHARGES')
f=open( 'psi4out.xyz', 'w' )
f.write( "19  " )
f.write( str(ee) + "\n" )
f.write( MOL.save_string_xyz() )
f.close()
--------------------------------------------------------------------------

    Molecular point group: c1
  Charge       = 0
  Multiplicity = 1
  Basis Set: 6-31G*
  Basis Set:
  @DF-RHF Final Energy:  -309.04609229697644
    Total Energy =                       -309.0460922969764965
    Molecular point group: c1
  Basis Set: 6-31G*
  Basis Set:
  Basis Set: 6-31G*
  Basis Set:
  @DF-RHF Final Energy:  -309.04635121082322
    Total Energy =                       -309.0463512108233317
  Basis Set: 6-31G*
  Basis Set:
  Basis Set: 6-31G*
  Basis Set:
  @DF-RHF Final Energy:  -309.04643143666749
    Total Energy =                       -309.0464314366671488
  Basis Set: 6-31G*
  Basis Set:
  Basis Set: 6-31G*
  Basis Set:
  @DF-RHF Final Energy:  -309.04643321719686
    Total Energy =                       -309.0464332171968636
  Basis Set: 6-31G*
  Basis Set:
  Charge       = 0
  Multiplicity = 1
  Basis Set: 6-31G*
  Basis Set:

    Orbital Energies (a.u.)
    -----------------------

    Doubly Occupied:

       1A    -20.547543     2A    -11.268628     3A    -11.222124
       4A    -11.221139     5A    -11.217568     6A    -11.215545
       7A    -11.207428     8A     -1.356931     9A     -1.110559
      10A     -1.004810    11A     -0.989137    12A     -0.846776
      13A     -0.839612    14A     -0.742970    15A     -0.677166
      16A     -0.668679    17A     -0.622655    18A     -0.600807
      19A     -0.581628    20A     -0.549959    21A     -0.528364
      22A     -0.521395    23A     -0.502268    24A     -0.484966
      25A     -0.468292    26A     -0.449978    27A     -0.427061
      28A     -0.411221

  @DF-RHF Final Energy:  -309.04643348513088

   => Energetics <=

    Nuclear Repulsion Energy =            331.3910266128493163
    One-Electron Energy =               -1076.3045014576673566
    Two-Electron Energy =                 435.8670413596872777
    DFT Exchange-Correlation Energy =       0.0000000000000000
    Empirical Dispersion Energy =           0.0000000000000000
    PCM Polarization Energy =               0.0000000000000000
    EFP Energy =                            0.0000000000000000
    Total Energy =                       -309.0464334851307058
    Molecular point group: c1
  Basis Set: 6-31G*
  Basis Set:

  -Total Gradient:
     Atom            X                  Y                   Z
    ------   -----------------  -----------------  -----------------
       1        0.000266258002    -0.000238799041     0.001338190920
       2       -0.000294198926     0.000016919608    -0.001601311321
       3       -0.000065447220     0.001369626809     0.000099726707
       4        0.000111020019    -0.001167079968     0.000184389636
       5       -0.000016954452     0.000007209088    -0.000017342234
       6        0.000002582621    -0.000009610504    -0.000001694825
       7       -0.000000213106    -0.000002170424    -0.000003128399
       8        0.000005930980    -0.000004153814     0.000000945512
       9       -0.000008787242    -0.000004148497     0.000020106479
      10        0.000005503770     0.000008121565    -0.000003749623
      11        0.000003992171     0.000009838431    -0.000001880124
      12       -0.000000052968     0.000004979548    -0.000001141294
      13        0.000007848095    -0.000006729448    -0.000001850156
      14       -0.000005465549     0.000001083069    -0.000001535659
      15       -0.000004573748     0.000015786469    -0.000016844108
      16       -0.000002513920     0.000007590906     0.000007455170
      17       -0.000003307145    -0.000000793534     0.000002484286
      18       -0.000007804388    -0.000006331512     0.000002944842
      19        0.000006183014    -0.000001338752    -0.000005765808

  **** Optimization is complete! (in 5 steps) ****
    Final optimized geometry and variables:
    Molecular point group: c1

    Geometry (in Angstrom), charge = 0, multiplicity = 1:

    H           -2.670289478512     0.711145633580     0.151111103457
    O           -2.327727052923    -0.141377737643    -0.072280746494
    C           -0.943728033699    -0.063639540600    -0.327225385063
    H           -0.798517546692    -0.221109229121    -1.393690252680
    C           -0.230202148375    -1.185197670848     0.414196486907
    C           -0.356003819603     1.299871692905     0.067316848429
    H           -0.311297943242    -0.995431967372     1.481730149601
    H           -0.742868745304    -2.122201069411     0.227430886288
    C            1.248867164006    -1.274852566611    -0.013844335505
    H           -0.564971150991     2.022733505200    -0.717291879313
    H           -0.868975796381     1.648189695934     0.961724701053
    C            1.160158428363     1.232516614974     0.349065067695
    H            1.832092449447    -1.683804560669     0.805679359264
    H            1.353529137361    -1.972157665613    -0.839817987103
    C            1.824686840771     0.095023087537    -0.429184195986
    H            1.625058804218     2.182889908394     0.107431333996
    H            1.326138663463     1.072423485902     1.411139286748
    H            2.898878398717     0.110173303910    -0.273081511121
    H            1.670514145610     0.255920722289    -1.493490616410

  Mulliken Charges: (a.u.)
   Center  Symbol    Alpha    Beta     Spin     Total
       1     H     0.27989  0.27989  0.00000  0.44022
       2     O     4.38617  4.38617  0.00000 -0.77235
       3     C     2.89283  2.89283  0.00000  0.21435
       4     H     0.42562  0.42562  0.00000  0.14877
       5     C     3.16769  3.16769  0.00000 -0.33537
       6     C     3.18616  3.18616  0.00000 -0.37232
       7     H     0.42099  0.42099  0.00000  0.15803
       8     H     0.40876  0.40876  0.00000  0.18247
       9     C     3.16158  3.16158  0.00000 -0.32317
      10     H     0.41614  0.41614  0.00000  0.16773
      11     H     0.42135  0.42135  0.00000  0.15729
      12     C     3.16216  3.16216  0.00000 -0.32431
      13     H     0.41804  0.41804  0.00000  0.16393
      14     H     0.41768  0.41768  0.00000  0.16465
      15     C     3.16454  3.16454  0.00000 -0.32907
      16     H     0.41573  0.41573  0.00000  0.16854
      17     H     0.41818  0.41818  0.00000  0.16364
      18     H     0.41609  0.41609  0.00000  0.16782
      19     H     0.42041  0.42041  0.00000  0.15918

   Total alpha = 28.00000, Total beta = 28.00000, Total charge = -0.00000
