  ==> Input File <==

--------------------------------------------------------------------------
set {
	reference rhf
	basis 6-31G*
}

set_num_threads( 4 )
memory 2 gb

molecule MOL {
0 1

H	 2.591676	 2.013956	 0.335017
O	 3.341076	 1.666752	 -0.126416
C	 3.569581	 0.339145	 0.272707
C	 2.539767	 -0.640285	 -0.279495
H	 4.553106	 0.084646	 -0.100901
H	 3.608576	 0.269204	 1.359154
C	 1.115811	 -0.397273	 0.226630
H	 2.556196	 -0.582511	 -1.364741
H	 2.852081	 -1.648031	 -0.010655
C	 0.115918	 -1.429151	 -0.302766
H	 0.797950	 0.599468	 -0.066350
H	 1.109961	 -0.420744	 1.316472
C	 0.702803	 -2.449446	 -1.285062
H	 -0.333627	 -1.955704	 0.537173
H	 -0.696032	 -0.901473	 -0.798743
C	 1.730289	 -3.409722	 -0.679570
H	 -0.115597	 -3.034097	 -1.700058
H	 1.152905	 -1.922108	 -2.124800
C	 2.207574	 -4.474023	 -1.669973
H	 1.294961	 -3.899417	 0.190373
H	 2.592712	 -2.855345	 -0.317362
C	 3.238065	 -5.429954	 -1.070017
H	 1.351941	 -5.043624	 -2.026252
H	 2.634056	 -3.986498	 -2.544226
H	 2.830571	 -5.957712	 -0.212320
H	 3.554946	 -6.173059	 -1.795287
H	 4.123003	 -4.894655	 -0.737296

	symmetry c1
}
set optking {
	frozen_dihedral = ("
		14 10 7 4
	")
}

ee = optimize('scf')
oeprop('DIPOLE', 'QUADRUPOLE', 'MULLIKEN_CHARGES')
f=open( 'psi4out.xyz', 'w' )
f.write( "27  " )
f.write( str(ee) + "\n" )
f.write( MOL.save_string_xyz() )
f.close()
--------------------------------------------------------------------------

    Molecular point group: c1
  Charge       = 0
  Multiplicity = 1
  Basis Set: 6-31G*
  Basis Set:
  @DF-RHF Final Energy:  -388.24185252570908
    Total Energy =                       -388.2418525257093052
    Molecular point group: c1
  Basis Set: 6-31G*
  Basis Set:
  Basis Set: 6-31G*
  Basis Set:
  @DF-RHF Final Energy:  -388.26268160106918
    Total Energy =                       -388.2626816010698576
  Basis Set: 6-31G*
  Basis Set:
  Basis Set: 6-31G*
  Basis Set:
  @DF-RHF Final Energy:  -388.26735731141810
    Total Energy =                       -388.2673573114182091
  Basis Set: 6-31G*
  Basis Set:
  Basis Set: 6-31G*
  Basis Set:
  @DF-RHF Final Energy:  -388.26844082121346
    Total Energy =                       -388.2684408212135168
  Basis Set: 6-31G*
  Basis Set:
  @DF-RHF Final Energy:  -388.26923224093491
    Total Energy =                       -388.2692322409346843
  @DF-RHF Final Energy:  -388.26932276594414
    Total Energy =                       -388.2693227659433433
  @DF-RHF Final Energy:  -388.26947373061006
    Total Energy =                       -388.2694737306107982
  Basis Set: 6-31G*
  Basis Set:
  @DF-RHF Final Energy:  -388.26951230044415
    Total Energy =                       -388.2695123004444895
  Basis Set: 6-31G*
  Basis Set:
  Basis Set: 6-31G*
  Basis Set:
  @DF-RHF Final Energy:  -388.26952027568342
    Total Energy =                       -388.2695202756829076
  Basis Set: 6-31G*
  Basis Set:
  Basis Set: 6-31G*
  Basis Set:
  @DF-RHF Final Energy:  -388.26952146674785
    Total Energy =                       -388.2695214667478467
  Basis Set: 6-31G*
  Basis Set:
  Charge       = 0
  Multiplicity = 1
  Basis Set: 6-31G*
  Basis Set:

    Orbital Energies (a.u.)
    -----------------------

    Doubly Occupied:

       1A    -20.552467     2A    -11.267335     3A    -11.221021
       4A    -11.217871     5A    -11.215225     6A    -11.214843
       7A    -11.214531     8A    -11.213355     9A    -11.209014
      10A     -1.359252    11A     -1.091393    12A     -1.058323
      13A     -1.009062    14A     -0.950575    15A     -0.886975
      16A     -0.833475    17A     -0.796093    18A     -0.766178
      19A     -0.695754    20A     -0.652039    21A     -0.636354
      22A     -0.614087    23A     -0.601309    24A     -0.585686
      25A     -0.568359    26A     -0.553598    27A     -0.550130
      28A     -0.520947    29A     -0.515683    30A     -0.494576
      31A     -0.482915    32A     -0.476110    33A     -0.467421
      34A     -0.454860    35A     -0.447558    36A     -0.435071
      37A     -0.424764

  @DF-RHF Final Energy:  -388.26952171778538

   => Energetics <=

    Nuclear Repulsion Energy =            467.2474994517621667
    One-Electron Energy =               -1452.5256231009566363
    Two-Electron Energy =                 597.0086019314089754
    DFT Exchange-Correlation Energy =       0.0000000000000000
    Empirical Dispersion Energy =           0.0000000000000000
    PCM Polarization Energy =               0.0000000000000000
    EFP Energy =                            0.0000000000000000
    Total Energy =                       -388.2695217177854374
    Molecular point group: c1
  Basis Set: 6-31G*
  Basis Set:

  -Total Gradient:
     Atom            X                  Y                   Z
    ------   -----------------  -----------------  -----------------
       1        0.000005053500     0.000004681849    -0.000001672383
       2        0.000025797974     0.000005963338     0.000006196214
       3       -0.000022360532    -0.000021626447     0.000004362518
       4        0.000275047268    -0.000481450256     0.000627899779
       5       -0.000007159067     0.000012980255     0.000000580506
       6        0.000002111629     0.000004813314     0.000001435880
       7       -0.000161754376     0.000513664924    -0.000939747895
       8        0.000010327302     0.000000211939    -0.000007599731
       9       -0.000021936498     0.000044613988    -0.000001748814
      10       -0.000960207010     0.000574152803     0.000442479977
      11       -0.000018807388    -0.000015442546    -0.000019071967
      12        0.000000226710     0.000014621061    -0.000007253165
      13       -0.000011448635     0.000002890913     0.000005388408
      14        0.000869064074    -0.000681674775    -0.000111090720
      15        0.000003805564     0.000000416147    -0.000014984249
      16        0.000045154818     0.000033116930     0.000047125795
      17       -0.000014051311     0.000019656256     0.000007491648
      18        0.000010088752     0.000005561375    -0.000000418457
      19        0.000001631851    -0.000002856793    -0.000008279255
      20        0.000014522837     0.000005135985    -0.000001536089
      21       -0.000029371290    -0.000025998110    -0.000028501555
      22       -0.000017423669    -0.000010073930    -0.000003507415
      23        0.000005439997    -0.000000447705    -0.000004894239
      24        0.000001213982     0.000001604744     0.000006808941
      25        0.000001308835    -0.000005228137     0.000003641140
      26       -0.000001662230    -0.000003505027     0.000002418046
      27       -0.000004613090     0.000004217898    -0.000005522922

  **** Optimization is complete! (in 11 steps) ****
    Final optimized geometry and variables:
    Molecular point group: c1

    Geometry (in Angstrom), charge = 0, multiplicity = 1:

    H            0.145222391912     4.006113516688     0.946752413278
    O            0.935225110726     3.819735447867     0.460932874335
    C            1.426809937996     2.553931818790     0.821286075028
    C            0.614574983848     1.400335360386     0.239361782935
    H            2.438946171645     2.512632879588     0.439604045430
    H            1.486370183018     2.462468647600     1.905172255337
    C           -0.821530091025     1.357269165347     0.774104453210
    H            0.614417123734     1.502366129403    -0.841164363594
    H            1.137930220118     0.478813006981     0.474444204837
    C           -1.754313297297     0.201567157158     0.302550483432
    H           -1.298997448712     2.296834457271     0.511615713824
    H           -0.774375107991     1.342416877598     1.861101550330
    C           -1.222958781089    -0.803576540484    -0.735725199049
    H           -2.074026726476    -0.366269003837     1.172056560038
    H           -2.656433372806     0.650018561816    -0.100947992392
    C           -0.410606841294    -1.961221757169    -0.145896651667
    H           -2.079740172943    -1.230638447192    -1.252166818660
    H           -0.643261019037    -0.295171892321    -1.500314526492
    C            0.115885264533    -2.926308125574    -1.209814069984
    H           -1.040203646794    -2.509036978290     0.553657562042
    H            0.425651092925    -1.584203449967     0.436477448407
    C            0.890509291550    -4.103855560473    -0.618886814379
    H           -0.718065413706    -3.302609112001    -1.798665838467
    H            0.756724954445    -2.384021952143    -1.901832437426
    H            0.265497770803    -4.687928905818     0.050811372747
    H            1.251412150499    -4.768499920333    -1.397733812851
    H            1.751553506717    -3.761902493192    -0.051356279277

  Mulliken Charges: (a.u.)
   Center  Symbol    Alpha    Beta     Spin     Total
       1     H     0.27965  0.27965  0.00000  0.44069
       2     O     4.37113  4.37113  0.00000 -0.74225
       3     C     2.99700  2.99700  0.00000  0.00600
       4     C     3.16522  3.16522  0.00000 -0.33043
       5     H     0.41440  0.41440  0.00000  0.17121
       6     H     0.43205  0.43205  0.00000  0.13589
       7     C     3.16513  3.16513  0.00000 -0.33026
       8     H     0.41388  0.41388  0.00000  0.17223
       9     H     0.42174  0.42174  0.00000  0.15652
      10     C     3.15810  3.15810  0.00000 -0.31620
      11     H     0.42319  0.42319  0.00000  0.15363
      12     H     0.42316  0.42316  0.00000  0.15367
      13     C     3.15706  3.15706  0.00000 -0.31412
      14     H     0.42043  0.42043  0.00000  0.15913
      15     H     0.41803  0.41803  0.00000  0.16393
      16     C     3.15227  3.15227  0.00000 -0.30455
      17     H     0.42075  0.42075  0.00000  0.15850
      18     H     0.41959  0.41959  0.00000  0.16082
      19     C     3.15192  3.15192  0.00000 -0.30384
      20     H     0.42423  0.42423  0.00000  0.15154
      21     H     0.42298  0.42298  0.00000  0.15404
      22     C     3.23917  3.23917  0.00000 -0.47835
      23     H     0.42292  0.42292  0.00000  0.15416
      24     H     0.42268  0.42268  0.00000  0.15463
      25     H     0.42186  0.42186  0.00000  0.15628
      26     H     0.41915  0.41915  0.00000  0.16170
      27     H     0.42229  0.42229  0.00000  0.15542

   Total alpha = 37.00000, Total beta = 37.00000, Total charge =  0.00000
