  ==> Input File <==

--------------------------------------------------------------------------
set {
	reference rhf
	basis 6-31G*
}

set_num_threads( 4 )
memory 2 gb

molecule MOL {
0 1

O	 2.425290	 0.097028	 -1.747448
C	 2.236558	 -0.447032	 -0.707525
C	 1.245376	 -0.013843	 0.345420
O	 2.893013	 -1.536678	 -0.328882
C	 0.455112	 1.231400	 -0.050772
H	 0.597367	 -0.861890	 0.540591
H	 1.802022	 0.152046	 1.264290
C	 -0.998893	 1.219485	 0.433193
H	 0.482531	 1.345121	 -1.130325
H	 0.957290	 2.103070	 0.354729
C	 -1.883438	 0.145884	 -0.207175
H	 -1.431207	 2.195402	 0.224832
H	 -1.019646	 1.105716	 1.516076
C	 -3.347647	 0.245583	 0.225435
H	 -1.822183	 0.231698	 -1.291012
H	 -1.510341	 -0.844814	 0.042401
C	 -4.239992	 -0.825570	 -0.404234
H	 -3.732888	 1.230466	 -0.033079
H	 -3.408585	 0.170602	 1.310038
C	 -5.701275	 -0.716658	 0.029921
H	 -4.179496	 -0.752714	 -1.488058
H	 -3.859041	 -1.810759	 -0.143352
H	 -6.308102	 -1.488908	 -0.432678
H	 -6.122175	 0.245478	 -0.248167
H	 -5.799072	 -0.820114	 1.106957
C	 3.858711	 -2.050038	 -1.228201
H	 3.397007	 -2.324441	 -2.165771
H	 4.275794	 -2.921330	 -0.747683
H	 4.632043	 -1.318584	 -1.413862

	symmetry c1
}
set optking {
	frozen_dihedral = ("
		6 3 5 9
	")
}

ee = optimize('scf')
oeprop('DIPOLE', 'QUADRUPOLE', 'MULLIKEN_CHARGES')
f=open( 'psi4out.xyz', 'w' )
f.write( "29  " )
f.write( str(ee) + "\n" )
f.write( MOL.save_string_xyz() )
f.close()
--------------------------------------------------------------------------

    Molecular point group: c1
  Charge       = 0
  Multiplicity = 1
  Basis Set: 6-31G*
  Basis Set:
  @DF-RHF Final Energy:  -501.04044166394920
    Total Energy =                       -501.0404416639494229
    Molecular point group: c1
  Basis Set: 6-31G*
  Basis Set:
  Basis Set: 6-31G*
  Basis Set:
  @DF-RHF Final Energy:  -501.04071412771520
    Total Energy =                       -501.0407141277157734
  Basis Set: 6-31G*
  Basis Set:
  Basis Set: 6-31G*
  Basis Set:
  @DF-RHF Final Energy:  -501.04099049400270
    Total Energy =                       -501.0409904940026991
  Basis Set: 6-31G*
  Basis Set:
  Basis Set: 6-31G*
  Basis Set:
  @DF-RHF Final Energy:  -501.04081749252953
    Total Energy =                       -501.0408174925294134
  Basis Set: 6-31G*
  Basis Set:
  @DF-RHF Final Energy:  -501.04099230228610
    Total Energy =                       -501.0409923022855310
  Basis Set: 6-31G*
  Basis Set:
  @DF-RHF Final Energy:  -501.04103173743829
    Total Energy =                       -501.0410317374382885
  Basis Set: 6-31G*
  Basis Set:
  Basis Set: 6-31G*
  Basis Set:
  @DF-RHF Final Energy:  -501.04103226426332
    Total Energy =                       -501.0410322642628671
  Basis Set: 6-31G*
  Basis Set:
  Basis Set: 6-31G*
  Basis Set:
  @DF-RHF Final Energy:  -501.04103755440531
    Total Energy =                       -501.0410375544053068
  Basis Set: 6-31G*
  Basis Set:
  Charge       = 0
  Multiplicity = 1
  Basis Set: 6-31G*
  Basis Set:

    Orbital Energies (a.u.)
    -----------------------

    Doubly Occupied:

       1A    -20.603563     2A    -20.545714     3A    -11.372726
       4A    -11.280783     5A    -11.234558     6A    -11.218012
       7A    -11.217354     8A    -11.215013     9A    -11.214730
      10A    -11.213630    11A    -11.208408    12A     -1.469448
      13A     -1.362825    14A     -1.096681    15A     -1.065536
      16A     -1.019253    17A     -0.976785    18A     -0.928072
      19A     -0.861095    20A     -0.799327    21A     -0.789426
      22A     -0.764667    23A     -0.702146    24A     -0.681693
      25A     -0.672772    26A     -0.649182    27A     -0.626084
      28A     -0.605662    29A     -0.594759    30A     -0.580187
      31A     -0.566282    32A     -0.546928    33A     -0.535832
      34A     -0.529640    35A     -0.516410    36A     -0.504854
      37A     -0.495135    38A     -0.477382    39A     -0.469346
      40A     -0.461237    41A     -0.459762    42A     -0.456918
      43A     -0.440610    44A     -0.434771

  @DF-RHF Final Energy:  -501.04103762977672

   => Energetics <=

    Nuclear Repulsion Energy =            614.4041821556671721
    One-Electron Energy =               -1899.9600448396615775
    Two-Electron Energy =                 784.5148250542176811
    DFT Exchange-Correlation Energy =       0.0000000000000000
    Empirical Dispersion Energy =           0.0000000000000000
    PCM Polarization Energy =               0.0000000000000000
    EFP Energy =                            0.0000000000000000
    Total Energy =                       -501.0410376297766106
    Molecular point group: c1
  Basis Set: 6-31G*
  Basis Set:

  -Total Gradient:
     Atom            X                  Y                   Z
    ------   -----------------  -----------------  -----------------
       1       -0.000013207805     0.000031440620     0.000000197096
       2       -0.000019172423     0.000015310280    -0.000026077708
       3        0.000770425264    -0.000770540846    -0.003724620786
       4       -0.000017347879    -0.000001957955     0.000029562920
       5       -0.003115245594    -0.001901756148     0.000638915800
       6       -0.000163413716     0.000924727959     0.002960962143
       7        0.000000073936     0.000017627650     0.000009330227
       8        0.000013391552    -0.000039472304    -0.000006375808
       9        0.002508889443     0.001708834399     0.000127654936
      10        0.000006977378     0.000006320968    -0.000006476175
      11        0.000012388651    -0.000019047636     0.000019559222
      12        0.000020938193     0.000006654061     0.000000308226
      13        0.000005638862    -0.000016062762    -0.000004622186
      14       -0.000011757420     0.000030329915    -0.000018303161
      15        0.000004261378     0.000012508061     0.000009688691
      16        0.000008669951    -0.000008903299    -0.000012645895
      17        0.000001970736    -0.000005286298     0.000006604534
      18       -0.000009338859     0.000006599213    -0.000007567593
      19       -0.000002677898     0.000010601134    -0.000006007529
      20        0.000001857937    -0.000011431989     0.000008725206
      21       -0.000006529717     0.000006553937     0.000005311735
      22        0.000004444477    -0.000002758545    -0.000008966470
      23       -0.000000419961    -0.000001766181     0.000002066464
      24        0.000004599410    -0.000001539641    -0.000001233059
      25       -0.000003386241    -0.000000391117     0.000002313583
      26       -0.000001589969     0.000002507995    -0.000000352487
      27        0.000000667251     0.000001327412     0.000001197773
      28        0.000000082975    -0.000000189499     0.000001015279
      29       -0.000001189917    -0.000000239382    -0.000000164978

  **** Optimization is complete! (in 9 steps) ****
    Final optimized geometry and variables:
    Molecular point group: c1

    Geometry (in Angstrom), charge = 0, multiplicity = 1:

    O            2.704021122021     0.282926213582    -1.436969129395
    C            2.512776759883    -0.206839407578    -0.370871727306
    C            1.488019033461     0.243862713902     0.641727737731
    O            3.201620883065    -1.246758836635     0.082533780779
    C            0.666196530951     1.467142878231     0.214205595342
    H            0.860185011837    -0.609472960195     0.876801208897
    H            2.027018576348     0.445225081039     1.563225107978
    C           -0.770509895327     1.468402988304     0.747836599319
    H            0.672321273916     1.547475601338    -0.866343619397
    H            1.173217960846     2.359670355980     0.569417095768
    C           -1.701048662376     0.469484739786     0.054256210454
    H           -1.181885383744     2.467284283959     0.624053161980
    H           -0.762358601732     1.276937063905     1.819986722082
    C           -3.128366202949     0.501369089353     0.604401651321
    H           -1.720286315255     0.686738540380    -1.011994706599
    H           -1.308535370494    -0.540680739548     0.150105413125
    C           -4.067982966195    -0.485144583503    -0.091386700569
    H           -3.529781769263     1.508657114552     0.506006888394
    H           -3.108346876573     0.285399010226     1.671495186503
    C           -5.490875074935    -0.449057963599     0.465210576916
    H           -4.091997137816    -0.268390689223    -1.157164553044
    H           -3.668521290947    -1.492532908502     0.005577347612
    H           -6.132548623203    -1.158655354110    -0.047968856925
    H           -5.931414375489     0.537446011341     0.351373515839
    H           -5.504585379979    -0.695861284749     1.523149601012
    C            4.202703955837    -1.774988919284    -0.768180454410
    H            3.769768702604    -2.120560319300    -1.695883870030
    H            4.641596629231    -2.600649620562    -0.229992487942
    H            4.952404520430    -1.027089473113    -0.982869101659

  Mulliken Charges: (a.u.)
   Center  Symbol    Alpha    Beta     Spin     Total
       1     O     4.28514  4.28514  0.00000 -0.57028
       2     C     2.60950  2.60950  0.00000  0.78099
       3     C     3.21074  3.21074  0.00000 -0.42149
       4     O     4.30602  4.30602  0.00000 -0.61204
       5     C     3.16007  3.16007  0.00000 -0.32014
       6     H     0.39845  0.39845  0.00000  0.20310
       7     H     0.39874  0.39874  0.00000  0.20252
       8     C     3.15786  3.15786  0.00000 -0.31572
       9     H     0.39878  0.39878  0.00000  0.20245
      10     H     0.41612  0.41612  0.00000  0.16777
      11     C     3.15345  3.15345  0.00000 -0.30691
      12     H     0.41884  0.41884  0.00000  0.16232
      13     H     0.42430  0.42430  0.00000  0.15139
      14     C     3.15047  3.15047  0.00000 -0.30094
      15     H     0.42034  0.42034  0.00000  0.15932
      16     H     0.42489  0.42489  0.00000  0.15022
      17     C     3.15147  3.15147  0.00000 -0.30295
      18     H     0.42350  0.42350  0.00000  0.15299
      19     H     0.42446  0.42446  0.00000  0.15107
      20     C     3.23933  3.23933  0.00000 -0.47866
      21     H     0.42231  0.42231  0.00000  0.15539
      22     H     0.42345  0.42345  0.00000  0.15311
      23     H     0.41925  0.41925  0.00000  0.16150
      24     H     0.42165  0.42165  0.00000  0.15670
      25     H     0.42205  0.42205  0.00000  0.15590
      26     C     3.09214  3.09214  0.00000 -0.18429
      27     H     0.40909  0.40909  0.00000  0.18182
      28     H     0.40853  0.40853  0.00000  0.18294
      29     H     0.40904  0.40904  0.00000  0.18191

   Total alpha = 44.00000, Total beta = 44.00000, Total charge =  0.00000
