  ==> Input File <==

--------------------------------------------------------------------------
set {
	reference rhf
	basis 6-31G*
}

set_num_threads( 4 )
memory 2 gb

molecule MOL {
0 1

H	 -0.216825	 0.021369	 -3.357402
C	 0.374198	 0.036393	 -2.447010
C	 -0.521757	 -0.028637	 -1.217342
H	 0.969602	 0.942322	 -2.434777
H	 1.053364	 -0.811668	 -2.481329
N	 0.263400	 0.031178	 0.000000
H	 -1.199035	 0.820290	 -1.219355
H	 -1.147901	 -0.924895	 -1.265384
C	 -0.521757	 -0.028637	 1.217342
H	 0.935769	 -0.712709	 0.000000
C	 -1.133618	 1.328513	 1.537994
H	 -1.314735	 -0.755318	 1.067313
H	 0.062918	 -0.380011	 2.073107
H	 -1.751805	 1.669587	 0.715269
H	 -1.745199	 1.275244	 2.433247
H	 -0.361973	 2.074523	 1.710285

	symmetry c1
}
set optking {
	frozen_dihedral = ("
		12 9 6 3
	")
}

ee = optimize('scf')
oeprop('DIPOLE', 'QUADRUPOLE', 'MULLIKEN_CHARGES')
f=open( 'psi4out.xyz', 'w' )
f.write( "16  " )
f.write( str(ee) + "\n" )
f.write( MOL.save_string_xyz() )
f.close()
--------------------------------------------------------------------------

    Molecular point group: c1
  Charge       = 0
  Multiplicity = 1
  Basis Set: 6-31G*
  Basis Set:
  @DF-RHF Final Energy:  -212.30998546957423
    Total Energy =                       -212.3099854695741442
    Molecular point group: c1
  Basis Set: 6-31G*
  Basis Set:
  Basis Set: 6-31G*
  Basis Set:
  @DF-RHF Final Energy:  -212.31155719941927
    Total Energy =                       -212.3115571994194966
  Basis Set: 6-31G*
  Basis Set:
  Basis Set: 6-31G*
  Basis Set:
  @DF-RHF Final Energy:  -212.31189214504406
    Total Energy =                       -212.3118921450438847
  Basis Set: 6-31G*
  Basis Set:
  Charge       = 0
  Multiplicity = 1
  Basis Set: 6-31G*
  Basis Set:

    Orbital Energies (a.u.)
    -----------------------

    Doubly Occupied:

       1A    -15.534286     2A    -11.241144     3A    -11.240476
       4A    -11.208552     5A    -11.203257     6A     -1.203743
       7A     -1.024442     8A     -0.965585     9A     -0.844728
      10A     -0.802015    11A     -0.663176    12A     -0.627182
      13A     -0.614009    14A     -0.580570    15A     -0.537280
      16A     -0.527569    17A     -0.508401    18A     -0.493210
      19A     -0.481415    20A     -0.466882    21A     -0.359815

  @DF-RHF Final Energy:  -212.31189697991348

   => Energetics <=

    Nuclear Repulsion Energy =            190.9074577734081970
    One-Electron Energy =                -664.1832362310400413
    Two-Electron Energy =                 260.9638814777184734
    DFT Exchange-Correlation Energy =       0.0000000000000000
    Empirical Dispersion Energy =           0.0000000000000000
    PCM Polarization Energy =               0.0000000000000000
    EFP Energy =                            0.0000000000000000
    Total Energy =                       -212.3118969799133993
    Molecular point group: c1
  Basis Set: 6-31G*
  Basis Set:

  -Total Gradient:
     Atom            X                  Y                   Z
    ------   -----------------  -----------------  -----------------
       1       -0.000020754559     0.000001864684     0.000026452725
       2        0.000038706792    -0.000029076986     0.000053332636
       3        0.000070104087    -0.000738792804     0.000064401194
       4       -0.000003217429     0.000006448110     0.000002220223
       5        0.000008664896    -0.000003782002    -0.000003884152
       6       -0.000184200985     0.001198277692    -0.000259527283
       7       -0.000027135978     0.000034735509     0.000011385762
       8        0.000027904718    -0.000006409937     0.000012594072
       9        0.000668054362    -0.001084900667     0.000380830728
      10        0.000030386506     0.000024344972    -0.000039764008
      11        0.000037706709    -0.000120495090     0.000055834726
      12       -0.000653546434     0.000692250548    -0.000310820715
      13       -0.000008833546     0.000049304013     0.000002249151
      14        0.000029018421    -0.000031739659     0.000000652666
      15       -0.000029028272     0.000011188804     0.000027544731
      16        0.000016170711    -0.000003217188    -0.000023502455

  **** Optimization is complete! (in 4 steps) ****
    Final optimized geometry and variables:
    Molecular point group: c1

    Geometry (in Angstrom), charge = 0, multiplicity = 1:

    H            0.150518590404    -0.278804001437    -3.189387918115
    C            0.718955987144    -0.241684568275    -2.265358290725
    C           -0.205913919616    -0.301715693012    -1.056985987585
    H            1.300717939833     0.673006405621    -2.252628179009
    H            1.411177167877    -1.079940372548    -2.270365784124
    N            0.554253084744    -0.224416388206     0.176865818465
    H           -0.892448326504     0.537219987447    -1.092773371952
    H           -0.818769582398    -1.206870061168    -1.106098152184
    C           -0.240728539697    -0.288490072315     1.393677659355
    H            1.231125106553    -0.962090013372     0.184603136298
    C           -0.821288756154     1.070192332839     1.772959935080
    H           -1.051815417107    -1.017347486608     1.313686151729
    H            0.407929123771    -0.625344609591     2.195501894941
    H           -1.502385926241     1.442013665778     1.014582387057
    H           -1.374550452988     1.001849806274     2.705375745377
    H           -0.025930724714     1.797005503392     1.894041267525

  Mulliken Charges: (a.u.)
   Center  Symbol    Alpha    Beta     Spin     Total
       1     H     0.42018  0.42018  0.00000  0.15964
       2     C     3.24185  3.24185  0.00000 -0.48371
       3     C     3.05652  3.05652  0.00000 -0.11303
       4     H     0.41187  0.41187  0.00000  0.17627
       5     H     0.42505  0.42505  0.00000  0.14990
       6     N     3.84840  3.84840  0.00000 -0.69679
       7     H     0.41929  0.41929  0.00000  0.16142
       8     H     0.43484  0.43484  0.00000  0.13032
       9     C     3.06005  3.06005  0.00000 -0.12009
      10     H     0.33292  0.33292  0.00000  0.33416
      11     C     3.23491  3.23491  0.00000 -0.46981
      12     H     0.43323  0.43323  0.00000  0.13355
      13     H     0.42071  0.42071  0.00000  0.15857
      14     H     0.42167  0.42167  0.00000  0.15667
      15     H     0.42405  0.42405  0.00000  0.15189
      16     H     0.41448  0.41448  0.00000  0.17105

   Total alpha = 21.00000, Total beta = 21.00000, Total charge = -0.00000
