                              Psi4 1.0.54 Driver

  ==> Input File <==

--------------------------------------------------------------------------
set {
	reference rhf
	basis cc-pvtz
}

set_num_threads( 4 )
memory 2 gb

molecule MOL {
0 1

O	 1.847685	 1.294399	 -0.000190
C	 1.704209	 0.119472	 -0.000093
C	 0.380337	 -0.600947	 -0.000234
O	 2.715427	 -0.733672	 0.000025
C	 -0.824290	 0.329213	 -0.000115
H	 0.371455	 -1.255476	 -0.865660
H	 0.371410	 -1.255787	 0.864952
C	 -2.146151	 -0.432825	 -0.000068
H	 -0.773936	 0.979158	 -0.866319
H	 -0.773838	 0.979034	 0.866186
C	 -3.366283	 0.483552	 0.000557
H	 -2.189286	 -1.084450	 -0.869996
H	 -2.188867	 -1.085083	 0.869399
C	 -4.433365	 0.060971	 -1.003522
H	 -3.050349	 1.500264	 -0.215404
H	 -3.797376	 0.504802	 0.997486
H	 -4.041886	 0.063181	 -2.015437
H	 -5.284302	 0.731759	 -0.977369
H	 -4.795110	 -0.939999	 -0.792727
C	 4.020999	 -0.192556	 0.000019
H	 4.182809	 0.412891	 -0.879449
H	 4.692590	 -1.035653	 0.000152
H	 4.182726	 0.413087	 0.879368

	symmetry c1
}
set optking {
	frozen_dihedral = ("
		15 11 8 12
	")
}

ee,wfn = optimize('scf', return_wfn=True)
oeprop( wfn, 'DIPOLE', 'QUADRUPOLE', 'MULLIKEN_CHARGES')
f=open( 'psi4out.xyz', 'w' )
f.write( "23  " )
f.write( str(ee) + "\n" )
f.write( MOL.save_string_xyz() )
f.close()
--------------------------------------------------------------------------

    Molecular point group: c1
  Charge       = 0
  Multiplicity = 1
  Basis Set: CC-PVTZ
  Basis Set:
  @DF-RHF Final Energy:  -423.12605831518238
    Total Energy =                       -423.1260583151824903
    Molecular point group: c1
  Basis Set: CC-PVTZ
  Basis Set:
  Basis Set: CC-PVTZ
  Basis Set:
  @DF-RHF Final Energy:  -423.12631312773772
    Total Energy =                       -423.1263131277372622
  Basis Set: CC-PVTZ
  Basis Set:
  Basis Set: CC-PVTZ
  Basis Set:
  @DF-RHF Final Energy:  -423.12638581229561
    Total Energy =                       -423.1263858122957799
  Basis Set: CC-PVTZ
  Basis Set:
  Basis Set: CC-PVTZ
  Basis Set:
  @DF-RHF Final Energy:  -423.12630328822650
    Total Energy =                       -423.1263032882264952
  Basis Set: CC-PVTZ
  Basis Set:
  Basis Set: CC-PVTZ
  Basis Set:
  @DF-RHF Final Energy:  -423.12638810035202
    Total Energy =                       -423.1263881003518463
  Basis Set: CC-PVTZ
  Basis Set:
  Charge       = 0
  Multiplicity = 1
  Basis Set: CC-PVTZ
  Basis Set:

    Orbital Energies (a.u.)
    -----------------------

    Doubly Occupied:

       1A    -20.596340     2A    -20.534152     3A    -11.364629
       4A    -11.278499     5A    -11.233666     6A    -11.217779
       7A    -11.215528     8A    -11.214201     9A    -11.208189
      10A     -1.472233    11A     -1.365820    12A     -1.093252
      13A     -1.043494    14A     -0.988116    15A     -0.932568
      16A     -0.845471    17A     -0.795752    18A     -0.769572
      19A     -0.699158    20A     -0.686646    21A     -0.675717
      22A     -0.646701    23A     -0.611514    24A     -0.600606
      25A     -0.576766    26A     -0.566648    27A     -0.548209
      28A     -0.526425    29A     -0.523193    30A     -0.505525
      31A     -0.491676    32A     -0.470482    33A     -0.462743
      34A     -0.461492    35A     -0.455964    36A     -0.438283

  @DF-RHF Final Energy:  -423.12638821081276

   => Energetics <=

    Nuclear Repulsion Energy =            453.2200568961943077
    One-Electron Energy =               -1474.4588778099887350
    Two-Electron Energy =                 598.1124327029815504
    DFT Exchange-Correlation Energy =       0.0000000000000000
    Empirical Dispersion Energy =           0.0000000000000000
    PCM Polarization Energy =               0.0000000000000000
    EFP Energy =                            0.0000000000000000
    Total Energy =                       -423.1263882108128200
    Molecular point group: c1
  Basis Set: CC-PVTZ
  Basis Set:

  -Total Gradient:
     Atom            X                  Y                   Z
    ------   -----------------  -----------------  -----------------
       1       -0.000021357192     0.000013218469    -0.000011693793
       2        0.000011713133     0.000002795055     0.000027712627
       3        0.000006581969    -0.000002537959    -0.000012689958
       4        0.000007677529    -0.000025299098    -0.000007329501
       5        0.000011082187     0.000010270501     0.000006568028
       6        0.000002282500    -0.000000768261    -0.000000512288
       7        0.000002312771     0.000004936995    -0.000002865610
       8        0.002135761975     0.002909476468    -0.001419231486
       9       -0.000008727048    -0.000002089852     0.000004057317
      10       -0.000006104581    -0.000005774069    -0.000000734127
      11       -0.000967935133    -0.001202371821    -0.003582420162
      12       -0.001634528366    -0.002251015590     0.001778459069
      13        0.000005446468     0.000005774221     0.000000505452
      14       -0.000020223414     0.000001362146    -0.000016104489
      15        0.000467343175     0.000535752820     0.003223798192
      16        0.000001997743    -0.000004881648    -0.000003151497
      17        0.000001996102     0.000001405667     0.000011367807
      18       -0.000000281988    -0.000000500257     0.000003018672
      19        0.000011177493     0.000009072534     0.000001936888
      20       -0.000003676562     0.000007099552    -0.000000244483
      21        0.000001269725    -0.000001402179     0.000001093368
      22       -0.000004432067    -0.000002857018    -0.000000215391
      23        0.000000623594    -0.000001666674    -0.000001324633

  **** Optimization is complete! (in 6 steps) ****
    Final optimized geometry and variables:
    Molecular point group: c1

    Geometry (in Angstrom), charge = 0, multiplicity = 1:

    O            1.827958586824     1.253628414452     0.114102562523
    C            1.683185578452     0.078846029470     0.118218766031
    C            0.358527302269    -0.639937403360     0.108251516826
    O            2.693371230743    -0.775440088648     0.132350617651
    C           -0.844389292083     0.291721689696     0.091440451517
    H            0.357168823462    -1.298628871580    -0.754120575259
    H            0.339925000823    -1.290526145844     0.976450683429
    C           -2.167638749702    -0.466601184670     0.075086161881
    H           -0.783490417956     0.940961366896    -0.774615202717
    H           -0.805570996053     0.942864124486     0.957661016074
    C           -3.403900090515     0.451000855476     0.101794673725
    H           -2.213163944298    -1.117220542694    -0.794284135952
    H           -2.202698210412    -1.138051261120     0.928995286729
    C           -4.509617128105     0.019920309945    -0.854774324415
    H           -3.105382950112     1.472231733162    -0.112803616608
    H           -3.802872670112     0.481633677903     1.110905056882
    H           -4.164349958017     0.036909736010    -1.883174814354
    H           -5.370265477793     0.674966076342    -0.782269515828
    H           -4.842718475107    -0.989493457866    -0.636312470288
    C            3.999452797553    -0.235850102294     0.142899871441
    H            4.170840849837     0.365387491263    -0.737654998699
    H            4.670023963529    -1.079710627018     0.153552966554
    H            4.153240119795     0.373609131460     1.021048201975

  Mulliken Charges: (a.u.)
   Center  Symbol    Alpha    Beta     Spin     Total
       1     O     4.19696  4.19696  0.00000 -0.39393
       2     C     2.80630  2.80630  0.00000  0.38740
       3     C     3.10255  3.10255  0.00000 -0.20511
       4     O     4.14649  4.14649  0.00000 -0.29298
       5     C     3.08388  3.08388  0.00000 -0.16776
       6     H     0.43977  0.43977  0.00000  0.12046
       7     H     0.44009  0.44009  0.00000  0.11981
       8     C     3.09445  3.09445  0.00000 -0.18889
       9     H     0.44610  0.44610  0.00000  0.10779
      10     H     0.44513  0.44513  0.00000  0.10973
      11     C     3.08755  3.08755  0.00000 -0.17510
      12     H     0.45508  0.45508  0.00000  0.08984
      13     H     0.45337  0.45337  0.00000  0.09327
      14     C     3.14772  3.14772  0.00000 -0.29543
      15     H     0.45182  0.45182  0.00000  0.09636
      16     H     0.45200  0.45200  0.00000  0.09599
      17     H     0.45532  0.45532  0.00000  0.08936
      18     H     0.44891  0.44891  0.00000  0.10219
      19     H     0.45476  0.45476  0.00000  0.09048
      20     C     3.03769  3.03769  0.00000 -0.07538
      21     H     0.45435  0.45435  0.00000  0.09130
      22     H     0.44534  0.44534  0.00000  0.10933
      23     H     0.45436  0.45436  0.00000  0.09128

   Total alpha = 36.00000, Total beta = 36.00000, Total charge = -0.00000

*** Psi4 exiting successfully. Buy a developer a beer!
