  ==> Input File <==

--------------------------------------------------------------------------
set {
	reference rhf
	basis cc-pvtz
}

set_num_threads( 4 )
memory 2 gb

molecule MOL {
0 1

H	 1.207753	 -1.500639	 -0.571808
C	 0.601666	 -0.603427	 -0.710072
N	 -0.537714	 -0.645117	 0.000000
O	 0.951121	 0.285898	 -1.419790
C	 -1.522613	 0.412524	 0.000000
H	 -0.701246	 -1.451166	 0.550931
H	 -2.150256	 0.356137	 -0.880771
H	 -1.005621	 1.357208	 0.000000
H	 -2.150256	 0.356137	 0.880771

	symmetry c1
}
set optking {
	frozen_dihedral = ("
		6 3 5 7
	")
}

ee = optimize('scf')
oeprop('DIPOLE', 'QUADRUPOLE', 'MULLIKEN_CHARGES')
f=open( 'psi4out.xyz', 'w' )
f.write( "9  " )
f.write( str(ee) + "\n" )
f.write( MOL.save_string_xyz() )
f.close()
--------------------------------------------------------------------------

    Molecular point group: c1
  Charge       = 0
  Multiplicity = 1
  Basis Set: CC-PVTZ
  Basis Set:
  @DF-RHF Final Energy:  -208.04328859018403
    Total Energy =                       -208.0432885901840336
    Molecular point group: c1
  Basis Set: CC-PVTZ
  Basis Set:
  Basis Set: CC-PVTZ
  Basis Set:
  @DF-RHF Final Energy:  -208.04359026707220
    Total Energy =                       -208.0435902670721475
  Basis Set: CC-PVTZ
  Basis Set:
  Basis Set: CC-PVTZ
  Basis Set:
  @DF-RHF Final Energy:  -208.04360164431324
    Total Energy =                       -208.0436016443132985
  Basis Set: CC-PVTZ
  Basis Set:
  Basis Set: CC-PVTZ
  Basis Set:
  @DF-RHF Final Energy:  -208.04365925395089
    Total Energy =                       -208.0436592539508354
  Basis Set: CC-PVTZ
  Basis Set:
  Basis Set: CC-PVTZ
  Basis Set:
  @DF-RHF Final Energy:  -208.04367423012326
    Total Energy =                       -208.0436742301231448
  Basis Set: CC-PVTZ
  Basis Set:
  Charge       = 0
  Multiplicity = 1
  Basis Set: CC-PVTZ
  Basis Set:

    Orbital Energies (a.u.)
    -----------------------

    Doubly Occupied:

       1A    -20.516757     2A    -15.584485     3A    -11.336238
       4A    -11.260326     5A     -1.394002     6A     -1.239490
       7A     -0.969824     8A     -0.809055     9A     -0.749036
      10A     -0.645961    11A     -0.629985    12A     -0.596141
      13A     -0.558985    14A     -0.537659    15A     -0.428439
      16A     -0.396786

  @DF-RHF Final Energy:  -208.04368056409299

   => Energetics <=

    Nuclear Repulsion Energy =            122.9051568223436561
    One-Electron Energy =                -526.5913390643856928
    Two-Electron Energy =                 195.6425016779491557
    DFT Exchange-Correlation Energy =       0.0000000000000000
    Empirical Dispersion Energy =           0.0000000000000000
    PCM Polarization Energy =               0.0000000000000000
    EFP Energy =                            0.0000000000000000
    Total Energy =                       -208.0436805640928810
    Molecular point group: c1
  Basis Set: CC-PVTZ
  Basis Set:

  -Total Gradient:
     Atom            X                  Y                   Z
    ------   -----------------  -----------------  -----------------
       1       -0.000038945424     0.000057817160     0.000000649358
       2       -0.000220318962    -0.000080688181     0.000156180703
       3        0.000129887151    -0.000072195482    -0.000092994561
       4        0.000123284062     0.000110962572    -0.000133157240
       5        0.000002464597     0.000113244438     0.000068630429
       6       -0.000012677262     0.000000860750     0.000040184910
       7        0.000016058922    -0.000043699808    -0.000042112817
       8        0.000013314786    -0.000071814467     0.000001312834
       9       -0.000013067867    -0.000014486981     0.000001306383

  **** Optimization is complete! (in 6 steps) ****
    Final optimized geometry and variables:
    Molecular point group: c1

    Geometry (in Angstrom), charge = 0, multiplicity = 1:

    H            1.358760874231    -1.368302960415    -0.050332346309
    C            0.737527932236    -0.480847040338    -0.184378100173
    N           -0.367694682663    -0.500095289495     0.576545076605
    O            1.041868091500     0.397682645057    -0.927783944007
    C           -1.358524382600     0.551931261082     0.527789131081
    H           -0.552244388242    -1.314714854391     1.106767599318
    H           -1.940267364906     0.512905590750    -0.385117253385
    H           -0.874978670912     1.515489357366     0.580864177269
    H           -2.023496066919     0.445222179711     1.372766737771

  Mulliken Charges: (a.u.)
   Center  Symbol    Alpha    Beta     Spin     Total
       1     H     0.46421  0.46421  0.00000  0.07159
       2     C     2.87989  2.87989  0.00000  0.24021
       3     N     3.60577  3.60577  0.00000 -0.21154
       4     O     4.21420  4.21420  0.00000 -0.42840
       5     C     3.07603  3.07603  0.00000 -0.15206
       6     H     0.41028  0.41028  0.00000  0.17944
       7     H     0.45326  0.45326  0.00000  0.09348
       8     H     0.44210  0.44210  0.00000  0.11580
       9     H     0.45426  0.45426  0.00000  0.09149

   Total alpha = 16.00000, Total beta = 16.00000, Total charge = -0.00000
