  ==> Input File <==

--------------------------------------------------------------------------
set {
	reference rhf
	basis 6-31G*
}

set_num_threads( 1 )
memory 2 gb

molecule MOL {
0 1

H	 2.743254	 -0.659446	 0.826060
N	 2.434251	 -0.367735	 -0.081097
C	 1.267428	 0.496480	 0.024474
H	 2.209380	 -1.200464	 -0.591890
C	 -0.016086	 -0.325158	 -0.029487
H	 1.288818	 1.183521	 -0.816092
H	 1.267576	 1.109062	 0.929528
C	 -1.282277	 0.529072	 0.046735
H	 -0.012495	 -0.908639	 -0.945788
H	 -0.015903	 -1.041248	 0.791956
C	 -2.563920	 -0.301775	 -0.006060
H	 -1.284084	 1.244622	 -0.773004
H	 -1.271387	 1.115393	 0.963286
H	 -2.621848	 -0.873522	 -0.927727
H	 -3.445135	 0.329952	 0.047812
H	 -2.609542	 -1.004582	 0.821105

	symmetry c1
}
set optking {
	frozen_dihedral = ("
		6 3 5 9,
		12 8 5 9
	")
}

ee = energy('scf')
oeprop('DIPOLE', 'QUADRUPOLE', 'MULLIKEN_CHARGES')
f=open( 'psi4out.xyz', 'w' )
f.write( "16  " )
f.write( str(ee) + "\n" )
f.write( MOL.save_string_xyz() )
f.close()
--------------------------------------------------------------------------

    Molecular point group: c1

    Geometry (in Angstrom), charge = 0, multiplicity = 1:

       Center              X                  Y                   Z               Mass
    ------------   -----------------  -----------------  -----------------  -----------------
           H          2.754637135080    -0.644712447581     0.831257382040     1.007825032070
           N          2.445634135080    -0.353001447581    -0.075899617960    14.003074004780
           C          1.278811135080     0.511213552419     0.029671382040    12.000000000000
           H          2.220763135080    -1.185730447581    -0.586692617960     1.007825032070
           C         -0.004702864920    -0.310424447581    -0.024289617960    12.000000000000
           H          1.300201135080     1.198254552419    -0.810894617960     1.007825032070
           H          1.278959135080     1.123795552419     0.934725382040     1.007825032070
           C         -1.270893864920     0.543805552419     0.051932382040    12.000000000000
           H         -0.001111864920    -0.893905447581    -0.940590617960     1.007825032070
           H         -0.004519864920    -1.026514447581     0.797153382040     1.007825032070
           C         -2.552536864920    -0.287041447581    -0.000862617960    12.000000000000
           H         -1.272700864920     1.259355552419    -0.767806617960     1.007825032070
           H         -1.260003864920     1.130126552419     0.968483382040     1.007825032070
           H         -2.610464864920    -0.858788447581    -0.922529617960     1.007825032070
           H         -3.433751864920     0.344685552419     0.053009382040     1.007825032070
           H         -2.598158864920    -0.989848447581     0.826302382040     1.007825032070

  Charge       = 0
  Multiplicity = 1
  Basis Set: 6-31G*
  Basis Set:

    Orbital Energies (a.u.)
    -----------------------

    Doubly Occupied:

       1A    -15.530274     2A    -11.240129     3A    -11.217749
       4A    -11.213976     5A    -11.210698     6A     -1.178105
       7A     -1.061751     8A     -0.959478     9A     -0.847488
      10A     -0.798807    11A     -0.675246    12A     -0.628141
      13A     -0.596574    14A     -0.587692    15A     -0.558075
      16A     -0.526188    17A     -0.506999    18A     -0.481489
      19A     -0.474692    20A     -0.465994    21A     -0.372756

  @DF-RHF Final Energy:  -212.31292908014854

   => Energetics <=

    Nuclear Repulsion Energy =            186.8010457896987191
    One-Electron Energy =                -655.9633475558606506
    Two-Electron Energy =                 256.8493726860131119
    DFT Exchange-Correlation Energy =       0.0000000000000000
    Empirical Dispersion Energy =           0.0000000000000000
    PCM Polarization Energy =               0.0000000000000000
    EFP Energy =                            0.0000000000000000
    Total Energy =                       -212.3129290801488196

  Mulliken Charges: (a.u.)
   Center  Symbol    Alpha    Beta     Spin     Total
       1     H     0.33392  0.33392  0.00000  0.33215
       2     N     3.92272  3.92272  0.00000 -0.84543
       3     C     3.05670  3.05670  0.00000 -0.11340
       4     H     0.33266  0.33266  0.00000  0.33469
       5     C     3.16182  3.16182  0.00000 -0.32364
       6     H     0.41865  0.41865  0.00000  0.16270
       7     H     0.42131  0.42131  0.00000  0.15737
       8     C     3.15572  3.15572  0.00000 -0.31145
       9     H     0.42506  0.42506  0.00000  0.14988
      10     H     0.42613  0.42613  0.00000  0.14775
      11     C     3.23876  3.23876  0.00000 -0.47752
      12     H     0.42136  0.42136  0.00000  0.15728
      13     H     0.42283  0.42283  0.00000  0.15434
      14     H     0.42148  0.42148  0.00000  0.15705
      15     H     0.41890  0.41890  0.00000  0.16221
      16     H     0.42199  0.42199  0.00000  0.15602

   Total alpha = 21.00000, Total beta = 21.00000, Total charge = -0.00000
