                              Psi4 1.0.54 Driver

  ==> Input File <==

--------------------------------------------------------------------------
set {
	reference rhf
	basis cc-pvtz
}

set_num_threads( 4 )
memory 2 gb

molecule MOL {
0 1

O	 3.219313	 0.959291	 -0.614106
C	 2.698710	 0.058177	 -0.050237
C	 1.246364	 -0.005813	 0.348416
O	 3.344101	 -1.038700	 0.312317
C	 0.453207	 1.232821	 -0.049003
H	 0.839270	 -0.907818	 -0.092281
H	 1.216683	 -0.160521	 1.422434
C	 -0.998367	 1.217982	 0.432195
H	 0.481498	 1.345443	 -1.127236
H	 0.951413	 2.105557	 0.354893
C	 -1.882951	 0.151251	 -0.211235
H	 -1.429490	 2.193659	 0.228843
H	 -1.019755	 1.099323	 1.513279
C	 -3.342450	 0.243269	 0.226009
H	 -1.826223	 0.246578	 -1.293162
H	 -1.508033	 -0.839650	 0.027695
C	 -3.908780	 -1.079013	 0.735532
H	 -3.945692	 0.592777	 -0.608427
H	 -3.437214	 0.996423	 1.004882
C	 -5.367624	 -0.979458	 1.168707
H	 -3.814973	 -1.832531	 -0.041727
H	 -3.308623	 -1.428325	 1.571385
H	 -5.738037	 -1.933948	 1.524693
H	 -5.999954	 -0.666073	 0.344657
H	 -5.489677	 -0.257949	 1.969791
C	 4.720529	 -1.114346	 0.001449
H	 4.874321	 -1.055557	 -1.065852
H	 5.057824	 -2.067950	 0.373977
H	 5.264321	 -0.313596	 0.480350

	symmetry c1
}
set optking {
	frozen_dihedral = ("
		17 14 11 15
	")
}

ee,wfn = optimize('scf', return_wfn=True)
oeprop( wfn, 'DIPOLE', 'QUADRUPOLE', 'MULLIKEN_CHARGES')
f=open( 'psi4out.xyz', 'w' )
f.write( "29  " )
f.write( str(ee) + "\n" )
f.write( MOL.save_string_xyz() )
f.close()
--------------------------------------------------------------------------

    Molecular point group: c1
  Charge       = 0
  Multiplicity = 1
  Basis Set: CC-PVTZ
  Basis Set:
  @DF-RHF Final Energy:  -501.21959833789776
    Total Energy =                       -501.2195983378981055
    Molecular point group: c1
  Basis Set: CC-PVTZ
  Basis Set:
  Basis Set: CC-PVTZ
  Basis Set:
  @DF-RHF Final Energy:  -501.21982953770100
    Total Energy =                       -501.2198295377008890
  Basis Set: CC-PVTZ
  Basis Set:
  Basis Set: CC-PVTZ
  Basis Set:
  @DF-RHF Final Energy:  -501.21987431481955
    Total Energy =                       -501.2198743148196627
  Basis Set: CC-PVTZ
  Basis Set:
  Basis Set: CC-PVTZ
  Basis Set:
  @DF-RHF Final Energy:  -501.21969732073046
    Total Energy =                       -501.2196973207303472
  Basis Set: CC-PVTZ
  Basis Set:
  Basis Set: CC-PVTZ
  Basis Set:
  @DF-RHF Final Energy:  -501.21988870043265
    Total Energy =                       -501.2198887004317385
  Basis Set: CC-PVTZ
  Basis Set:
  Charge       = 0
  Multiplicity = 1
  Basis Set: CC-PVTZ
  Basis Set:

    Orbital Energies (a.u.)
    -----------------------

    Doubly Occupied:

       1A    -20.596001     2A    -20.533846     3A    -11.364263
       4A    -11.278252     5A    -11.232970     6A    -11.216868
       7A    -11.215903     8A    -11.214628     9A    -11.213534
      10A    -11.212099    11A    -11.207129    12A     -1.471882
      13A     -1.365481    14A     -1.098372    15A     -1.067220
      16A     -1.020346    17A     -0.977413    18A     -0.928735
      19A     -0.862829    20A     -0.802767    21A     -0.790113
      22A     -0.765759    23A     -0.702652    24A     -0.685434
      25A     -0.675954    26A     -0.641590    27A     -0.632090
      28A     -0.611032    29A     -0.596011    30A     -0.581569
      31A     -0.565187    32A     -0.554329    33A     -0.537617
      34A     -0.527612    35A     -0.519026    36A     -0.510304
      37A     -0.496543    38A     -0.477492    39A     -0.474690
      40A     -0.461074    41A     -0.458849    42A     -0.454042
      43A     -0.443803    44A     -0.437071

  @DF-RHF Final Energy:  -501.21988858745578

   => Energetics <=

    Nuclear Repulsion Energy =            612.8172164804492468
    One-Electron Energy =               -1897.1134491451739450
    Two-Electron Energy =                 783.0763440772682316
    DFT Exchange-Correlation Energy =       0.0000000000000000
    Empirical Dispersion Energy =           0.0000000000000000
    PCM Polarization Energy =               0.0000000000000000
    EFP Energy =                            0.0000000000000000
    Total Energy =                       -501.2198885874565804
    Molecular point group: c1
  Basis Set: CC-PVTZ
  Basis Set:

  -Total Gradient:
     Atom            X                  Y                   Z
    ------   -----------------  -----------------  -----------------
       1       -0.000006056235     0.000056113222     0.000010838321
       2       -0.000002294133    -0.000052321789    -0.000078465885
       3        0.000003222236     0.000004809536     0.000006444436
       4       -0.000009344196    -0.000019970653     0.000036013188
       5        0.000031316243     0.000019241590     0.000043361330
       6       -0.000021323001    -0.000024310215    -0.000002408630
       7       -0.000003672119     0.000008139399    -0.000002019416
       8       -0.000035089494     0.000013058466    -0.000038666517
       9        0.000000315358     0.000009356140    -0.000001122357
      10        0.000011326387    -0.000011785898     0.000007589318
      11       -0.000024972151    -0.002370646878     0.000287936128
      12       -0.000009575738     0.000004929225    -0.000008777343
      13       -0.000002642068     0.000019680713     0.000008625278
      14       -0.000584633000     0.000002556046    -0.001885118875
      15        0.000185938714     0.002030476590     0.000218757533
      16        0.000019922592    -0.000025214566     0.000001209696
      17        0.000434711123     0.000332486741     0.001393034993
      18        0.000015270508    -0.000003494407     0.000004180685
      19        0.000004363317     0.000003857869     0.000003670418
      20       -0.000007101956     0.000002879773    -0.000009092669
      21       -0.000001211689    -0.000008275903    -0.000000639747
      22        0.000010425747     0.000002373821    -0.000001924260
      23       -0.000001365907    -0.000001843662    -0.000001816831
      24       -0.000002560912     0.000002774124     0.000005079413
      25        0.000001366873    -0.000000532443     0.000001663461
      26       -0.000003207318     0.000010656724    -0.000004729414
      27       -0.000000944215    -0.000000773237     0.000001540886
      28       -0.000004824756    -0.000004252752     0.000003914890
      29        0.000002639799     0.000000032425     0.000000921970

  **** Optimization is complete! (in 6 steps) ****
    Final optimized geometry and variables:
    Molecular point group: c1

    Geometry (in Angstrom), charge = 0, multiplicity = 1:

    O            3.164514899659     1.007929111826    -0.827128276694
    C            2.645254521313     0.107839248516    -0.260366785668
    C            1.193234524365     0.043328571613     0.139453032247
    O            3.292103141819    -0.987292384696     0.104905211573
    C            0.398687457349     1.280633247549    -0.259639964274
    H            0.786771153097    -0.859917939092    -0.299334399820
    H            1.164387073675    -0.109530863287     1.213761920318
    C           -1.052222212888     1.265349404112     0.222139308327
    H            0.426242937680     1.391284800408    -1.338167954467
    H            0.896405525313     2.154611204336     0.142298136398
    C           -1.936746202102     0.192375407914    -0.415105318010
    H           -1.486851704985     2.238478476370     0.013508806726
    H           -1.074561870861     1.152357301734     1.304094332400
    C           -3.410984359476     0.285249901549     0.026011532052
    H           -1.868710720973     0.296262165509    -1.493774609509
    H           -1.551076838264    -0.792309078588    -0.175073144427
    C           -3.988544835758    -1.037468112644     0.524543234110
    H           -4.019654188596     0.655829005963    -0.792692266132
    H           -3.504777987059     1.019759440842     0.821071880680
    C           -5.447875712101    -0.932273941238     0.952925441523
    H           -3.895040808106    -1.788646410459    -0.255440141568
    H           -3.391001324018    -1.392083593958     1.360257256245
    H           -5.823971781534    -1.885748331992     1.305766981839
    H           -6.075964843313    -0.614160079477     0.127418281866
    H           -5.569234059957    -0.211598075382     1.754953113864
    C            4.668371676696    -1.062375398687    -0.206811336928
    H            4.821276537369    -1.006432515077    -1.274393905650
    H            5.006988346990    -2.014577181751     0.168133023941
    H            5.211708392632    -0.259706441299     0.269403872181

  Mulliken Charges: (a.u.)
   Center  Symbol    Alpha    Beta     Spin     Total
       1     O     4.19700  4.19700  0.00000 -0.39399
       2     C     2.80502  2.80502  0.00000  0.38995
       3     C     3.10146  3.10146  0.00000 -0.20292
       4     O     4.14725  4.14725  0.00000 -0.29450
       5     C     3.09325  3.09325  0.00000 -0.18650
       6     H     0.43909  0.43909  0.00000  0.12182
       7     H     0.43979  0.43979  0.00000  0.12042
       8     C     3.10298  3.10298  0.00000 -0.20595
       9     H     0.44629  0.44629  0.00000  0.10743
      10     H     0.43956  0.43956  0.00000  0.12087
      11     C     3.09962  3.09962  0.00000 -0.19924
      12     H     0.44415  0.44415  0.00000  0.11170
      13     H     0.45383  0.45383  0.00000  0.09233
      14     C     3.09062  3.09062  0.00000 -0.18124
      15     H     0.44921  0.44921  0.00000  0.10159
      16     H     0.45263  0.45263  0.00000  0.09474
      17     C     3.08434  3.08434  0.00000 -0.16867
      18     H     0.44931  0.44931  0.00000  0.10137
      19     H     0.45504  0.45504  0.00000  0.08993
      20     C     3.15023  3.15023  0.00000 -0.30045
      21     H     0.45363  0.45363  0.00000  0.09274
      22     H     0.45526  0.45526  0.00000  0.08949
      23     H     0.44854  0.44854  0.00000  0.10292
      24     H     0.45488  0.45488  0.00000  0.09023
      25     H     0.45499  0.45499  0.00000  0.09001
      26     C     3.03820  3.03820  0.00000 -0.07641
      27     H     0.45436  0.45436  0.00000  0.09129
      28     H     0.44527  0.44527  0.00000  0.10945
      29     H     0.45421  0.45421  0.00000  0.09158

   Total alpha = 44.00000, Total beta = 44.00000, Total charge = -0.00000

*** Psi4 exiting successfully. Buy a developer a beer!
