  ==> Input File <==

--------------------------------------------------------------------------
set {
	reference rhf
	basis 6-31G*
}

set_num_threads( 4 )
memory 2 gb

molecule MOL {
0 1

H	 3.564798	 -1.099541	 -0.475564
O	 2.826016	 -1.159218	 0.122261
C	 2.077727	 -0.067559	 -0.035091
C	 0.624473	 -0.343591	 0.253101
O	 2.542965	 0.974826	 -0.363729
C	 -0.265902	 0.883932	 0.072916
H	 0.324016	 -1.163849	 -0.390541
H	 0.565024	 -0.726111	 1.268924
C	 -1.728698	 0.646073	 0.462102
H	 -0.209144	 1.219470	 -0.958188
H	 0.135059	 1.692851	 0.673903
C	 -2.482460	 -0.343073	 -0.431425
H	 -2.245265	 1.602650	 0.432430
H	 -1.779332	 0.308348	 1.496285
C	 -3.960546	 -0.461025	 -0.060175
H	 -2.395034	 -0.026811	 -1.468912
H	 -2.024850	 -1.327147	 -0.371646
H	 -4.472726	 -1.168004	 -0.705284
H	 -4.465146	 0.496508	 -0.151489
H	 -4.081218	 -0.800940	 0.964585

	symmetry c1
}
set optking {
	frozen_dihedral = ("
		1 2 3 5
	")
}

ee = optimize('scf')
oeprop('DIPOLE', 'QUADRUPOLE', 'MULLIKEN_CHARGES')
f=open( 'psi4out.xyz', 'w' )
f.write( "20  " )
f.write( str(ee) + "\n" )
f.write( MOL.save_string_xyz() )
f.close()
--------------------------------------------------------------------------

    Molecular point group: c1
  Charge       = 0
  Multiplicity = 1
  Basis Set: 6-31G*
  Basis Set:
  @DF-RHF Final Energy:  -383.94329210502195
    Total Energy =                       -383.9432921050220102
    Molecular point group: c1
  Basis Set: 6-31G*
  Basis Set:
  Basis Set: 6-31G*
  Basis Set:
  @DF-RHF Final Energy:  -383.93999321891368
    Total Energy =                       -383.9399932189136280
  Basis Set: 6-31G*
  Basis Set:
  Basis Set: 6-31G*
  Basis Set:
  @DF-RHF Final Energy:  -383.94374402296262
    Total Energy =                       -383.9437440229625622
  Basis Set: 6-31G*
  Basis Set:
  Basis Set: 6-31G*
  Basis Set:
  @DF-RHF Final Energy:  -383.94380573797179
    Total Energy =                       -383.9438057379717861
  Basis Set: 6-31G*
  Basis Set:
  @DF-RHF Final Energy:  -383.94381372885624
    Total Energy =                       -383.9438137288562984
  @DF-RHF Final Energy:  -383.94381574480462
    Total Energy =                       -383.9438157448045104
  @DF-RHF Final Energy:  -383.92783171333139
    Total Energy =                       -383.9278317133313294
  @DF-RHF Final Energy:  -383.94233854279452
    Total Energy =                       -383.9423385427944595
  @DF-RHF Final Energy:  -383.94371983403494
    Total Energy =                       -383.9437198340347663
  @DF-RHF Final Energy:  -383.94380385928497
    Total Energy =                       -383.9438038592850262
  @DF-RHF Final Energy:  -383.94381149781782
    Total Energy =                       -383.9438114978179328
  @DF-RHF Final Energy:  -383.94381736288756
    Total Energy =                       -383.9438173628876143
  @DF-RHF Final Energy:  -383.94381890057878
    Total Energy =                       -383.9438189005782078
  Basis Set: 6-31G*
  Basis Set:
  @DF-RHF Final Energy:  -383.94381845724291
    Total Energy =                       -383.9438184572428554
  Basis Set: 6-31G*
  Basis Set:
  Basis Set: 6-31G*
  Basis Set:
  @DF-RHF Final Energy:  -383.94373991653839
    Total Energy =                       -383.9437399165383340
  Basis Set: 6-31G*
  Basis Set:
  Basis Set: 6-31G*
  Basis Set:
  @DF-RHF Final Energy:  -383.94381923191577
    Total Energy =                       -383.9438192319155405
  Basis Set: 6-31G*
  Basis Set:
  Charge       = 0
  Multiplicity = 1
  Basis Set: 6-31G*
  Basis Set:

    Orbital Energies (a.u.)
    -----------------------

    Doubly Occupied:

       1A    -20.608525     2A    -20.553624     3A    -11.381170
       4A    -11.239804     5A    -11.222698     6A    -11.220766
       7A    -11.220120     8A    -11.212526     9A     -1.470491
      10A     -1.366308    11A     -1.095930    12A     -1.040604
      13A     -0.960626    14A     -0.868179    15A     -0.816442
      16A     -0.777100    17A     -0.701028    18A     -0.687774
      19A     -0.663619    20A     -0.632289    21A     -0.611242
      22A     -0.590184    23A     -0.566272    24A     -0.553912
      25A     -0.544095    26A     -0.511469    27A     -0.496767
      28A     -0.480298    29A     -0.469774    30A     -0.467530
      31A     -0.457481    32A     -0.443157

  @DF-RHF Final Energy:  -383.94381953468957

   => Energetics <=

    Nuclear Repulsion Energy =            375.7118119151808173
    One-Electron Energy =               -1267.4476568037916877
    Two-Electron Energy =                 507.7920253539211330
    DFT Exchange-Correlation Energy =       0.0000000000000000
    Empirical Dispersion Energy =           0.0000000000000000
    PCM Polarization Energy =               0.0000000000000000
    EFP Energy =                            0.0000000000000000
    Total Energy =                       -383.9438195346897942
    Molecular point group: c1
  Basis Set: 6-31G*
  Basis Set:

  -Total Gradient:
     Atom            X                  Y                   Z
    ------   -----------------  -----------------  -----------------
       1       -0.004730323604    -0.005467529709    -0.007035786951
       2        0.006138033813     0.008156448444     0.012839129395
       3       -0.002051806876    -0.005570250033    -0.014682225949
       4        0.000042641838     0.000065305323     0.000157054815
       5        0.000634743419     0.002846112960     0.008748900207
       6       -0.000012364963    -0.000027426641    -0.000044887778
       7        0.000001606214    -0.000004461407    -0.000005851503
       8       -0.000013371446    -0.000004460371    -0.000006186248
       9        0.000000235339    -0.000002310094     0.000022342777
      10        0.000005320502     0.000004052729     0.000003585774
      11        0.000000331671    -0.000001102019     0.000002560292
      12        0.000000178908     0.000003776890    -0.000001879342
      13       -0.000002406043    -0.000001937545     0.000002054454
      14       -0.000007918394    -0.000002176638     0.000003194104
      15        0.000000138555     0.000003917625    -0.000001293209
      16       -0.000002251069    -0.000001717655    -0.000003383842
      17       -0.000005022700     0.000004049129     0.000002259336
      18        0.000001047368     0.000000236137    -0.000000234993
      19        0.000000131488     0.000000171785     0.000000399584
      20        0.000001055962    -0.000000698912     0.000000249078

  **** Optimization is complete! (in 17 steps) ****
    Final optimized geometry and variables:
    Molecular point group: c1

    Geometry (in Angstrom), charge = 0, multiplicity = 1:

    H            3.631298154062    -1.101308780552    -0.322591761120
    O            2.851102353012    -1.125253816002     0.221169082377
    C            2.076393512693    -0.073217766604    -0.075706114721
    C            0.627170001121    -0.348349542342     0.232090195307
    O            2.524774296520     0.955821411743    -0.458764634836
    C           -0.264946910208     0.881706850125     0.081938230313
    H            0.316001206342    -1.158936526380    -0.419833381544
    H            0.582548766315    -0.748344947579     1.241645354227
    C           -1.723581269076     0.638176524945     0.483329271037
    H           -0.218960500818     1.235098322723    -0.943565774079
    H            0.142691931789     1.680308697709     0.692628821471
    C           -2.488700792730    -0.333100557391    -0.420107301653
    H           -2.239328235206     1.595633885283     0.477359836895
    H           -1.763090697471     0.281142766109     1.511450110375
    C           -3.962804920762    -0.455917582736    -0.034872402259
    H           -2.412217549571     0.002310469769    -1.452462384828
    H           -2.032094134946    -1.318807210811    -0.383589468282
    H           -4.483211410240    -1.150111086813    -0.687258683660
    H           -4.466837543005     0.503848524195    -0.102869601023
    H           -4.072693541501    -0.814576321059     0.984684401546

  Mulliken Charges: (a.u.)
   Center  Symbol    Alpha    Beta     Spin     Total
       1     H     0.26728  0.26728  0.00000  0.46544
       2     O     4.35532  4.35532  0.00000 -0.71065
       3     C     2.62501  2.62501  0.00000  0.74997
       4     C     3.21269  3.21269  0.00000 -0.42538
       5     O     4.27152  4.27152  0.00000 -0.54304
       6     C     3.15445  3.15445  0.00000 -0.30890
       7     H     0.39925  0.39925  0.00000  0.20150
       8     H     0.39811  0.39811  0.00000  0.20378
       9     C     3.15543  3.15543  0.00000 -0.31086
      10     H     0.41203  0.41203  0.00000  0.17594
      11     H     0.40861  0.40861  0.00000  0.18278
      12     C     3.15479  3.15479  0.00000 -0.30959
      13     H     0.41791  0.41791  0.00000  0.16419
      14     H     0.42345  0.42345  0.00000  0.15311
      15     C     3.23921  3.23921  0.00000 -0.47842
      16     H     0.42165  0.42165  0.00000  0.15670
      17     H     0.42303  0.42303  0.00000  0.15394
      18     H     0.41846  0.41846  0.00000  0.16308
      19     H     0.42059  0.42059  0.00000  0.15882
      20     H     0.42120  0.42120  0.00000  0.15759

   Total alpha = 32.00000, Total beta = 32.00000, Total charge =  0.00000
