  ==> Input File <==

--------------------------------------------------------------------------
set {
	reference rhf
	basis 6-31G*
}

set_num_threads( 4 )
memory 2 gb

molecule MOL {
0 1

H	 -2.694352	 -1.761941	 2.998776
C	 -2.573133	 -1.352857	 2.014592
C	 -1.389745	 -1.356421	 1.445750
H	 -3.434218	 -0.947485	 1.517483
O	 -1.180634	 -0.819263	 0.215062
H	 -0.516438	 -1.764004	 1.923670
C	 0.051604	 -1.018856	 -0.387932
C	 1.043764	 0.054862	 -0.001873
H	 -0.017620	 -1.041351	 -1.469781
H	 0.437898	 -1.966374	 -0.042284
F	 2.212596	 -0.199467	 -0.571921
F	 0.652529	 1.252447	 -0.405055
F	 1.230877	 0.110694	 1.300533

	symmetry c1
}
set optking {
	frozen_dihedral = ("
		3 5 7 9
	")
}

ee = optimize('scf')
oeprop('DIPOLE', 'QUADRUPOLE', 'MULLIKEN_CHARGES')
f=open( 'psi4out.xyz', 'w' )
f.write( "13  " )
f.write( str(ee) + "\n" )
f.write( MOL.save_string_xyz() )
f.close()
--------------------------------------------------------------------------

    Molecular point group: c1
  Charge       = 0
  Multiplicity = 1
  Basis Set: 6-31G*
  Basis Set:
  @DF-RHF Final Energy:  -527.53408154442423
    Total Energy =                       -527.5340815444246800
    Molecular point group: c1
  Basis Set: 6-31G*
  Basis Set:
  Basis Set: 6-31G*
  Basis Set:
  @DF-RHF Final Energy:  -527.53555221837883
    Total Energy =                       -527.5355522183789390
  Basis Set: 6-31G*
  Basis Set:
  Basis Set: 6-31G*
  Basis Set:
  @DF-RHF Final Energy:  -527.53580711056361
    Total Energy =                       -527.5358071105633826
  Basis Set: 6-31G*
  Basis Set:
  Basis Set: 6-31G*
  Basis Set:
  @DF-RHF Final Energy:  -527.53582125459184
    Total Energy =                       -527.5358212545917240
  Basis Set: 6-31G*
  Basis Set:
  @DF-RHF Final Energy:  -527.53582867473995
    Total Energy =                       -527.5358286747397187
  Basis Set: 6-31G*
  Basis Set:
  @DF-RHF Final Energy:  -527.53583489765106
    Total Energy =                       -527.5358348976510570
  Basis Set: 6-31G*
  Basis Set:
  Basis Set: 6-31G*
  Basis Set:
  @DF-RHF Final Energy:  -527.53584378711332
    Total Energy =                       -527.5358437871132082
  Basis Set: 6-31G*
  Basis Set:
  Basis Set: 6-31G*
  Basis Set:
  @DF-RHF Final Energy:  -527.53584915133774
    Total Energy =                       -527.5358491513372883
  Basis Set: 6-31G*
  Basis Set:
  Charge       = 0
  Multiplicity = 1
  Basis Set: 6-31G*
  Basis Set:

    Orbital Energies (a.u.)
    -----------------------

    Doubly Occupied:

       1A    -26.344530     2A    -26.343419     3A    -26.340384
       4A    -20.608501     5A    -11.503018     6A    -11.319052
       7A    -11.299958     8A    -11.215755     9A     -1.741555
      10A     -1.639729    11A     -1.638063    12A     -1.438510
      13A     -1.084737    14A     -1.016297    15A     -0.925212
      16A     -0.836600    17A     -0.830933    18A     -0.820171
      19A     -0.793066    20A     -0.722483    21A     -0.711359
      22A     -0.697176    23A     -0.675853    24A     -0.659936
      25A     -0.654443    26A     -0.642934    27A     -0.633050
      28A     -0.584646    29A     -0.563027    30A     -0.525130
      31A     -0.514606    32A     -0.351177

  @DF-RHF Final Energy:  -527.53585013546115

   => Energetics <=

    Nuclear Repulsion Energy =            412.7324839488259158
    One-Electron Energy =               -1549.1860468708684948
    Two-Electron Energy =                 608.9177127865818875
    DFT Exchange-Correlation Energy =       0.0000000000000000
    Empirical Dispersion Energy =           0.0000000000000000
    PCM Polarization Energy =               0.0000000000000000
    EFP Energy =                            0.0000000000000000
    Total Energy =                       -527.5358501354608052
    Molecular point group: c1
  Basis Set: 6-31G*
  Basis Set:

  -Total Gradient:
     Atom            X                  Y                   Z
    ------   -----------------  -----------------  -----------------
       1       -0.000000674904    -0.000004753844     0.000001903759
       2       -0.000019802989    -0.000006244804     0.000012240343
       3       -0.000202490704    -0.000495333294    -0.000285198327
       4        0.000005822725     0.000001737990     0.000001684699
       5        0.000263256423     0.000556067680     0.000379705952
       6       -0.000003979648    -0.000002445894     0.000003415035
       7       -0.000055928517     0.000630010151    -0.000113887290
       8       -0.000002677681    -0.000031357946     0.000107213825
       9       -0.000059902250    -0.000684001006     0.000018552423
      10        0.000038897472    -0.000006675153    -0.000021089979
      11        0.000010300756    -0.000013573830    -0.000006044565
      12       -0.000018940266     0.000041238919    -0.000031791757
      13        0.000046119582     0.000015331037    -0.000066704118

  **** Optimization is complete! (in 9 steps) ****
    Final optimized geometry and variables:
    Molecular point group: c1

    Geometry (in Angstrom), charge = 0, multiplicity = 1:

    H           -2.837416869482    -1.402366417706     2.580639808282
    C           -2.676830788513    -0.951878058780     1.620473240769
    C           -1.527661003881    -1.113908998143     1.006128405454
    H           -3.469495564804    -0.372113112714     1.186181284304
    O           -1.284216578276    -0.579599663286    -0.218856408179
    H           -0.719222992569    -1.684251760102     1.428171499612
    C           -0.021282409382    -0.738625706049    -0.768426079064
    C            0.884989995471     0.415252851909    -0.405853271625
    H           -0.124391641846    -0.762232623730    -1.843447753430
    H            0.457005063440    -1.656160432084    -0.445052343408
    F            2.071603531813     0.239572921897    -0.968794206865
    F            0.406635548248     1.570371331705    -0.819802811106
    F            1.068177070465     0.498864469753     0.901337511094

  Mulliken Charges: (a.u.)
   Center  Symbol    Alpha    Beta     Spin     Total
       1     H     0.40710  0.40710  0.00000  0.18581
       2     C     3.23624  3.23624  0.00000 -0.47247
       3     C     2.89483  2.89483  0.00000  0.21034
       4     H     0.40181  0.40181  0.00000  0.19639
       5     O     4.30188  4.30188  0.00000 -0.60376
       6     H     0.40659  0.40659  0.00000  0.18681
       7     C     3.06393  3.06393  0.00000 -0.12786
       8     C     2.45471  2.45471  0.00000  1.09058
       9     H     0.39016  0.39016  0.00000  0.21968
      10     H     0.40554  0.40554  0.00000  0.18892
      11     F     4.68290  4.68290  0.00000 -0.36579
      12     F     4.67460  4.67460  0.00000 -0.34921
      13     F     4.67971  4.67971  0.00000 -0.35943

   Total alpha = 32.00000, Total beta = 32.00000, Total charge = -0.00000
