  ==> Input File <==

--------------------------------------------------------------------------
set {
	reference rhf
	basis 6-31G*
}

set_num_threads( 1 )
memory 2 gb

molecule MOL {
0 1

H	 -0.000158	 1.970498	 0.756846
O	 -0.000074	 1.880206	 -0.189275
C	 -0.000015	 0.544847	 -0.545111
C	 -1.278788	 -0.123820	 -0.051541
C	 1.278802	 -0.123718	 -0.051505
H	 -0.000001	 0.490777	 -1.623619
F	 -0.982621	 -1.259503	 0.543483
F	 -1.934947	 0.627177	 0.807423
F	 -2.087467	 -0.396764	 -1.063043
F	 2.323327	 0.466644	 -0.591854
F	 1.326242	 -1.401483	 -0.363667
F	 1.388946	 -0.015632	 1.262939

	symmetry c1
}
set optking {
	frozen_dihedral = ("
		6 3 2 1
	")
}

ee = energy('scf')
oeprop('DIPOLE', 'QUADRUPOLE', 'MULLIKEN_CHARGES')
f=open( 'psi4out.xyz', 'w' )
f.write( "12  " )
f.write( str(ee) + "\n" )
f.write( MOL.save_string_xyz() )
f.close()
--------------------------------------------------------------------------

    Molecular point group: c1

    Geometry (in Angstrom), charge = 0, multiplicity = 1:

       Center              X                  Y                   Z               Mass
    ------------   -----------------  -----------------  -----------------  -----------------
           H         -0.003936017586     1.979346288003     0.759045323556     1.007825032070
           O         -0.003852017586     1.889054288003    -0.187075676444    15.994914619560
           C         -0.003793017586     0.553695288003    -0.542911676444    12.000000000000
           C         -1.282566017586    -0.114971711997    -0.049341676444    12.000000000000
           C          1.275023982414    -0.114869711997    -0.049305676444    12.000000000000
           H         -0.003779017586     0.499625288003    -1.621419676444     1.007825032070
           F         -0.986399017586    -1.250654711997     0.545682323556    18.998403224000
           F         -1.938725017586     0.636025288003     0.809622323556    18.998403224000
           F         -2.091245017586    -0.387915711997    -1.060843676444    18.998403224000
           F          2.319548982414     0.475492288003    -0.589654676444    18.998403224000
           F          1.322463982414    -1.392634711997    -0.361467676444    18.998403224000
           F          1.385167982414    -0.006783711997     1.265138323556    18.998403224000

  Charge       = 0
  Multiplicity = 1
  Basis Set: 6-31G*
  Basis Set:

    Orbital Energies (a.u.)
    -----------------------

    Doubly Occupied:

       1A    -26.365331     2A    -26.362541     3A    -26.359395
       4A    -26.358846     5A    -26.358638     6A    -26.357566
       7A    -20.613981     8A    -11.526175     9A    -11.524704
      10A    -11.347275    11A     -1.765575    12A     -1.757934
      13A     -1.662780    14A     -1.658036    15A     -1.657624
      16A     -1.653343    17A     -1.433481    18A     -1.101287
      19A     -0.997264    20A     -0.937244    21A     -0.866622
      22A     -0.859998    23A     -0.851331    24A     -0.845880
      25A     -0.835200    26A     -0.813314    27A     -0.734763
      28A     -0.731015    29A     -0.725833    30A     -0.723915
      31A     -0.687820    32A     -0.687094    33A     -0.681576
      34A     -0.677119    35A     -0.667023    36A     -0.661737
      37A     -0.655612    38A     -0.649356    39A     -0.619459
      40A     -0.548275    41A     -0.505517

  @DF-RHF Final Energy:  -786.27076184812040

   => Energetics <=

    Nuclear Repulsion Energy =            671.8070422330413294
    One-Electron Energy =               -2430.5007856738757255
    Two-Electron Energy =                 972.4229815927135405
    DFT Exchange-Correlation Energy =       0.0000000000000000
    Empirical Dispersion Energy =           0.0000000000000000
    PCM Polarization Energy =               0.0000000000000000
    EFP Energy =                            0.0000000000000000
    Total Energy =                       -786.2707618481208556

  Mulliken Charges: (a.u.)
   Center  Symbol    Alpha    Beta     Spin     Total
       1     H     0.26675  0.26675  0.00000  0.46650
       2     O     4.36097  4.36097  0.00000 -0.72194
       3     C     3.07678  3.07678  0.00000 -0.15356
       4     C     2.42492  2.42492  0.00000  1.15015
       5     C     2.43530  2.43530  0.00000  1.12939
       6     H     0.37027  0.37027  0.00000  0.25946
       7     F     4.67613  4.67613  0.00000 -0.35227
       8     F     4.67507  4.67507  0.00000 -0.35014
       9     F     4.67982  4.67982  0.00000 -0.35965
      10     F     4.67512  4.67512  0.00000 -0.35024
      11     F     4.67561  4.67561  0.00000 -0.35122
      12     F     4.68324  4.68324  0.00000 -0.36649

   Total alpha = 41.00000, Total beta = 41.00000, Total charge = -0.00000
