                              Psi4 1.0.54 Driver

  ==> Input File <==

--------------------------------------------------------------------------
set {
	reference rhf
	basis cc-pvtz
}

set_num_threads( 4 )
memory 2 gb

molecule MOL {
0 1

O	 0.623971	 1.347241	 -0.000777
C	 0.485107	 0.171416	 -0.000134
C	 1.606966	 -0.836201	 0.000174
O	 -0.695554	 -0.422406	 0.000602
C	 2.988788	 -0.202529	 -0.000115
H	 1.465110	 -1.474645	 -0.864821
H	 1.465209	 -1.474077	 0.865596
H	 3.131767	 0.419673	 -0.873407
H	 3.750876	 -0.972315	 0.000098
H	 3.131883	 0.420264	 0.872742
C	 -1.843727	 0.385340	 0.218621
C	 -3.056662	 -0.514156	 0.171904
H	 -1.887223	 1.150179	 -0.543924
H	 -1.751908	 0.878452	 1.176083
H	 -3.137611	 -1.003061	 -0.790796
H	 -3.953166	 0.072275	 0.335034
H	 -3.001577	 -1.276293	 0.939031

	symmetry c1
}
set optking {
	frozen_dihedral = ("
		11 4 2 3
	")
}

ee,wfn = optimize('scf', return_wfn=True)
oeprop( wfn, 'DIPOLE', 'QUADRUPOLE', 'MULLIKEN_CHARGES')
f=open( 'psi4out.xyz', 'w' )
f.write( "17  " )
f.write( str(ee) + "\n" )
f.write( MOL.save_string_xyz() )
f.close()
--------------------------------------------------------------------------

    Molecular point group: c1
  Charge       = 0
  Multiplicity = 1
  Basis Set: CC-PVTZ
  Basis Set:
  @DF-RHF Final Energy:  -345.04004011564689
    Total Energy =                       -345.0400401156468320
    Molecular point group: c1
  Basis Set: CC-PVTZ
  Basis Set:
  Basis Set: CC-PVTZ
  Basis Set:
  @DF-RHF Final Energy:  -345.03904634490129
    Total Energy =                       -345.0390463449012941
  Basis Set: CC-PVTZ
  Basis Set:
  Basis Set: CC-PVTZ
  Basis Set:
  @DF-RHF Final Energy:  -345.04010457190378
    Total Energy =                       -345.0401045719036119
  Basis Set: CC-PVTZ
  Basis Set:
  Basis Set: CC-PVTZ
  Basis Set:
  @DF-RHF Final Energy:  -345.04013752111206
    Total Energy =                       -345.0401375211117170
  Basis Set: CC-PVTZ
  Basis Set:
  Basis Set: CC-PVTZ
  Basis Set:
  @DF-RHF Final Energy:  -345.04015417538977
    Total Energy =                       -345.0401541753896026
  Basis Set: CC-PVTZ
  Basis Set:
  Basis Set: CC-PVTZ
  Basis Set:
  @DF-RHF Final Energy:  -345.04015969871921
    Total Energy =                       -345.0401596987193216
  Basis Set: CC-PVTZ
  Basis Set:
  Charge       = 0
  Multiplicity = 1
  Basis Set: CC-PVTZ
  Basis Set:

    Orbital Energies (a.u.)
    -----------------------

    Doubly Occupied:

       1A    -20.593090     2A    -20.533062     3A    -11.363579
       4A    -11.282773     5A    -11.235971     6A    -11.220408
       7A    -11.213926     8A     -1.470204     9A     -1.364941
      10A     -1.070833    11A     -1.032640    12A     -0.911788
      13A     -0.848018    14A     -0.774777    15A     -0.698209
      16A     -0.692016    17A     -0.667946    18A     -0.630316
      19A     -0.584531    20A     -0.574307    21A     -0.558422
      22A     -0.525000    23A     -0.520591    24A     -0.514807
      25A     -0.505638    26A     -0.493932    27A     -0.456032
      28A     -0.439144

  @DF-RHF Final Energy:  -345.04016010354212

   => Energetics <=

    Nuclear Repulsion Energy =            315.2019543991457340
    One-Electron Energy =               -1094.9304281808906580
    Two-Electron Energy =                 434.6883136782024621
    DFT Exchange-Correlation Energy =       0.0000000000000000
    Empirical Dispersion Energy =           0.0000000000000000
    PCM Polarization Energy =               0.0000000000000000
    EFP Energy =                            0.0000000000000000
    Total Energy =                       -345.0401601035424619
    Molecular point group: c1
  Basis Set: CC-PVTZ
  Basis Set:

  -Total Gradient:
     Atom            X                  Y                   Z
    ------   -----------------  -----------------  -----------------
       1        0.000043037750    -0.000011054111    -0.000009649650
       2        0.000224834032     0.000004450604    -0.001781230899
       3       -0.000066557937    -0.000109053049     0.002089354074
       4       -0.000298919163     0.000605831301    -0.002572786049
       5       -0.000018072468    -0.000000246885    -0.000005756822
       6       -0.000001261035     0.000005083819     0.000002974901
       7       -0.000010195396     0.000005686600    -0.000006259569
       8       -0.000002044069     0.000001898929     0.000002823482
       9       -0.000011300235     0.000001799315     0.000002740260
      10       -0.000001374920    -0.000000253831    -0.000002651727
      11        0.000123991002    -0.000480237012     0.002284698959
      12        0.000000467145    -0.000013786727    -0.000002427189
      13        0.000003942499    -0.000006187299     0.000003344892
      14        0.000013909030     0.000000711674     0.000000121810
      15       -0.000003888283    -0.000005152147    -0.000001282093
      16        0.000006869096     0.000000772806    -0.000001036478
      17       -0.000003437046    -0.000000263987    -0.000002977902

  **** Optimization is complete! (in 7 steps) ****
    Final optimized geometry and variables:
    Molecular point group: c1

    Geometry (in Angstrom), charge = 0, multiplicity = 1:

    O            0.625465036887     1.349934207035     0.068742763455
    C            0.484555115393     0.178396822343    -0.026874155986
    C            1.603609750857    -0.831837931884    -0.045418548627
    O           -0.697646387211    -0.409938132797    -0.094423925699
    C            2.985975802469    -0.202951990324    -0.113335021585
    H            1.430556496005    -1.503342421086    -0.878297682496
    H            1.490527180569    -1.434118026133     0.850029209385
    H            3.102356661283     0.385675280373    -1.013941483147
    H            3.746293531608    -0.974434586819    -0.109927353112
    H            3.157576258757     0.451454926861     0.730273043375
    C           -1.849826475544     0.390199235089     0.130668923610
    C           -3.058764789086    -0.513883952540     0.070630778829
    H           -1.897099163214     1.165243666349    -0.620906206756
    H           -1.760167038716     0.870307842509     1.095289171416
    H           -3.136036495120    -0.989755421739    -0.898859003580
    H           -3.958022625747     0.066489164080     0.240087402358
    H           -3.001582788258    -1.286321593431     0.827228047502

  Mulliken Charges: (a.u.)
   Center  Symbol    Alpha    Beta     Spin     Total
       1     O     4.19640  4.19640  0.00000 -0.39281
       2     C     2.80950  2.80950  0.00000  0.38100
       3     C     3.09285  3.09285  0.00000 -0.18570
       4     O     4.15156  4.15156  0.00000 -0.30312
       5     C     3.13999  3.13999  0.00000 -0.27998
       6     H     0.44042  0.44042  0.00000  0.11916
       7     H     0.44325  0.44325  0.00000  0.11350
       8     H     0.44972  0.44972  0.00000  0.10056
       9     H     0.45052  0.45052  0.00000  0.09896
      10     H     0.44697  0.44697  0.00000  0.10606
      11     C     2.98020  2.98020  0.00000  0.03960
      12     C     3.13310  3.13310  0.00000 -0.26620
      13     H     0.45239  0.45239  0.00000  0.09522
      14     H     0.45582  0.45582  0.00000  0.08837
      15     H     0.45100  0.45100  0.00000  0.09800
      16     H     0.45452  0.45452  0.00000  0.09096
      17     H     0.45179  0.45179  0.00000  0.09642

   Total alpha = 28.00000, Total beta = 28.00000, Total charge =  0.00000

*** Psi4 exiting successfully. Buy a developer a beer!
