  ==> Input File <==

--------------------------------------------------------------------------
set {
	reference rhf
	basis 6-31G*
}

set_num_threads( 4 )
memory 2 gb

molecule MOL {
0 1

O	 1.667502	 0.388415	 0.437748
C	 2.701189	 0.057885	 -0.047330
C	 3.449267	 0.808941	 -1.122077
O	 3.347903	 -1.046386	 0.304773
C	 2.749210	 2.096127	 -1.552413
H	 4.448299	 0.996484	 -0.742664
H	 3.573455	 0.131273	 -1.962934
C	 3.440977	 2.815812	 -2.715171
H	 2.671756	 2.764426	 -0.700066
H	 1.730719	 1.856734	 -1.838404
C	 4.827597	 3.379595	 -2.391840
H	 2.799299	 3.633711	 -3.034568
H	 3.515167	 2.140874	 -3.566619
C	 5.428065	 4.181867	 -3.548040
H	 4.758532	 4.015646	 -1.510654
H	 5.509279	 2.572467	 -2.133332
C	 6.815927	 4.745707	 -3.238116
H	 4.757598	 5.000417	 -3.804330
H	 5.487453	 3.549504	 -4.432511
C	 7.406862	 5.548735	 -4.396409
H	 6.758589	 5.377058	 -2.353950
H	 7.488642	 3.928612	 -2.985941
H	 8.390221	 5.934956	 -4.146517
H	 6.774084	 6.394576	 -4.650063
H	 7.509143	 4.935055	 -5.287032
C	 4.728119	 -1.109107	 -0.004993
H	 4.882018	 -1.033965	 -1.071845
H	 5.068212	 -2.067527	 0.355250
H	 5.265056	 -0.311663	 0.488280

	symmetry c1
}
set optking {
	frozen_dihedral = ("
		1 2 4 26
	")
}

ee = optimize('scf')
oeprop('DIPOLE', 'QUADRUPOLE', 'MULLIKEN_CHARGES')
f=open( 'psi4out.xyz', 'w' )
f.write( "29  " )
f.write( str(ee) + "\n" )
f.write( MOL.save_string_xyz() )
f.close()
--------------------------------------------------------------------------

    Molecular point group: c1
  Charge       = 0
  Multiplicity = 1
  Basis Set: 6-31G*
  Basis Set:
  @DF-RHF Final Energy:  -501.01750344526101
    Total Energy =                       -501.0175034452607861
    Molecular point group: c1
  Basis Set: 6-31G*
  Basis Set:
  Basis Set: 6-31G*
  Basis Set:
  @DF-RHF Final Energy:  -501.01615231591131
    Total Energy =                       -501.0161523159119952
  Basis Set: 6-31G*
  Basis Set:
  Basis Set: 6-31G*
  Basis Set:
  @DF-RHF Final Energy:  -501.02536631028840
    Total Energy =                       -501.0253663102888595
  Basis Set: 6-31G*
  Basis Set:
  Basis Set: 6-31G*
  Basis Set:
  @DF-RHF Final Energy:  -501.02743551020933
    Total Energy =                       -501.0274355102098980
  Basis Set: 6-31G*
  Basis Set:
  @DF-RHF Final Energy:  -501.02647091990741
    Total Energy =                       -501.0264709199083200
  @DF-RHF Final Energy:  -501.02796291411801
    Total Energy =                       -501.0279629141185751
  @DF-RHF Final Energy:  -501.02815605441288
    Total Energy =                       -501.0281560544128752
  Basis Set: 6-31G*
  Basis Set:
  @DF-RHF Final Energy:  -501.02815365036736
    Total Energy =                       -501.0281536503673578
  Basis Set: 6-31G*
  Basis Set:
  Basis Set: 6-31G*
  Basis Set:
  @DF-RHF Final Energy:  -501.02815849596459
    Total Energy =                       -501.0281584959643624
  Basis Set: 6-31G*
  Basis Set:
  Basis Set: 6-31G*
  Basis Set:
  @DF-RHF Final Energy:  -501.02816075186593
    Total Energy =                       -501.0281607518661531
  Basis Set: 6-31G*
  Basis Set:
  Charge       = 0
  Multiplicity = 1
  Basis Set: 6-31G*
  Basis Set:

    Orbital Energies (a.u.)
    -----------------------

    Doubly Occupied:

       1A    -20.600042     2A    -20.540521     3A    -11.373489
       4A    -11.296102     5A    -11.244506     6A    -11.223323
       7A    -11.221651     8A    -11.220571     9A    -11.219360
      10A    -11.218180    11A    -11.211917    12A     -1.461995
      13A     -1.364773    14A     -1.101857    15A     -1.068809
      16A     -1.014823    17A     -0.985160    18A     -0.945496
      19A     -0.870289    20A     -0.805943    21A     -0.795195
      22A     -0.762859    23A     -0.704284    24A     -0.686510
      25A     -0.673242    26A     -0.654619    27A     -0.633409
      28A     -0.609561    29A     -0.596468    30A     -0.589333
      31A     -0.571965    32A     -0.553265    33A     -0.546631
      34A     -0.536933    35A     -0.523164    36A     -0.509170
      37A     -0.498635    38A     -0.481876    39A     -0.474063
      40A     -0.466139    41A     -0.463095    42A     -0.449036
      43A     -0.441808    44A     -0.430551

  @DF-RHF Final Energy:  -501.02816077428906

   => Energetics <=

    Nuclear Repulsion Energy =            615.1575809740397744
    One-Electron Energy =               -1901.0902439741403214
    Two-Electron Energy =                 784.9045022258114841
    DFT Exchange-Correlation Energy =       0.0000000000000000
    Empirical Dispersion Energy =           0.0000000000000000
    PCM Polarization Energy =               0.0000000000000000
    EFP Energy =                            0.0000000000000000
    Total Energy =                       -501.0281607742890628
    Molecular point group: c1
  Basis Set: 6-31G*
  Basis Set:

  -Total Gradient:
     Atom            X                  Y                   Z
    ------   -----------------  -----------------  -----------------
       1        0.001052061112     0.001092315948     0.001547510159
       2       -0.001369922588    -0.001034195253    -0.001212467295
       3       -0.000006211770    -0.000008358943    -0.000026722077
       4       -0.000149284854    -0.000799030085    -0.002013448353
       5       -0.000000611471    -0.000000923596    -0.000010120737
       6        0.000005788446     0.000002176817    -0.000003234796
       7        0.000009643985     0.000005183528     0.000002191811
       8        0.000006802295    -0.000027073737     0.000000365000
       9        0.000007768604     0.000000619056     0.000000531155
      10       -0.000005662588     0.000009130084    -0.000001656415
      11       -0.000005998477     0.000019474478     0.000005419891
      12       -0.000008108353    -0.000011639711     0.000013318526
      13       -0.000000651301    -0.000002707230    -0.000002503576
      14        0.000003441025     0.000001142740     0.000001631963
      15        0.000000192609     0.000012427672     0.000003239132
      16       -0.000002814011     0.000004904140    -0.000000931832
      17        0.000005460481    -0.000008549987    -0.000004635237
      18        0.000003967435     0.000002663965     0.000005894051
      19       -0.000005959328     0.000000880943    -0.000001640414
      20        0.000002049655    -0.000001711018    -0.000000822247
      21       -0.000002354604    -0.000000321749    -0.000002444421
      22        0.000002369068     0.000000062623     0.000001731251
      23        0.000000149954     0.000000391878    -0.000000310093
      24       -0.000000610671    -0.000000173741     0.000000200311
      25        0.000000468294     0.000000361806     0.000000211966
      26        0.000445580125     0.000748219238     0.001707970718
      27       -0.000006153896     0.000007205482    -0.000006094508
      28        0.000015315022    -0.000009350821     0.000002051132
      29        0.000003285811    -0.000003124531    -0.000005235066

  **** Optimization is complete! (in 11 steps) ****
    Final optimized geometry and variables:
    Molecular point group: c1

    Geometry (in Angstrom), charge = 0, multiplicity = 1:

    O           -2.480244823321    -1.482965928726     2.088281795101
    C           -1.476676878746    -1.876201167767     1.599098938504
    C           -0.729674691903    -1.130852574067     0.509936735481
    O           -0.974534405530    -3.049489338252     2.000245889146
    C           -1.456478813013     0.138661931408     0.067680032258
    H            0.267775815178    -0.900653225898     0.870906812800
    H           -0.596879384739    -1.805589118568    -0.332726651701
    C           -0.777820167202     0.861020222508    -1.101043977704
    H           -1.548067230568     0.810215158778     0.914994197315
    H           -2.468941652500    -0.125337970745    -0.215700980783
    C            0.594049684438     1.462569128400    -0.782240274632
    H           -1.438477036119     1.659845693281    -1.429390779624
    H           -0.686386715583     0.180252047490    -1.946265041937
    C            1.173950069220     2.271052164813    -1.944645794307
    H            0.509036184197     2.103083536010     0.094198658896
    H            1.297217660236     0.675407161591    -0.518227954464
    C            2.548798460225     2.869112611359    -1.640944612164
    H            0.484039184180     3.071952763013    -2.204484062269
    H            1.246247258599     1.634747005405    -2.825321115468
    C            3.118561631093     3.678466248345    -2.805407582283
    H            2.478309686189     3.504426587460    -0.760625998861
    H            3.241143409229     2.069594086634    -1.385103321632
    H            4.093091098437     4.088963184204    -2.559865881106
    H            2.465771309226     4.507739900347    -3.062725330981
    H            3.233311177149     3.061925280881    -3.692514339331
    C            0.372890688110    -3.406254457923     1.802821146738
    H            0.619977344244    -3.495045598734     0.752460431828
    H            0.493678405016    -4.368941177037     2.274572499096
    H            1.041570857466    -2.696602103572     2.274715114106

  Mulliken Charges: (a.u.)
   Center  Symbol    Alpha    Beta     Spin     Total
       1     O     4.26560  4.26560  0.00000 -0.53119
       2     C     2.59857  2.59857  0.00000  0.80285
       3     C     3.23460  3.23460  0.00000 -0.46919
       4     O     4.30438  4.30438  0.00000 -0.60876
       5     C     3.15046  3.15046  0.00000 -0.30092
       6     H     0.40323  0.40323  0.00000  0.19354
       7     H     0.40371  0.40371  0.00000  0.19258
       8     C     3.15738  3.15738  0.00000 -0.31475
       9     H     0.40996  0.40996  0.00000  0.18007
      10     H     0.40632  0.40632  0.00000  0.18737
      11     C     3.15485  3.15485  0.00000 -0.30969
      12     H     0.41676  0.41676  0.00000  0.16647
      13     H     0.42431  0.42431  0.00000  0.15139
      14     C     3.15031  3.15031  0.00000 -0.30062
      15     H     0.42165  0.42165  0.00000  0.15670
      16     H     0.42654  0.42654  0.00000  0.14693
      17     C     3.15149  3.15149  0.00000 -0.30299
      18     H     0.42239  0.42239  0.00000  0.15523
      19     H     0.42402  0.42402  0.00000  0.15196
      20     C     3.23943  3.23943  0.00000 -0.47887
      21     H     0.42235  0.42235  0.00000  0.15530
      22     H     0.42429  0.42429  0.00000  0.15141
      23     H     0.41889  0.41889  0.00000  0.16221
      24     H     0.42101  0.42101  0.00000  0.15799
      25     H     0.42179  0.42179  0.00000  0.15643
      26     C     3.09387  3.09387  0.00000 -0.18775
      27     H     0.41763  0.41763  0.00000  0.16474
      28     H     0.39825  0.39825  0.00000  0.20349
      29     H     0.41597  0.41597  0.00000  0.16807

   Total alpha = 44.00000, Total beta = 44.00000, Total charge = -0.00000
