  ==> Input File <==

--------------------------------------------------------------------------
set {
	reference rhf
	basis 6-31G*
}

set_num_threads( 1 )
memory 2 gb

molecule MOL {
0 1

H	 2.166143	 1.081862	 1.081213
O	 1.292962	 0.705986	 1.136527
C	 1.050492	 0.053836	 0.000068
C	 -0.318135	 -0.576402	 0.000164
O	 1.845676	 0.001161	 -0.880787
C	 -1.454360	 0.441875	 -0.000474
H	 -0.374042	 -1.230163	 -0.866135
H	 -0.374274	 -1.229227	 0.867154
C	 -2.826123	 -0.230780	 0.000056
H	 -1.357605	 1.085198	 -0.868380
H	 -1.357504	 1.086451	 0.866496
H	 -2.959731	 -0.858053	 -0.876869
H	 -3.619374	 0.509403	 -0.000080
H	 -2.959371	 -0.857318	 0.877556

	symmetry c1
}
set optking {
	frozen_dihedral = ("
		7 4 6 10,
		1 2 3 5
	")
}

ee = energy('scf')
oeprop('DIPOLE', 'QUADRUPOLE', 'MULLIKEN_CHARGES')
f=open( 'psi4out.xyz', 'w' )
f.write( "14  " )
f.write( str(ee) + "\n" )
f.write( MOL.save_string_xyz() )
f.close()
--------------------------------------------------------------------------

    Molecular point group: c1

    Geometry (in Angstrom), charge = 0, multiplicity = 1:

       Center              X                  Y                   Z               Mass
    ------------   -----------------  -----------------  -----------------  -----------------
           H          2.203573123632     1.000569136038     1.022410295725     1.007825032070
           O          1.330392123632     0.624693136038     1.077724295725    15.994914619560
           C          1.087922123632    -0.027456863962    -0.058734704275    12.000000000000
           C         -0.280704876368    -0.657694863962    -0.058638704275    12.000000000000
           O          1.883106123632    -0.080131863962    -0.939589704275    15.994914619560
           C         -1.416929876368     0.360582136038    -0.059276704275    12.000000000000
           H         -0.336611876368    -1.311455863962    -0.924937704275     1.007825032070
           H         -0.336843876368    -1.310519863962     0.808351295725     1.007825032070
           C         -2.788692876368    -0.312072863962    -0.058746704275    12.000000000000
           H         -1.320174876368     1.003905136038    -0.927182704275     1.007825032070
           H         -1.320073876368     1.005158136038     0.807693295725     1.007825032070
           H         -2.922300876368    -0.939345863962    -0.935671704275     1.007825032070
           H         -3.581943876368     0.428110136038    -0.058882704275     1.007825032070
           H         -2.921940876368    -0.938610863962     0.818753295725     1.007825032070

  Charge       = 0
  Multiplicity = 1
  Basis Set: 6-31G*
  Basis Set:

    Orbital Energies (a.u.)
    -----------------------

    Doubly Occupied:

       1A    -20.613340     2A    -20.550734     3A    -11.380451
       4A    -11.239532     5A    -11.234654     6A    -11.221355
       7A     -1.474644     8A     -1.365062     9A     -1.087462
      10A     -0.979608    11A     -0.850875    12A     -0.812616
      13A     -0.701504    14A     -0.684881    15A     -0.644954
      16A     -0.631427    17A     -0.593797    18A     -0.566782
      19A     -0.549715    20A     -0.520340    21A     -0.501541
      22A     -0.487044    23A     -0.473944    24A     -0.437913

  @DF-RHF Final Energy:  -305.87911436161869

   => Energetics <=

    Nuclear Repulsion Energy =            240.4306288156397784
    One-Electron Energy =                -893.4111494008534464
    Two-Electron Energy =                 347.1014062235943811
    DFT Exchange-Correlation Energy =       0.0000000000000000
    Empirical Dispersion Energy =           0.0000000000000000
    PCM Polarization Energy =               0.0000000000000000
    EFP Energy =                            0.0000000000000000
    Total Energy =                       -305.8791143616192585

  Mulliken Charges: (a.u.)
   Center  Symbol    Alpha    Beta     Spin     Total
       1     H     0.26766  0.26766  0.00000  0.46468
       2     O     4.34678  4.34678  0.00000 -0.69356
       3     C     2.63310  2.63310  0.00000  0.73380
       4     C     3.19851  3.19851  0.00000 -0.39702
       5     O     4.27806  4.27806  0.00000 -0.55612
       6     C     3.16404  3.16404  0.00000 -0.32809
       7     H     0.39837  0.39837  0.00000  0.20327
       8     H     0.40294  0.40294  0.00000  0.19413
       9     C     3.24187  3.24187  0.00000 -0.48373
      10     H     0.41167  0.41167  0.00000  0.17666
      11     H     0.40621  0.40621  0.00000  0.18759
      12     H     0.41791  0.41791  0.00000  0.16418
      13     H     0.41441  0.41441  0.00000  0.17119
      14     H     0.41849  0.41849  0.00000  0.16302

   Total alpha = 24.00000, Total beta = 24.00000, Total charge =  0.00000
