  ==> Input File <==

--------------------------------------------------------------------------
set {
	reference rhf
	basis 6-31G*
}

set_num_threads( 4 )
memory 2 gb

molecule MOL {
0 1

H	 1.355365	 0.667995	 -2.567906
C	 0.624089	 0.460388	 -1.795208
C	 1.322923	 0.120767	 -0.479465
H	 -0.008175	 1.336858	 -1.693155
H	 0.004960	 -0.363005	 -2.137696
C	 0.306652	 -0.176050	 0.621399
H	 1.948980	 0.949355	 -0.164943
H	 1.964127	 -0.743591	 -0.605969
N	 -1.068537	 -0.011044	 0.085269
H	 0.372515	 -1.192590	 0.973735
H	 0.391664	 0.520566	 1.441230
O	 -1.656956	 -0.997225	 -0.235017
O	 -1.478635	 1.104830	 -0.018026

	symmetry c1
}
set optking {
	frozen_dihedral = ("
		7 3 6 9
	")
}

ee = optimize('scf')
oeprop('DIPOLE', 'QUADRUPOLE', 'MULLIKEN_CHARGES')
f=open( 'psi4out.xyz', 'w' )
f.write( "13  " )
f.write( str(ee) + "\n" )
f.write( MOL.save_string_xyz() )
f.close()
--------------------------------------------------------------------------

    Molecular point group: c1
  Charge       = 0
  Multiplicity = 1
  Basis Set: 6-31G*
  Basis Set:
  @DF-RHF Final Energy:  -321.72213021289315
    Total Energy =                       -321.7221302128929779
    Molecular point group: c1
  Basis Set: 6-31G*
  Basis Set:
  Basis Set: 6-31G*
  Basis Set:
  @DF-RHF Final Energy:  -321.72302157458159
    Total Energy =                       -321.7230215745811392
  Basis Set: 6-31G*
  Basis Set:
  Basis Set: 6-31G*
  Basis Set:
  @DF-RHF Final Energy:  -321.72579746085540
    Total Energy =                       -321.7257974608555742
  Basis Set: 6-31G*
  Basis Set:
  Basis Set: 6-31G*
  Basis Set:
  @DF-RHF Final Energy:  -321.72627753297780
    Total Energy =                       -321.7262775329776332
  Basis Set: 6-31G*
  Basis Set:
  @DF-RHF Final Energy:  -321.72751303182361
    Total Energy =                       -321.7275130318236052
  @DF-RHF Final Energy:  -321.72770829221304
    Total Energy =                       -321.7277082922130944
  @DF-RHF Final Energy:  -321.72775740767480
    Total Energy =                       -321.7277574076748010
  Basis Set: 6-31G*
  Basis Set:
  @DF-RHF Final Energy:  -321.72778594807625
    Total Energy =                       -321.7277859480762459
  Basis Set: 6-31G*
  Basis Set:
  Basis Set: 6-31G*
  Basis Set:
  @DF-RHF Final Energy:  -321.72780481936127
    Total Energy =                       -321.7278048193612108
  Basis Set: 6-31G*
  Basis Set:
  Basis Set: 6-31G*
  Basis Set:
  @DF-RHF Final Energy:  -321.72781457336993
    Total Energy =                       -321.7278145733699262
  Basis Set: 6-31G*
  Basis Set:
  Charge       = 0
  Multiplicity = 1
  Basis Set: 6-31G*
  Basis Set:

    Orbital Energies (a.u.)
    -----------------------

    Doubly Occupied:

       1A    -20.601056     2A    -20.600495     3A    -15.846571
       4A    -11.299231     5A    -11.258416     6A    -11.229440
       7A     -1.630649     8A     -1.415899     9A     -1.129154
      10A     -1.022568    11A     -0.895825    12A     -0.820346
      13A     -0.750520    14A     -0.733545    15A     -0.725948
      16A     -0.667074    17A     -0.604953    18A     -0.589713
      19A     -0.537605    20A     -0.518230    21A     -0.510876
      22A     -0.478157    23A     -0.474393    24A     -0.447979

  @DF-RHF Final Energy:  -321.72781689212798

   => Energetics <=

    Nuclear Repulsion Energy =            254.3530495093953334
    One-Electron Energy =                -942.5844442484147976
    Two-Electron Energy =                 366.5035778468915169
    DFT Exchange-Correlation Energy =       0.0000000000000000
    Empirical Dispersion Energy =           0.0000000000000000
    PCM Polarization Energy =               0.0000000000000000
    EFP Energy =                            0.0000000000000000
    Total Energy =                       -321.7278168921279757
    Molecular point group: c1
  Basis Set: 6-31G*
  Basis Set:

  -Total Gradient:
     Atom            X                  Y                   Z
    ------   -----------------  -----------------  -----------------
       1       -0.000000370120    -0.000002253353     0.000009129494
       2       -0.000028824071     0.000002232377    -0.000018029394
       3       -0.000775369124     0.000539549601    -0.000562758400
       4        0.000018689392    -0.000010672125    -0.000006745449
       5       -0.000002489712    -0.000002393543    -0.000019483306
       6        0.000179864012     0.000783530943     0.000385910221
       7        0.000639062440    -0.000636806294     0.000412895217
       8        0.000003906461    -0.000003985317     0.000005312604
       9        0.000002916474    -0.000634426688    -0.000163299573
      10        0.000014980153    -0.000001191403    -0.000002502308
      11       -0.000018589392     0.000003685057    -0.000017236748
      12       -0.000020301530    -0.000026552954    -0.000017137399
      13       -0.000013474980    -0.000010716302    -0.000006054961

  **** Optimization is complete! (in 11 steps) ****
    Final optimized geometry and variables:
    Molecular point group: c1

    Geometry (in Angstrom), charge = 0, multiplicity = 1:

    H            1.882765370187     0.551638186065    -2.334620147499
    C            1.080662438588     0.370378458344    -1.628231123255
    C            1.681354162541     0.051719512402    -0.256709239157
    H            0.457583608702     1.255876835928    -1.595123295230
    H            0.483573310630    -0.452243910018    -2.003083811492
    C            0.677017291883    -0.251309573529     0.886287301250
    H            2.307136081066     0.876999215461     0.060896614515
    H            2.333486747963    -0.808593030181    -0.350548318605
    N           -0.735004778661    -0.098533307502     0.450752640249
    H            0.755942058125    -1.269736583543     1.227852306830
    H            0.793483176554     0.429663699822     1.712749575917
    O           -1.282984487641    -1.065481582959     0.017864968596
    O           -1.221598145017     0.986840168708     0.543530464715

  Mulliken Charges: (a.u.)
   Center  Symbol    Alpha    Beta     Spin     Total
       1     H     0.41071  0.41071  0.00000  0.17858
       2     C     3.25679  3.25679  0.00000 -0.51358
       3     C     3.17143  3.17143  0.00000 -0.34287
       4     H     0.40285  0.40285  0.00000  0.19431
       5     H     0.40340  0.40340  0.00000  0.19321
       6     C     3.08398  3.08398  0.00000 -0.16796
       7     H     0.40539  0.40539  0.00000  0.18921
       8     H     0.40595  0.40595  0.00000  0.18810
       9     N     3.23198  3.23198  0.00000  0.53604
      10     H     0.38665  0.38665  0.00000  0.22670
      11     H     0.38637  0.38637  0.00000  0.22726
      12     O     4.22679  4.22679  0.00000 -0.45359
      13     O     4.22770  4.22770  0.00000 -0.45541

   Total alpha = 24.00000, Total beta = 24.00000, Total charge = -0.00000
