                              Psi4 1.0.54 Driver

  ==> Input File <==

--------------------------------------------------------------------------
set {
	reference rhf
	basis cc-pvtz
}

set_num_threads( 4 )
memory 2 gb

molecule MOL {
0 1

H	 2.190573	 -0.629143	 -0.208718
O	 1.355408	 -0.529451	 0.208662
C	 0.700177	 0.619554	 -0.266242
C	 -0.713111	 0.588314	 0.266177
H	 0.678680	 0.627133	 -1.351786
H	 1.199747	 1.521489	 0.077736
O	 -1.421673	 -0.521378	 -0.196983
H	 -1.244794	 1.469161	 -0.069059
H	 -0.685100	 0.604721	 1.352683
H	 -0.914965	 -0.940114	 -0.870727

	symmetry c1
}
set optking {
	frozen_dihedral = ("
		10 7 4 3
	")
}

ee,wfn = optimize('scf', return_wfn=True)
oeprop( wfn, 'DIPOLE', 'QUADRUPOLE', 'MULLIKEN_CHARGES')
f=open( 'psi4out.xyz', 'w' )
f.write( "10  " )
f.write( str(ee) + "\n" )
f.write( MOL.save_string_xyz() )
f.close()
--------------------------------------------------------------------------

    Molecular point group: c1
  Charge       = 0
  Multiplicity = 1
  Basis Set: CC-PVTZ
  Basis Set:
  @DF-RHF Final Energy:  -229.02223944813829
    Total Energy =                       -229.0222394481383219
    Molecular point group: c1
  Basis Set: CC-PVTZ
  Basis Set:
  Basis Set: CC-PVTZ
  Basis Set:
  @DF-RHF Final Energy:  -229.02319110869445
    Total Energy =                       -229.0231911086944194
  Basis Set: CC-PVTZ
  Basis Set:
  Basis Set: CC-PVTZ
  Basis Set:
  @DF-RHF Final Energy:  -229.02345722069430
    Total Energy =                       -229.0234572206943540
  Basis Set: CC-PVTZ
  Basis Set:
  Basis Set: CC-PVTZ
  Basis Set:
  @DF-RHF Final Energy:  -229.02346613341206
    Total Energy =                       -229.0234661334120290
  Basis Set: CC-PVTZ
  Basis Set:
  Charge       = 0
  Multiplicity = 1
  Basis Set: CC-PVTZ
  Basis Set:

    Orbital Energies (a.u.)
    -----------------------

    Doubly Occupied:

       1A    -20.560395     2A    -20.541926     3A    -11.280145
       4A    -11.267762     5A     -1.385354     6A     -1.355889
       7A     -1.006341     8A     -0.850701     9A     -0.725227
      10A     -0.674237    11A     -0.665235    12A     -0.602424
      13A     -0.576406    14A     -0.553962    15A     -0.473975
      16A     -0.457272    17A     -0.439957

  @DF-RHF Final Energy:  -229.02346688995584

   => Energetics <=

    Nuclear Repulsion Energy =            134.1448056736392118
    One-Electron Energy =                -579.5021284365527663
    Two-Electron Energy =                 216.3338558729577130
    DFT Exchange-Correlation Energy =       0.0000000000000000
    Empirical Dispersion Energy =           0.0000000000000000
    PCM Polarization Energy =               0.0000000000000000
    EFP Energy =                            0.0000000000000000
    Total Energy =                       -229.0234668899558415
    Molecular point group: c1
  Basis Set: CC-PVTZ
  Basis Set:

  -Total Gradient:
     Atom            X                  Y                   Z
    ------   -----------------  -----------------  -----------------
       1        0.000017577497    -0.000021512399     0.000007472471
       2        0.000046360363     0.000039003992    -0.000023252479
       3        0.000246209039    -0.000612224421     0.000921936797
       4       -0.000667747843     0.000990412178    -0.001685430955
       5        0.000005349602    -0.000003026529     0.000016846113
       6        0.000029134984     0.000013690277     0.000023733661
       7        0.001079064991    -0.001364389117     0.002051944849
       8       -0.000020222449     0.000020995048    -0.000005190680
       9       -0.000003449782    -0.000017882555    -0.000006365840
      10       -0.000732276404     0.000954933525    -0.001301693936

  **** Optimization is complete! (in 5 steps) ****
    Final optimized geometry and variables:
    Molecular point group: c1

    Geometry (in Angstrom), charge = 0, multiplicity = 1:

    H            2.247611787868    -0.573146905466    -0.120015992502
    O            1.364194478832    -0.550842089531     0.198451765758
    C            0.712396283461     0.600852942465    -0.258802452807
    C           -0.709589864826     0.602083898207     0.252506844365
    H            0.708841902091     0.630130254021    -1.347858457198
    H            1.206865955680     1.501905021965     0.094414145721
    O           -1.447621512121    -0.520500181994    -0.135698914333
    H           -1.197772729430     1.504771544190    -0.104212331887
    H           -0.696883428680     0.634384938185     1.335563055860
    H           -0.978031473616    -1.018228429027    -0.778862979553

  Mulliken Charges: (a.u.)
   Center  Symbol    Alpha    Beta     Spin     Total
       1     H     0.39295  0.39295  0.00000  0.21410
       2     O     4.19687  4.19687  0.00000 -0.39374
       3     C     2.98576  2.98576  0.00000  0.02848
       4     C     2.94589  2.94589  0.00000  0.10822
       5     H     0.47238  0.47238  0.00000  0.05524
       6     H     0.46786  0.46786  0.00000  0.06428
       7     O     4.20515  4.20515  0.00000 -0.41031
       8     H     0.47545  0.47545  0.00000  0.04909
       9     H     0.46824  0.46824  0.00000  0.06353
      10     H     0.38944  0.38944  0.00000  0.22112

   Total alpha = 17.00000, Total beta = 17.00000, Total charge = -0.00000

*** Psi4 exiting successfully. Buy a developer a beer!
