  ==> Input File <==

--------------------------------------------------------------------------
set {
	reference rhf
	basis 6-31G*
}

set_num_threads( 4 )
memory 2 gb

molecule MOL {
0 1

H	 0.557617	 2.422897	 1.142909
C	 0.962241	 1.515569	 0.677357
C	 0.065331	 0.871482	 -0.349150
O	 2.035413	 1.112193	 0.989302
C	 -1.339775	 0.583656	 0.198860
H	 0.545705	 -0.033307	 -0.703427
H	 -0.011198	 1.561418	 -1.188371
C	 -1.808407	 -0.848507	 -0.061364
H	 -2.036183	 1.280685	 -0.256307
H	 -1.360094	 0.788874	 1.267089
H	 -1.828843	 -1.063152	 -1.125336
H	 -2.808409	 -1.004529	 0.329750
H	 -1.153967	 -1.577789	 0.406873

	symmetry c1
}
set optking {
	frozen_dihedral = ("
		6 3 5 9
	")
}

ee = optimize('scf')
oeprop('DIPOLE', 'QUADRUPOLE', 'MULLIKEN_CHARGES')
f=open( 'psi4out.xyz', 'w' )
f.write( "13  " )
f.write( str(ee) + "\n" )
f.write( MOL.save_string_xyz() )
f.close()
--------------------------------------------------------------------------

    Molecular point group: c1
  Charge       = 0
  Multiplicity = 1
  Basis Set: 6-31G*
  Basis Set:
  @DF-RHF Final Energy:  -230.97978531127819
    Total Energy =                       -230.9797853112780217
    Molecular point group: c1
  Basis Set: 6-31G*
  Basis Set:
  Basis Set: 6-31G*
  Basis Set:
  @DF-RHF Final Energy:  -230.97960918866980
    Total Energy =                       -230.9796091886696274
  Basis Set: 6-31G*
  Basis Set:
  Basis Set: 6-31G*
  Basis Set:
  @DF-RHF Final Energy:  -230.97621763342354
    Total Energy =                       -230.9762176334235164
  Basis Set: 6-31G*
  Basis Set:
  Basis Set: 6-31G*
  Basis Set:
  @DF-RHF Final Energy:  -230.98013472341276
    Total Energy =                       -230.9801347234127320
  Basis Set: 6-31G*
  Basis Set:
  Basis Set: 6-31G*
  Basis Set:
  @DF-RHF Final Energy:  -230.98017491876948
    Total Energy =                       -230.9801749187696487
  Basis Set: 6-31G*
  Basis Set:
  Basis Set: 6-31G*
  Basis Set:
  @DF-RHF Final Energy:  -230.98017962346427
    Total Energy =                       -230.9801796234642666
  Basis Set: 6-31G*
  Basis Set:
  Basis Set: 6-31G*
  Basis Set:
  @DF-RHF Final Energy:  -230.98018219177928
    Total Energy =                       -230.9801821917793632
  Basis Set: 6-31G*
  Basis Set:
  Charge       = 0
  Multiplicity = 1
  Basis Set: 6-31G*
  Basis Set:

    Orbital Energies (a.u.)
    -----------------------

    Doubly Occupied:

       1A    -20.562484     2A    -11.327403     3A    -11.239025
       4A    -11.235578     5A    -11.222717     6A     -1.402732
       7A     -1.083848     8A     -0.975840     9A     -0.840047
      10A     -0.795679    11A     -0.670156    12A     -0.643743
      13A     -0.632867    14A     -0.585217    15A     -0.557571
      16A     -0.538077    17A     -0.503520    18A     -0.495010
      19A     -0.479154    20A     -0.410946

  @DF-RHF Final Energy:  -230.98018268270980

   => Energetics <=

    Nuclear Repulsion Energy =            170.7106111570601286
    One-Electron Energy =                -650.9783565116873660
    Two-Electron Energy =                 249.2875626719172999
    DFT Exchange-Correlation Energy =       0.0000000000000000
    Empirical Dispersion Energy =           0.0000000000000000
    PCM Polarization Energy =               0.0000000000000000
    EFP Energy =                            0.0000000000000000
    Total Energy =                       -230.9801826827099092
    Molecular point group: c1
  Basis Set: 6-31G*
  Basis Set:

  -Total Gradient:
     Atom            X                  Y                   Z
    ------   -----------------  -----------------  -----------------
       1        0.000003638782     0.000012927872    -0.000019467778
       2        0.000015376635     0.000017773881    -0.000013257801
       3        0.000759964855    -0.000582092425     0.001664067666
       4       -0.000013933038    -0.000028447237     0.000026512618
       5        0.000134960516     0.001393883642     0.001142177866
       6       -0.000635021700     0.000255736326    -0.001571511940
       7       -0.000022129649     0.000012251383     0.000018474379
       8        0.000009429458     0.000003661234     0.000000376916
       9       -0.000263236630    -0.001092428356    -0.001247322134
      10        0.000009492770     0.000005505789    -0.000002982840
      11        0.000001792432     0.000000832075     0.000002197641
      12        0.000001254440     0.000001910502    -0.000001810151
      13       -0.000001588877    -0.000001514687     0.000002545556

  **** Optimization is complete! (in 8 steps) ****
    Final optimized geometry and variables:
    Molecular point group: c1

    Geometry (in Angstrom), charge = 0, multiplicity = 1:

    H            0.546951098344     1.739799919123     0.908119635914
    C            0.978658893950     0.874265355832     0.391280773703
    C            0.078306270411     0.217558677589    -0.623491052276
    O            2.083505164012     0.517805209886     0.643635443958
    C           -1.345659529151    -0.054756123579    -0.081781626875
    H            0.559745814452    -0.690875351140    -0.965130914877
    H            0.026133430190     0.885377555228    -1.481333116905
    C           -1.809430290715    -1.487333597328    -0.347797598084
    H           -2.051244832832     0.632176068328    -0.537104364777
    H           -1.383105549794     0.133505237830     0.988439962303
    H           -1.817748767273    -1.703827919379    -1.411817012869
    H           -2.813448305467    -1.647084946435     0.031739679286
    H           -1.152010972800    -2.205778603381     0.131938804798

  Mulliken Charges: (a.u.)
   Center  Symbol    Alpha    Beta     Spin     Total
       1     H     0.43145  0.43145  0.00000  0.13710
       2     C     2.83247  2.83247  0.00000  0.33506
       3     C     3.21122  3.21122  0.00000 -0.42244
       4     O     4.23755  4.23755  0.00000 -0.47510
       5     C     3.16605  3.16605  0.00000 -0.33209
       6     H     0.39692  0.39692  0.00000  0.20616
       7     H     0.40492  0.40492  0.00000  0.19016
       8     C     3.24027  3.24027  0.00000 -0.48054
       9     H     0.41387  0.41387  0.00000  0.17227
      10     H     0.41523  0.41523  0.00000  0.16955
      11     H     0.41810  0.41810  0.00000  0.16379
      12     H     0.41635  0.41635  0.00000  0.16730
      13     H     0.41561  0.41561  0.00000  0.16879

   Total alpha = 20.00000, Total beta = 20.00000, Total charge = -0.00000
