  ==> Input File <==

--------------------------------------------------------------------------
set {
	reference rhf
	basis 6-31G*
}

set_num_threads( 4 )
memory 2 gb

molecule MOL {
0 1

O	 1.030418	 -0.195564	 -0.579929
C	 0.028650	 0.075053	 -0.000277
C	 -1.233602	 -0.752807	 0.000328
O	 -0.111967	 1.167797	 0.738668
C	 -2.501530	 0.091881	 0.000126
H	 -1.193807	 -1.406641	 -0.865785
H	 -1.193516	 -1.405779	 0.867015
H	 -2.545121	 0.729328	 -0.874513
H	 -3.377167	 -0.548497	 0.000561
H	 -2.544818	 0.730135	 0.874258
C	 1.004167	 2.035535	 0.821515
H	 1.852194	 1.523324	 1.252680
H	 0.697082	 2.851286	 1.457214
H	 1.272208	 2.404332	 -0.158084

	symmetry c1
}
set optking {
	frozen_dihedral = ("
		4 2 3 6
	")
}

ee = optimize('scf')
oeprop('DIPOLE', 'QUADRUPOLE', 'MULLIKEN_CHARGES')
f=open( 'psi4out.xyz', 'w' )
f.write( "14  " )
f.write( str(ee) + "\n" )
f.write( MOL.save_string_xyz() )
f.close()
--------------------------------------------------------------------------

    Molecular point group: c1
  Charge       = 0
  Multiplicity = 1
  Basis Set: 6-31G*
  Basis Set:
  @DF-RHF Final Energy:  -305.86961871587812
    Total Energy =                       -305.8696187158782323
    Molecular point group: c1
  Basis Set: 6-31G*
  Basis Set:
  Basis Set: 6-31G*
  Basis Set:
  @DF-RHF Final Energy:  -305.86977220050153
    Total Energy =                       -305.8697722005016431
  Basis Set: 6-31G*
  Basis Set:
  Basis Set: 6-31G*
  Basis Set:
  @DF-RHF Final Energy:  -305.87012833545936
    Total Energy =                       -305.8701283354594693
  Basis Set: 6-31G*
  Basis Set:
  Basis Set: 6-31G*
  Basis Set:
  @DF-RHF Final Energy:  -305.87020085070833
    Total Energy =                       -305.8702008507085566
  Basis Set: 6-31G*
  Basis Set:
  Basis Set: 6-31G*
  Basis Set:
  @DF-RHF Final Energy:  -305.87020146496070
    Total Energy =                       -305.8702014649607008
  Basis Set: 6-31G*
  Basis Set:
  Charge       = 0
  Multiplicity = 1
  Basis Set: 6-31G*
  Basis Set:

    Orbital Energies (a.u.)
    -----------------------

    Doubly Occupied:

       1A    -20.606237     2A    -20.543424     3A    -11.372631
       4A    -11.282031     5A    -11.238667     6A    -11.222650
       7A     -1.470591     8A     -1.362255     9A     -1.066706
      10A     -0.975071    11A     -0.886749    12A     -0.774928
      13A     -0.695555    14A     -0.681165    15A     -0.672458
      16A     -0.621146    17A     -0.586277    18A     -0.563897
      19A     -0.545666    20A     -0.521182    21A     -0.515237
      22A     -0.499141    23A     -0.455849    24A     -0.433976

  @DF-RHF Final Energy:  -305.87020289460600

   => Energetics <=

    Nuclear Repulsion Energy =            248.4150353128707422
    One-Electron Energy =                -909.3835025713869982
    Two-Electron Energy =                 355.0982643639106868
    DFT Exchange-Correlation Energy =       0.0000000000000000
    Empirical Dispersion Energy =           0.0000000000000000
    PCM Polarization Energy =               0.0000000000000000
    EFP Energy =                            0.0000000000000000
    Total Energy =                       -305.8702028946055975
    Molecular point group: c1
  Basis Set: 6-31G*
  Basis Set:

  -Total Gradient:
     Atom            X                  Y                   Z
    ------   -----------------  -----------------  -----------------
       1       -0.000004726798    -0.000005194160     0.000002529908
       2        0.000256229247    -0.000401193254     0.000596499764
       3        0.000375721901    -0.000533328255     0.000351778870
       4       -0.000227179956     0.000376325346    -0.000503476034
       5       -0.000002618938    -0.000004820606     0.000001210765
       6       -0.000356292248     0.000552656709    -0.000436321641
       7        0.000008336751    -0.000003669728    -0.000004418667
       8       -0.000009316267     0.000002752938     0.000005458702
       9       -0.000014416591     0.000010574371     0.000001180763
      10       -0.000007483765     0.000005066433    -0.000004706344
      11       -0.000019664629    -0.000000217186    -0.000020420239
      12       -0.000003900062    -0.000004228687     0.000001652394
      13       -0.000002930373    -0.000000837962     0.000004653657
      14        0.000008241726     0.000006114039     0.000004378101

  **** Optimization is complete! (in 6 steps) ****
    Final optimized geometry and variables:
    Molecular point group: c1

    Geometry (in Angstrom), charge = 0, multiplicity = 1:

    O            1.305608058873    -0.635455165710    -0.734808577477
    C            0.303275779831    -0.334755028994    -0.169967174562
    C           -0.955827647165    -1.170639599642    -0.173659315182
    O            0.185981929579     0.766451750609     0.558525950939
    C           -2.262009259182    -0.376310376671    -0.171241555355
    H           -0.893158467917    -1.816266682192    -1.039887017456
    H           -0.907877441391    -1.809363198140     0.704932708782
    H           -2.324328316851     0.280267893406    -1.032736988662
    H           -3.106228983461    -1.056163405496    -0.209998497225
    H           -2.353973371992     0.230454096039     0.719949786307
    C            1.327514806868     1.600013952719     0.650252276539
    H            2.151305568911     1.066136036076     1.101496811863
    H            1.035479585670     2.432565429529     1.271086091636
    H            1.622854531260     1.947406071440    -0.329106537176

  Mulliken Charges: (a.u.)
   Center  Symbol    Alpha    Beta     Spin     Total
       1     O     4.28708  4.28708  0.00000 -0.57416
       2     C     2.60973  2.60973  0.00000  0.78053
       3     C     3.20401  3.20401  0.00000 -0.40801
       4     O     4.30268  4.30268  0.00000 -0.60536
       5     C     3.24332  3.24332  0.00000 -0.48665
       6     H     0.39711  0.39711  0.00000  0.20578
       7     H     0.40081  0.40081  0.00000  0.19837
       8     H     0.41526  0.41526  0.00000  0.16947
       9     H     0.41521  0.41521  0.00000  0.16958
      10     H     0.40695  0.40695  0.00000  0.18611
      11     C     3.09245  3.09245  0.00000 -0.18490
      12     H     0.40856  0.40856  0.00000  0.18288
      13     H     0.40866  0.40866  0.00000  0.18269
      14     H     0.40816  0.40816  0.00000  0.18367

   Total alpha = 24.00000, Total beta = 24.00000, Total charge = -0.00000
