  ==> Input File <==

--------------------------------------------------------------------------
set {
	reference rhf
	basis cc-pvtz
}

set_num_threads( 4 )
memory 2 gb

molecule MOL {
0 1

O	 -0.694481	 1.313155	 -0.204815
C	 -0.862519	 0.151932	 -0.046791
C	 -2.171428	 -0.477048	 0.339095
O	 0.085519	 -0.757083	 -0.192238
H	 -2.467997	 -1.191667	 -0.417688
H	 -2.923379	 0.287970	 0.444097
H	 -2.053854	 -1.015120	 1.270901
C	 -0.238647	 -2.125303	 0.025412
C	 -0.818341	 -2.767993	 -1.217490
H	 -0.921806	 -2.200782	 0.856924
H	 0.698117	 -2.588582	 0.296698
H	 -0.989892	 -3.822778	 -1.034596
H	 -1.761686	 -2.311693	 -1.484459
H	 -0.133593	 -2.674069	 -2.051692

	symmetry c1
}
set optking {
	frozen_dihedral = ("
		8 4 2 1
	")
}

ee = optimize('scf')
oeprop('DIPOLE', 'QUADRUPOLE', 'MULLIKEN_CHARGES')
f=open( 'psi4out.xyz', 'w' )
f.write( "14  " )
f.write( str(ee) + "\n" )
f.write( MOL.save_string_xyz() )
f.close()
--------------------------------------------------------------------------

    Molecular point group: c1
  Charge       = 0
  Multiplicity = 1
  Basis Set: CC-PVTZ
  Basis Set:
  @DF-RHF Final Energy:  -305.95907667038233
    Total Energy =                       -305.9590766703825579
    Molecular point group: c1
  Basis Set: CC-PVTZ
  Basis Set:
  Basis Set: CC-PVTZ
  Basis Set:
  @DF-RHF Final Energy:  -305.97082421114521
    Total Energy =                       -305.9708242111449863
  Basis Set: CC-PVTZ
  Basis Set:
  Basis Set: CC-PVTZ
  Basis Set:
  @DF-RHF Final Energy:  -305.97374631698585
    Total Energy =                       -305.9737463169857392
  Basis Set: CC-PVTZ
  Basis Set:
  Basis Set: CC-PVTZ
  Basis Set:
  @DF-RHF Final Energy:  -305.97485263291406
    Total Energy =                       -305.9748526329142919
  Basis Set: CC-PVTZ
  Basis Set:
  @DF-RHF Final Energy:  -305.97547307710647
    Total Energy =                       -305.9754730771064715
  @DF-RHF Final Energy:  -305.97587089175295
    Total Energy =                       -305.9758708917530612
  @DF-RHF Final Energy:  -305.97647523014518
    Total Energy =                       -305.9764752301451836
  Basis Set: CC-PVTZ
  Basis Set:
  @DF-RHF Final Energy:  -305.97657828850959
    Total Energy =                       -305.9765782885092449
  Basis Set: CC-PVTZ
  Basis Set:
  Basis Set: CC-PVTZ
  Basis Set:
  @DF-RHF Final Energy:  -305.97657306597853
    Total Energy =                       -305.9765730659786414
  Basis Set: CC-PVTZ
  Basis Set:
  Basis Set: CC-PVTZ
  Basis Set:
  @DF-RHF Final Energy:  -305.97659576208650
    Total Energy =                       -305.9765957620867312
  Basis Set: CC-PVTZ
  Basis Set:
  Charge       = 0
  Multiplicity = 1
  Basis Set: CC-PVTZ
  Basis Set:

    Orbital Energies (a.u.)
    -----------------------

    Doubly Occupied:

       1A    -20.593403     2A    -20.525680     3A    -11.369093
       4A    -11.298195     5A    -11.241362     6A    -11.230516
       7A     -1.465432     8A     -1.366277     9A     -1.051305
      10A     -1.018773    11A     -0.898562    12A     -0.777853
      13A     -0.702008    14A     -0.690097    15A     -0.662783
      16A     -0.619447    17A     -0.595946    18A     -0.584691
      19A     -0.558855    20A     -0.541567    21A     -0.531609
      22A     -0.501672    23A     -0.445950    24A     -0.436498

  @DF-RHF Final Energy:  -305.97659632435506

   => Energetics <=

    Nuclear Repulsion Energy =            247.8512555256605197
    One-Electron Energy =                -908.2405592902699709
    Two-Electron Energy =                 354.4127074402546214
    DFT Exchange-Correlation Energy =       0.0000000000000000
    Empirical Dispersion Energy =           0.0000000000000000
    PCM Polarization Energy =               0.0000000000000000
    EFP Energy =                            0.0000000000000000
    Total Energy =                       -305.9765963243547731
    Molecular point group: c1
  Basis Set: CC-PVTZ
  Basis Set:

  -Total Gradient:
     Atom            X                  Y                   Z
    ------   -----------------  -----------------  -----------------
       1        0.000175078401     0.000089875205     0.000612097538
       2       -0.000140086467    -0.000028723744    -0.000478354966
       3       -0.000012369530    -0.000016944275    -0.000112117236
       4       -0.000224413525    -0.000058574239    -0.000633667434
       5       -0.000001850926    -0.000002949105     0.000020870159
       6       -0.000006982916     0.000005666825     0.000001170082
       7        0.000023177507     0.000020224043     0.000031642041
       8        0.000158396767     0.000059588832     0.000538734858
       9        0.000042995325    -0.000038508097     0.000031351133
      10        0.000009533912    -0.000035686036     0.000012352844
      11       -0.000010910420    -0.000023411635    -0.000021826696
      12       -0.000000328059    -0.000001190269    -0.000008717952
      13       -0.000014945359     0.000031293872     0.000012567747
      14        0.000002705292    -0.000000661376    -0.000006102119

  **** Optimization is complete! (in 11 steps) ****
    Final optimized geometry and variables:
    Molecular point group: c1

    Geometry (in Angstrom), charge = 0, multiplicity = 1:

    O            0.146480836789     2.063714799732    -0.019706899258
    C           -0.135604370943     0.939915961871     0.200897374557
    C           -1.484435921149     0.546973333444     0.755837155629
    O            0.764918465097    -0.009019785702    -0.026348862358
    H           -1.954036036211    -0.230832606685     0.169394575752
    H           -2.105852356832     1.426583689833     0.755865107514
    H           -1.382078554942     0.187572699376     1.772605109775
    C            0.559205611353    -1.389409484485     0.193508267398
    C            0.171520436798    -2.098938310110    -1.088407251650
    H           -0.172076505037    -1.556330819153     0.970546188354
    H            1.506279048689    -1.762735307098     0.554434929721
    H            0.093567394805    -3.165602889623    -0.911309118894
    H           -0.781378780612    -1.747246671181    -1.465388241310
    H            0.919919831598    -1.929885555107    -1.851475444245

  Mulliken Charges: (a.u.)
   Center  Symbol    Alpha    Beta     Spin     Total
       1     O     4.18368  4.18368  0.00000 -0.36736
       2     C     2.81592  2.81592  0.00000  0.36816
       3     C     3.16697  3.16697  0.00000 -0.33394
       4     O     4.13295  4.13295  0.00000 -0.26590
       5     H     0.44823  0.44823  0.00000  0.10354
       6     H     0.42601  0.42601  0.00000  0.14799
       7     H     0.44568  0.44568  0.00000  0.10863
       8     C     2.99766  2.99766  0.00000  0.00467
       9     C     3.13761  3.13761  0.00000 -0.27523
      10     H     0.45865  0.45865  0.00000  0.08269
      11     H     0.43739  0.43739  0.00000  0.12522
      12     H     0.45180  0.45180  0.00000  0.09640
      13     H     0.45437  0.45437  0.00000  0.09126
      14     H     0.44306  0.44306  0.00000  0.11387

   Total alpha = 24.00000, Total beta = 24.00000, Total charge = -0.00000
