  ==> Input File <==

--------------------------------------------------------------------------
set {
	reference rhf
	basis cc-pvtz
}

set_num_threads( 4 )
memory 2 gb

molecule MOL {
0 1

H	 -3.436473	 1.252944	 -1.023892
O	 -3.458596	 0.315260	 -0.960865
C	 -3.176635	 -0.080824	 0.355601
C	 -1.763371	 0.265266	 0.799691
H	 -3.321825	 -1.153438	 0.379502
H	 -3.895468	 0.357385	 1.043382
C	 -0.673390	 -0.426948	 -0.013392
H	 -1.631049	 1.344913	 0.747560
H	 -1.664587	 -0.001624	 1.849167
C	 0.737842	 -0.043159	 0.423759
H	 -0.806103	 -0.190518	 -1.063345
H	 -0.797221	 -1.503753	 0.074146
C	 1.824000	 -0.743224	 -0.390623
H	 0.850588	 1.033777	 0.343840
H	 0.868587	 -0.286314	 1.476203
C	 3.255957	 -0.453067	 0.062319
H	 1.718250	 -0.470599	 -1.438164
H	 1.658105	 -1.815850	 -0.339904
C	 3.376956	 0.104053	 1.478695
H	 3.696737	 0.258436	 -0.629239
H	 3.848596	 -1.360542	 -0.019458
H	 2.789288	 1.009513	 1.592125
H	 4.407569	 0.349635	 1.708407
H	 3.038359	 -0.605269	 2.224228

	symmetry c1
}
set optking {
	frozen_dihedral = ("
		20 16 13 17
	")
}

ee = optimize('scf')
oeprop('DIPOLE', 'QUADRUPOLE', 'MULLIKEN_CHARGES')
f=open( 'psi4out.xyz', 'w' )
f.write( "24  " )
f.write( str(ee) + "\n" )
f.write( MOL.save_string_xyz() )
f.close()
--------------------------------------------------------------------------

    Molecular point group: c1
  Charge       = 0
  Multiplicity = 1
  Basis Set: CC-PVTZ
  Basis Set:
  @DF-RHF Final Energy:  -349.37219435181436
    Total Energy =                       -349.3721943518144144
    Molecular point group: c1
  Basis Set: CC-PVTZ
  Basis Set:
  Basis Set: CC-PVTZ
  Basis Set:
  @DF-RHF Final Energy:  -349.37319204470776
    Total Energy =                       -349.3731920447083894
  Basis Set: CC-PVTZ
  Basis Set:
  Basis Set: CC-PVTZ
  Basis Set:
  @DF-RHF Final Energy:  -349.37435571755799
    Total Energy =                       -349.3743557175579326
  Basis Set: CC-PVTZ
  Basis Set:
  Basis Set: CC-PVTZ
  Basis Set:
  @DF-RHF Final Energy:  -349.37444051214118
    Total Energy =                       -349.3744405121404384
  Basis Set: CC-PVTZ
  Basis Set:
  Basis Set: CC-PVTZ
  Basis Set:
  @DF-RHF Final Energy:  -349.37444571321271
    Total Energy =                       -349.3744457132128218
  Basis Set: CC-PVTZ
  Basis Set:
  Basis Set: CC-PVTZ
  Basis Set:
  @DF-RHF Final Energy:  -349.37445237419729
    Total Energy =                       -349.3744523741974604
  Basis Set: CC-PVTZ
  Basis Set:
  Charge       = 0
  Multiplicity = 1
  Basis Set: CC-PVTZ
  Basis Set:

    Orbital Energies (a.u.)
    -----------------------

    Doubly Occupied:

       1A    -20.546179     2A    -11.265375     3A    -11.214955
       4A    -11.212122     5A    -11.210005     6A    -11.209399
       7A    -11.208558     8A    -11.205731     9A     -1.364018
      10A     -1.088424    11A     -1.047401    12A     -0.986136
      13A     -0.916383    14A     -0.854591    15A     -0.802637
      16A     -0.769454    17A     -0.681657    18A     -0.657596
      19A     -0.628650    20A     -0.618800    21A     -0.593154
      22A     -0.587464    23A     -0.554592    24A     -0.545975
      25A     -0.518451    26A     -0.506270    27A     -0.503696
      28A     -0.471192    29A     -0.469865    30A     -0.460339
      31A     -0.452252    32A     -0.447503    33A     -0.420716

  @DF-RHF Final Energy:  -349.37445253382623

   => Energetics <=

    Nuclear Repulsion Energy =            385.5175837070652278
    One-Electron Energy =               -1237.7449805897356327
    Two-Electron Energy =                 502.8529443488434367
    DFT Exchange-Correlation Energy =       0.0000000000000000
    Empirical Dispersion Energy =           0.0000000000000000
    PCM Polarization Energy =               0.0000000000000000
    EFP Energy =                            0.0000000000000000
    Total Energy =                       -349.3744525338269682
    Molecular point group: c1
  Basis Set: CC-PVTZ
  Basis Set:

  -Total Gradient:
     Atom            X                  Y                   Z
    ------   -----------------  -----------------  -----------------
       1        0.000000084907    -0.000000818936     0.000001501059
       2        0.000004172460    -0.000004019121     0.000001168769
       3       -0.000000280848    -0.000001188704     0.000000752123
       4        0.000014119582    -0.000016113006     0.000015423510
       5       -0.000001287764     0.000001045733    -0.000003108062
       6        0.000001758286    -0.000000731991     0.000001014341
       7        0.000001580379     0.000002685657    -0.000005722036
       8       -0.000000228224    -0.000006698708    -0.000006223240
       9       -0.000002795512     0.000005881928     0.000006910863
      10       -0.000007513986     0.000049624001    -0.000006122903
      11       -0.000002134380     0.000008797980    -0.000004634152
      12       -0.000006112433    -0.000003964000    -0.000003650679
      13        0.002713444978    -0.007764295244    -0.002738050534
      14       -0.000015582190     0.000002715252    -0.000013081940
      15        0.000013027711     0.000005788383     0.000014023759
      16       -0.002921240779     0.006770205845     0.004602566751
      17       -0.001799309886     0.005489522387     0.001619221292
      18        0.000009906208    -0.000010146271    -0.000022550843
      19       -0.000024225535     0.000012941902     0.000001379523
      20        0.002027888300    -0.004512646423    -0.003458195398
      21       -0.000007582102    -0.000016111962    -0.000004031101
      22        0.000015095582     0.000000256064     0.000005967076
      23       -0.000006408477    -0.000006979074    -0.000006455059
      24       -0.000006376283    -0.000005751689     0.000001896882

  **** Optimization is complete! (in 7 steps) ****
    Final optimized geometry and variables:
    Molecular point group: c1

    Geometry (in Angstrom), charge = 0, multiplicity = 1:

    H           -3.383708626502     1.372254240518    -1.282822825968
    O           -3.410404631658     0.434451442473    -1.223765540321
    C           -3.164323274425     0.033166514629     0.098254648527
    C           -1.762091026313     0.373298226558     0.580402082771
    H           -3.313406437204    -1.039069427497     0.114306949827
    H           -3.899755682415     0.471165724390     0.768412522659
    C           -0.653191279317    -0.318499674895    -0.207149758626
    H           -1.625479436134     1.452793668431     0.536243508584
    H           -1.691534252804     0.101920090954     1.630969892318
    C            0.747230630491     0.058777149620     0.269099848072
    H           -0.758959732438    -0.078358389894    -1.259267656709
    H           -0.782279267067    -1.395442243135    -0.126645452531
    C            1.845250041950    -0.658010360158    -0.520322105024
    H            0.875740989518     1.134661047017     0.175907725837
    H            0.835659680580    -0.168006858130     1.326939715499
    C            3.298222656101    -0.280506726757    -0.156234057655
    H            1.681872768922    -0.407802698791    -1.563624791673
    H            1.705301742773    -1.728889914560    -0.417066915356
    C            3.552912305112     0.212465980277     1.264830015320
    H            3.674264850404     0.438351203179    -0.877338284482
    H            3.915545942715    -1.159792569490    -0.317953867198
    H            3.032446298169     1.137976459486     1.477687783925
    H            4.611845944670     0.391161236529     1.412558584813
    H            3.239935850612    -0.520249517882     2.000985781049

  Mulliken Charges: (a.u.)
   Center  Symbol    Alpha    Beta     Spin     Total
       1     H     0.39533  0.39533  0.00000  0.20933
       2     O     4.20375  4.20375  0.00000 -0.40751
       3     C     2.97781  2.97781  0.00000  0.04437
       4     C     3.10167  3.10167  0.00000 -0.20334
       5     H     0.45881  0.45881  0.00000  0.08239
       6     H     0.46031  0.46031  0.00000  0.07939
       7     C     3.08918  3.08918  0.00000 -0.17835
       8     H     0.45927  0.45927  0.00000  0.08147
       9     H     0.45345  0.45345  0.00000  0.09310
      10     C     3.09132  3.09132  0.00000 -0.18264
      11     H     0.44608  0.44608  0.00000  0.10784
      12     H     0.45562  0.45562  0.00000  0.08877
      13     C     3.09617  3.09617  0.00000 -0.19234
      14     H     0.45450  0.45450  0.00000  0.09101
      15     H     0.45295  0.45295  0.00000  0.09410
      16     C     3.08816  3.08816  0.00000 -0.17631
      17     H     0.45165  0.45165  0.00000  0.09670
      18     H     0.45154  0.45154  0.00000  0.09692
      19     C     3.15707  3.15707  0.00000 -0.31414
      20     H     0.45223  0.45223  0.00000  0.09555
      21     H     0.45232  0.45232  0.00000  0.09535
      22     H     0.45243  0.45243  0.00000  0.09513
      23     H     0.44482  0.44482  0.00000  0.11037
      24     H     0.45358  0.45358  0.00000  0.09285

   Total alpha = 33.00000, Total beta = 33.00000, Total charge =  0.00000
