  ==> Input File <==

--------------------------------------------------------------------------
set {
	reference rhf
	basis cc-pvtz
}

set_num_threads( 4 )
memory 2 gb

molecule MOL {
0 1

H	 1.166964	 -1.062386	 0.758429
O	 1.324748	 -0.612467	 -0.052206
C	 0.706474	 0.636793	 -0.025501
C	 -0.730619	 0.614575	 0.412568
H	 0.765948	 1.030037	 -1.033530
H	 1.256834	 1.328381	 0.609723
C	 -1.443657	 -0.462508	 0.657062
H	 -1.181390	 1.587143	 0.522862
H	 -1.035484	 -1.448477	 0.542030
H	 -2.468095	 -0.390029	 0.969044

	symmetry c1
}
set optking {
	frozen_dihedral = ("
		5 3 2 1
	")
}

ee = optimize('scf')
oeprop('DIPOLE', 'QUADRUPOLE', 'MULLIKEN_CHARGES')
f=open( 'psi4out.xyz', 'w' )
f.write( "10  " )
f.write( str(ee) + "\n" )
f.write( MOL.save_string_xyz() )
f.close()
--------------------------------------------------------------------------

    Molecular point group: c1
  Charge       = 0
  Multiplicity = 1
  Basis Set: CC-PVTZ
  Basis Set:
  @DF-RHF Final Energy:  -191.99838558030490
    Total Energy =                       -191.9983855803048698
    Molecular point group: c1
  Basis Set: CC-PVTZ
  Basis Set:
  Basis Set: CC-PVTZ
  Basis Set:
  @DF-RHF Final Energy:  -191.99844381149038
    Total Energy =                       -191.9984438114902900
  Basis Set: CC-PVTZ
  Basis Set:
  Basis Set: CC-PVTZ
  Basis Set:
  @DF-RHF Final Energy:  -191.99845936195592
    Total Energy =                       -191.9984593619560940
  Basis Set: CC-PVTZ
  Basis Set:
  Charge       = 0
  Multiplicity = 1
  Basis Set: CC-PVTZ
  Basis Set:

    Orbital Energies (a.u.)
    -----------------------

    Doubly Occupied:

       1A    -20.553774     2A    -11.278219     3A    -11.233666
       4A    -11.219857     5A     -1.374631     6A     -1.064354
       7A     -0.934070     8A     -0.774443     9A     -0.689830
      10A     -0.666410    11A     -0.624395    12A     -0.573597
      13A     -0.548054    14A     -0.491680    15A     -0.454858
      16A     -0.371528

  @DF-RHF Final Energy:  -191.99845966506257

   => Energetics <=

    Nuclear Repulsion Energy =            119.6034686555560569
    One-Electron Energy =                -497.4971269639202092
    Two-Electron Energy =                 185.8951986433014554
    DFT Exchange-Correlation Energy =       0.0000000000000000
    Empirical Dispersion Energy =           0.0000000000000000
    PCM Polarization Energy =               0.0000000000000000
    EFP Energy =                            0.0000000000000000
    Total Energy =                       -191.9984596650626827
    Molecular point group: c1
  Basis Set: CC-PVTZ
  Basis Set:

  -Total Gradient:
     Atom            X                  Y                   Z
    ------   -----------------  -----------------  -----------------
       1       -0.001452217526    -0.000738791264    -0.000623580802
       2        0.001492753694     0.000782573281     0.000708286077
       3        0.001257889562     0.000613685784     0.000156933387
       4        0.000024887596    -0.000049375950     0.000060839084
       5       -0.001292343346    -0.000647218309    -0.000292478943
       6       -0.000015702982     0.000000181434     0.000007710903
       7        0.000020414843     0.000037191325     0.000061179938
       8       -0.000009391152     0.000010076903    -0.000021016455
       9       -0.000012529370    -0.000007485066    -0.000021213497
      10       -0.000013761322    -0.000000838139    -0.000036659694

  **** Optimization is complete! (in 4 steps) ****
    Final optimized geometry and variables:
    Molecular point group: c1

    Geometry (in Angstrom), charge = 0, multiplicity = 1:

    H            1.158133313076    -1.053335246149     0.542300659258
    O            1.297366204678    -0.622640756867    -0.282140447369
    C            0.669367527012     0.621585662424    -0.274161378627
    C           -0.763960172830     0.600000145582     0.177079107856
    H            0.706216940381     0.991502776089    -1.292291275621
    H            1.220266291613     1.329195741698     0.342128472283
    C           -1.489343104262    -0.474005772256     0.399092931882
    H           -1.204253780622     1.573501903725     0.315600056189
    H           -1.100800045386    -1.464149736808     0.252590380508
    H           -2.510054240578    -0.396262200839     0.721456148908

  Mulliken Charges: (a.u.)
   Center  Symbol    Alpha    Beta     Spin     Total
       1     H     0.39083  0.39083  0.00000  0.21833
       2     O     4.20026  4.20026  0.00000 -0.40053
       3     C     2.94665  2.94665  0.00000  0.10671
       4     C     3.08407  3.08407  0.00000 -0.16815
       5     H     0.45490  0.45490  0.00000  0.09020
       6     H     0.46910  0.46910  0.00000  0.06181
       7     C     3.17675  3.17675  0.00000 -0.35350
       8     H     0.42294  0.42294  0.00000  0.15413
       9     H     0.42664  0.42664  0.00000  0.14672
      10     H     0.42787  0.42787  0.00000  0.14427

   Total alpha = 16.00000, Total beta = 16.00000, Total charge =  0.00000
