  ==> Input File <==

--------------------------------------------------------------------------
set {
	reference rhf
	basis cc-pvtz
}

set_num_threads( 4 )
memory 2 gb

molecule MOL {
0 1

H	 -0.416124	 -0.088207	 2.594779
O	 0.372160	 -0.086479	 2.081886
C	 0.273927	 0.868194	 1.070661
C	 -0.793473	 0.591216	 0.050087
H	 1.239224	 0.894523	 0.578920
H	 0.111907	 1.860192	 1.488260
C	 -1.534243	 -0.493009	 -0.013340
H	 -0.932385	 1.373550	 -0.677858
H	 -1.101195	 -1.466332	 -0.144046
H	 -2.604242	 -0.437780	 0.050785

	symmetry c1
}
set optking {
	frozen_dihedral = ("
		3 4 7 9
	")
}

ee = optimize('scf')
oeprop('DIPOLE', 'QUADRUPOLE', 'MULLIKEN_CHARGES')
f=open( 'psi4out.xyz', 'w' )
f.write( "10  " )
f.write( str(ee) + "\n" )
f.write( MOL.save_string_xyz() )
f.close()
--------------------------------------------------------------------------

    Molecular point group: c1
  Charge       = 0
  Multiplicity = 1
  Basis Set: CC-PVTZ
  Basis Set:
  @DF-RHF Final Energy:  -191.91835727231756
    Total Energy =                       -191.9183572723174223
    Molecular point group: c1
  Basis Set: CC-PVTZ
  Basis Set:
  Basis Set: CC-PVTZ
  Basis Set:
  @DF-RHF Final Energy:  -191.94451706429803
    Total Energy =                       -191.9445170642979974
  Basis Set: CC-PVTZ
  Basis Set:
  Basis Set: CC-PVTZ
  Basis Set:
  @DF-RHF Final Energy:  -191.96139885699876
    Total Energy =                       -191.9613988569986986
  Basis Set: CC-PVTZ
  Basis Set:
  Basis Set: CC-PVTZ
  Basis Set:
  @DF-RHF Final Energy:  -191.96962414706223
    Total Energy =                       -191.9696241470622908
  Basis Set: CC-PVTZ
  Basis Set:
  @DF-RHF Final Energy:  -191.97041440394119
    Total Energy =                       -191.9704144039412483
  @DF-RHF Final Energy:  -191.97045973890533
    Total Energy =                       -191.9704597389054470
  @DF-RHF Final Energy:  -191.97046719971661
    Total Energy =                       -191.9704671997164667
  @DF-RHF Final Energy:  -191.97046614376973
    Total Energy =                       -191.9704661437696132
  @DF-RHF Final Energy:  -191.97046655908713
    Total Energy =                       -191.9704665590871855
  @DF-RHF Final Energy:  -191.97046702845853
    Total Energy =                       -191.9704670284585291
  @DF-RHF Final Energy:  -191.97046602484366
    Total Energy =                       -191.9704660248436312
  @DF-RHF Final Energy:  -191.97046603990049
    Total Energy =                       -191.9704660399004581
  @DF-RHF Final Energy:  -191.97016518900335
    Total Energy =                       -191.9701651890033816
  @DF-RHF Final Energy:  -191.97046708391585
    Total Energy =                       -191.9704670839158780
  @DF-RHF Final Energy:  -191.97046713664173
    Total Energy =                       -191.9704671366418154
  @DF-RHF Final Energy:  -191.97046685376566
    Total Energy =                       -191.9704668537655721
  @DF-RHF Final Energy:  -191.97045683627908
    Total Energy =                       -191.9704568362790269
  @DF-RHF Final Energy:  -191.97046423998930
    Total Energy =                       -191.9704642399892123
  @DF-RHF Final Energy:  -191.97046313951972
    Total Energy =                       -191.9704631395196088
  @DF-RHF Final Energy:  -191.97046708570113
    Total Energy =                       -191.9704670857011592
  @DF-RHF Final Energy:  -191.97046083582353
    Total Energy =                       -191.9704608358233600
  @DF-RHF Final Energy:  -191.97046183341664
    Total Energy =                       -191.9704618334166071
  @DF-RHF Final Energy:  -191.97046206338274
    Total Energy =                       -191.9704620633827403
  @DF-RHF Final Energy:  -191.97046115607469
    Total Energy =                       -191.9704611560746912
  @DF-RHF Final Energy:  -191.97045809435792
    Total Energy =                       -191.9704580943579515
  @DF-RHF Final Energy:  -191.97045946544580
    Total Energy =                       -191.9704594654459129
  @DF-RHF Final Energy:  -191.97044748993045
    Total Energy =                       -191.9704474899304216
  @DF-RHF Final Energy:  -191.97046065183997
    Total Energy =                       -191.9704606518400283
  @DF-RHF Final Energy:  -191.97041370711008
    Total Energy =                       -191.9704137071100831
  @DF-RHF Final Energy:  -191.97044700025168
    Total Energy =                       -191.9704470002516814
  @DF-RHF Final Energy:  -191.97046386959272
    Total Energy =                       -191.9704638695927770
  @DF-RHF Final Energy:  -191.97046423787788
    Total Energy =                       -191.9704642378778772
  @DF-RHF Final Energy:  -191.97044496404084
    Total Energy =                       -191.9704449640408939
  @DF-RHF Final Energy:  -191.97046501784718
    Total Energy =                       -191.9704650178470615
  @DF-RHF Final Energy:  -191.97046136187478
    Total Energy =                       -191.9704613618746407
  @DF-RHF Final Energy:  -191.97046560270644
    Total Energy =                       -191.9704656027064686
  Basis Set: CC-PVTZ
  Basis Set:
  @DF-RHF Final Energy:  -191.97046539341420
    Total Energy =                       -191.9704653934142016
  Basis Set: CC-PVTZ
  Basis Set:
  Basis Set: CC-PVTZ
  Basis Set:
  @DF-RHF Final Energy:  -191.97046531845211
    Total Energy =                       -191.9704653184519998
  Basis Set: CC-PVTZ
  Basis Set:
  Basis Set: CC-PVTZ
  Basis Set:
  @DF-RHF Final Energy:  -191.97046536079108
    Total Energy =                       -191.9704653607911666
  Basis Set: CC-PVTZ
  Basis Set:
  Charge       = 0
  Multiplicity = 1
  Basis Set: CC-PVTZ
  Basis Set:

    Orbital Energies (a.u.)
    -----------------------

    Doubly Occupied:

       1A    -20.553388     2A    -11.282551     3A    -11.243473
       4A    -11.222028     5A     -1.374695     6A     -1.065686
       7A     -0.937225     8A     -0.775878     9A     -0.689367
      10A     -0.659697    11A     -0.627333    12A     -0.571330
      13A     -0.538761    14A     -0.502605    15A     -0.448932
      16A     -0.363596

  @DF-RHF Final Energy:  -191.97046550475881

   => Energetics <=

    Nuclear Repulsion Energy =            118.7999711550990583
    One-Electron Energy =                -495.8277851263836737
    Two-Electron Energy =                 185.0573484665259230
    DFT Exchange-Correlation Energy =       0.0000000000000000
    Empirical Dispersion Energy =           0.0000000000000000
    PCM Polarization Energy =               0.0000000000000000
    EFP Energy =                            0.0000000000000000
    Total Energy =                       -191.9704655047586925
    Molecular point group: c1
  Basis Set: CC-PVTZ
  Basis Set:

  -Total Gradient:
     Atom            X                  Y                   Z
    ------   -----------------  -----------------  -----------------
       1        0.000037968012    -0.000083107372     0.000045905691
       2        0.000195509442    -0.000157839197     0.000157442611
       3       -0.014542036821     0.016452899037     0.008455075013
       4        0.025333074207    -0.029150597226    -0.027407563717
       5       -0.000069734825    -0.000116134467    -0.000197735045
       6       -0.000165517796    -0.000052014752    -0.000150115413
       7       -0.013166138156     0.019827335649     0.051649745048
       8        0.000412723771    -0.000344557931    -0.000811790841
       9        0.001898793660    -0.006369236085    -0.031561716882
      10        0.000065358504    -0.000006747655    -0.000179246464

    Molecular point group: c1

    Geometry (in Angstrom), charge = 0, multiplicity = 1:

    H            0.111726160408    -0.555036823190     1.556874787153
    O            0.914533713829    -0.275785695529     1.153062964200
    C            0.638934953276     0.682257947901     0.181697539993
    C           -0.373618185023     0.270258303783    -0.852085078177
    H            1.586932344243     0.942390574142    -0.274020625848
    H            0.239614485928     1.592572139440     0.623417816277
    C           -1.319489814254    -0.655073958692    -0.737530343892
    H           -0.607915585094     1.104848943305    -1.498975644994
    H           -1.133706156246    -1.697903175157    -0.535924229292
    H           -2.159107086757    -0.551546963680    -1.407481079733

  Mulliken Charges: (a.u.)
   Center  Symbol    Alpha    Beta     Spin     Total
       1     H     0.38901  0.38901  0.00000  0.22198
       2     O     4.20083  4.20083  0.00000 -0.40165
       3     C     2.95116  2.95116  0.00000  0.09769
       4     C     3.06342  3.06342  0.00000 -0.12685
       5     H     0.45294  0.45294  0.00000  0.09413
       6     H     0.46766  0.46766  0.00000  0.06469
       7     C     3.18773  3.18773  0.00000 -0.37547
       8     H     0.43051  0.43051  0.00000  0.13898
       9     H     0.42096  0.42096  0.00000  0.15808
      10     H     0.43579  0.43579  0.00000  0.12842

   Total alpha = 16.00000, Total beta = 16.00000, Total charge =  0.00000
