  ==> Input File <==

--------------------------------------------------------------------------
set {
	reference rhf
	basis 6-31G*
}

set_num_threads( 4 )
memory 2 gb

molecule MOL {
0 1

O	 1.396631	 0.700939	 0.962190
C	 0.861134	 0.272526	 -0.014869
C	 -0.623889	 -0.118271	 -0.003699
C	 1.658245	 0.102516	 -1.296164
C	 -0.895332	 -1.256461	 -1.002431
C	 -1.473649	 1.103340	 -0.370799
C	 -0.983900	 -0.581483	 1.422328
H	 -0.615301	 -0.972064	 -2.012700
H	 -1.954261	 -1.493213	 -1.010207
H	 -0.360539	 -2.164946	 -0.747760
H	 -1.227476	 1.468527	 -1.361691
H	 -2.526716	 0.838935	 -0.358521
H	 -1.314819	 1.915855	 0.325860
H	 -2.039679	 -0.828001	 1.472951
H	 -0.427637	 -1.464071	 1.720694
H	 -0.789023	 0.202493	 2.147048
H	 1.443623	 0.928515	 -1.967822
H	 2.711854	 0.121259	 -1.053938
H	 1.418552	 -0.814455	 -1.820504

	symmetry c1
}
set optking {
	frozen_dihedral = ("
		1 2 3 5
	")
}

ee = optimize('scf')
oeprop('DIPOLE', 'QUADRUPOLE', 'MULLIKEN_CHARGES')
f=open( 'psi4out.xyz', 'w' )
f.write( "19  " )
f.write( str(ee) + "\n" )
f.write( MOL.save_string_xyz() )
f.close()
--------------------------------------------------------------------------

    Molecular point group: c1
  Charge       = 0
  Multiplicity = 1
  Basis Set: 6-31G*
  Basis Set:
  @DF-RHF Final Energy:  -309.05955144264294
    Total Energy =                       -309.0595514426426007
    Molecular point group: c1
  Basis Set: 6-31G*
  Basis Set:
  Basis Set: 6-31G*
  Basis Set:
  @DF-RHF Final Energy:  -309.06029939471921
    Total Energy =                       -309.0602993947189816
  Basis Set: 6-31G*
  Basis Set:
  Basis Set: 6-31G*
  Basis Set:
  @DF-RHF Final Energy:  -309.06132506418106
    Total Energy =                       -309.0613250641812328
  Basis Set: 6-31G*
  Basis Set:
  Basis Set: 6-31G*
  Basis Set:
  @DF-RHF Final Energy:  -309.06142619642941
    Total Energy =                       -309.0614261964288971
  Basis Set: 6-31G*
  Basis Set:
  @DF-RHF Final Energy:  -309.06261906618181
    Total Energy =                       -309.0626190661816963
  Basis Set: 6-31G*
  Basis Set:
  @DF-RHF Final Energy:  -309.06278322215712
    Total Energy =                       -309.0627832221574067
  Basis Set: 6-31G*
  Basis Set:
  Basis Set: 6-31G*
  Basis Set:
  @DF-RHF Final Energy:  -309.06274198134349
    Total Energy =                       -309.0627419813434358
  Basis Set: 6-31G*
  Basis Set:
  Basis Set: 6-31G*
  Basis Set:
  @DF-RHF Final Energy:  -309.06284306555659
    Total Energy =                       -309.0628430655563079
  Basis Set: 6-31G*
  Basis Set:
  Charge       = 0
  Multiplicity = 1
  Basis Set: 6-31G*
  Basis Set:

    Orbital Energies (a.u.)
    -----------------------

    Doubly Occupied:

       1A    -20.547969     2A    -11.323028     3A    -11.246404
       4A    -11.227154     5A    -11.223566     6A    -11.223278
       7A    -11.209675     8A     -1.394532     9A     -1.109252
      10A     -1.002645    11A     -0.945544    12A     -0.935895
      13A     -0.834559    14A     -0.703712    15A     -0.664612
      16A     -0.631708    17A     -0.620924    18A     -0.593755
      19A     -0.589660    20A     -0.567410    21A     -0.546845
      22A     -0.545994    23A     -0.524924    24A     -0.512501
      25A     -0.499788    26A     -0.472106    27A     -0.463549
      28A     -0.392110

  @DF-RHF Final Energy:  -309.06284381445676

   => Energetics <=

    Nuclear Repulsion Energy =            326.3175353193394130
    One-Electron Energy =               -1065.6545581925740862
    Two-Electron Energy =                 430.2741790587783157
    DFT Exchange-Correlation Energy =       0.0000000000000000
    Empirical Dispersion Energy =           0.0000000000000000
    PCM Polarization Energy =               0.0000000000000000
    EFP Energy =                            0.0000000000000000
    Total Energy =                       -309.0628438144563574
    Molecular point group: c1
  Basis Set: 6-31G*
  Basis Set:

  -Total Gradient:
     Atom            X                  Y                   Z
    ------   -----------------  -----------------  -----------------
       1       -0.000303446932     0.000949408567    -0.000226464742
       2        0.000301954586    -0.001084214895     0.000164271108
       3        0.000077878448    -0.000409254190     0.000629649318
       4       -0.000008769347    -0.000049684358    -0.000007116810
       5       -0.000112376029     0.000525843014    -0.000542981404
       6        0.000005687071     0.000038988533     0.000010476664
       7        0.000037316508     0.000017387456    -0.000029513442
       8        0.000001529055     0.000001720734     0.000000553778
       9       -0.000000247458     0.000002725976     0.000004065929
      10        0.000013432341    -0.000016352501    -0.000007922287
      11       -0.000001187904    -0.000010446001     0.000009491744
      12        0.000004174309    -0.000002292779     0.000004249728
      13       -0.000006360139     0.000019577429    -0.000002753529
      14       -0.000000059960     0.000014204945    -0.000006475037
      15        0.000000547677     0.000013410690    -0.000006948512
      16        0.000009754232     0.000002576564     0.000021863542
      17       -0.000004825714    -0.000003010950     0.000005643941
      18       -0.000020072390     0.000012636396     0.000008292392
      19        0.000005071641    -0.000023224629    -0.000028382385

  **** Optimization is complete! (in 9 steps) ****
    Final optimized geometry and variables:
    Molecular point group: c1

    Geometry (in Angstrom), charge = 0, multiplicity = 1:

    O            1.414459321055     0.597936155240     1.031941295150
    C            0.880506389166     0.204600930314     0.039128899708
    C           -0.611864640958    -0.163614986520     0.044211019139
    C            1.662302224239     0.119517493067    -1.258172376692
    C           -0.940704849675    -1.268718854601    -0.971851844041
    C           -1.384387062911     1.119757278928    -0.324591180161
    C           -1.016561894944    -0.617510754708     1.452015719712
    H           -0.732527816324    -0.967661303699    -1.992521932861
    H           -1.995931978755    -1.514844522345    -0.914802898506
    H           -0.382418048096    -2.178103049250    -0.768190187456
    H           -1.124378776156     1.478822688929    -1.316063854593
    H           -2.452157482109     0.924638250113    -0.316013012982
    H           -1.179161869170     1.912034373469     0.386787811805
    H           -2.079937647442    -0.835430334513     1.480586999734
    H           -0.481784035205    -1.516331745448     1.742033831963
    H           -0.800375259264     0.146329736454     2.186117372697
    H            1.137737857286     0.601719214345    -2.075894452398
    H            2.623786291308     0.592112691697    -1.114723758879
    H            1.815733219685    -0.917798892190    -1.538821759611

  Mulliken Charges: (a.u.)
   Center  Symbol    Alpha    Beta     Spin     Total
       1     O     4.26556  4.26556  0.00000 -0.53111
       2     C     2.72545  2.72545  0.00000  0.54910
       3     C     3.06611  3.06611  0.00000 -0.13221
       4     C     3.29008  3.29008  0.00000 -0.58016
       5     C     3.24116  3.24116  0.00000 -0.48232
       6     C     3.24074  3.24074  0.00000 -0.48148
       7     C     3.22965  3.22965  0.00000 -0.45931
       8     H     0.41751  0.41751  0.00000  0.16498
       9     H     0.41383  0.41383  0.00000  0.17233
      10     H     0.41667  0.41667  0.00000  0.16667
      11     H     0.41923  0.41923  0.00000  0.16154
      12     H     0.41362  0.41362  0.00000  0.17277
      13     H     0.40693  0.40693  0.00000  0.18614
      14     H     0.42250  0.42250  0.00000  0.15499
      15     H     0.41792  0.41792  0.00000  0.16415
      16     H     0.40288  0.40288  0.00000  0.19425
      17     H     0.40938  0.40938  0.00000  0.18124
      18     H     0.39568  0.39568  0.00000  0.20863
      19     H     0.40510  0.40510  0.00000  0.18979

   Total alpha = 28.00000, Total beta = 28.00000, Total charge =  0.00000
