  ==> Input File <==

--------------------------------------------------------------------------
set {
	reference rhf
	basis 6-31G*
}

set_num_threads( 4 )
memory 2 gb

molecule MOL {
0 1

H	 2.845955	 -0.323208	 0.022310
C	 1.900140	 0.071967	 -0.330070
C	 0.778463	 -0.508087	 0.517968
H	 1.782469	 -0.206877	 -1.370777
H	 1.922247	 1.149867	 -0.254252
N	 -0.540928	 0.005139	 0.058438
H	 0.716718	 -1.581298	 0.454712
H	 0.859711	 -0.198647	 1.550086
O	 -0.572016	 0.611576	 -0.966521
O	 -1.482767	 -0.229411	 0.753007

	symmetry c1
}
set optking {
	frozen_dihedral = ("
		9 6 3 2
	")
}

ee = optimize('scf')
oeprop('DIPOLE', 'QUADRUPOLE', 'MULLIKEN_CHARGES')
f=open( 'psi4out.xyz', 'w' )
f.write( "10  " )
f.write( str(ee) + "\n" )
f.write( MOL.save_string_xyz() )
f.close()
--------------------------------------------------------------------------

    Molecular point group: c1
  Charge       = 0
  Multiplicity = 1
  Basis Set: 6-31G*
  Basis Set:
  @DF-RHF Final Energy:  -282.69944339172287
    Total Energy =                       -282.6994433917229230
    Molecular point group: c1
  Basis Set: 6-31G*
  Basis Set:
  Basis Set: 6-31G*
  Basis Set:
  @DF-RHF Final Energy:  -282.69941041318475
    Total Energy =                       -282.6994104131847507
  Basis Set: 6-31G*
  Basis Set:
  Basis Set: 6-31G*
  Basis Set:
  @DF-RHF Final Energy:  -282.69612926293331
    Total Energy =                       -282.6961292629331410
  Basis Set: 6-31G*
  Basis Set:
  Basis Set: 6-31G*
  Basis Set:
  @DF-RHF Final Energy:  -282.70023860329468
    Total Energy =                       -282.7002386032947356
  Basis Set: 6-31G*
  Basis Set:
  Basis Set: 6-31G*
  Basis Set:
  @DF-RHF Final Energy:  -282.70032262331154
    Total Energy =                       -282.7003226233114219
  Basis Set: 6-31G*
  Basis Set:
  Basis Set: 6-31G*
  Basis Set:
  @DF-RHF Final Energy:  -282.70036974642335
    Total Energy =                       -282.7003697464232346
  Basis Set: 6-31G*
  Basis Set:
  Charge       = 0
  Multiplicity = 1
  Basis Set: 6-31G*
  Basis Set:

    Orbital Energies (a.u.)
    -----------------------

    Doubly Occupied:

       1A    -20.605817     2A    -20.599467     3A    -15.850203
       4A    -11.305229     5A    -11.246282     6A     -1.633364
       7A     -1.418969     8A     -1.125541     9A     -0.967355
      10A     -0.833374    11A     -0.760019    12A     -0.750208
      13A     -0.727118    14A     -0.637728    15A     -0.594861
      16A     -0.564307    17A     -0.539428    18A     -0.487356
      19A     -0.478378    20A     -0.450359

  @DF-RHF Final Energy:  -282.70037234135532

   => Energetics <=

    Nuclear Repulsion Energy =            186.0869848063085499
    One-Electron Energy =                -754.4239932698767461
    Two-Electron Energy =                 285.6366361222129626
    DFT Exchange-Correlation Energy =       0.0000000000000000
    Empirical Dispersion Energy =           0.0000000000000000
    PCM Polarization Energy =               0.0000000000000000
    EFP Energy =                            0.0000000000000000
    Total Energy =                       -282.7003723413552052
    Molecular point group: c1
  Basis Set: 6-31G*
  Basis Set:

  -Total Gradient:
     Atom            X                  Y                   Z
    ------   -----------------  -----------------  -----------------
       1        0.000008416627     0.000002399162    -0.000008154493
       2       -0.000012388421    -0.000049826176    -0.000075719553
       3       -0.000001789066     0.000032429503     0.000038533687
       4        0.000048146674     0.000029437377    -0.000030457400
       5       -0.000023005599    -0.000027830985     0.000012983924
       6       -0.000185414235     0.000054195592    -0.000037696989
       7       -0.000021167155     0.000038178296    -0.000002809275
       8       -0.000053058822     0.000008917323     0.000038499049
       9        0.000185737043     0.000040796938    -0.000097963926
      10        0.000054522954    -0.000128697030     0.000162784978

  **** Optimization is complete! (in 7 steps) ****
    Final optimized geometry and variables:
    Molecular point group: c1

    Geometry (in Angstrom), charge = 0, multiplicity = 1:

    H            2.863500129401    -0.328428740064     0.052070984169
    C            1.933915845907     0.071467606367    -0.338270909736
    C            0.792859169504    -0.479862121235     0.491398698409
    H            1.842837242148    -0.214901116946    -1.376639060220
    H            1.974739803942     1.151358801564    -0.282930006211
    N           -0.546537671472     0.015224465447     0.057643774801
    H            0.713737720151    -1.556429851622     0.428223160782
    H            0.858445850382    -0.211251886431     1.534800719420
    O           -0.628058221863     0.619400042464    -0.965125001853
    O           -1.459226161646    -0.253266673505     0.777375871665

  Mulliken Charges: (a.u.)
   Center  Symbol    Alpha    Beta     Spin     Total
       1     H     0.40989  0.40989  0.00000  0.18023
       2     C     3.24978  3.24978  0.00000 -0.49956
       3     C     3.09546  3.09546  0.00000 -0.19093
       4     H     0.39812  0.39812  0.00000  0.20375
       5     H     0.40142  0.40142  0.00000  0.19715
       6     N     3.22038  3.22038  0.00000  0.55924
       7     H     0.38417  0.38417  0.00000  0.23166
       8     H     0.38473  0.38473  0.00000  0.23054
       9     O     4.22707  4.22707  0.00000 -0.45414
      10     O     4.22898  4.22898  0.00000 -0.45796

   Total alpha = 20.00000, Total beta = 20.00000, Total charge =  0.00000
