                              Psi4 1.0.54 Driver

  ==> Input File <==

--------------------------------------------------------------------------
set {
	reference rhf
	basis cc-pvtz
}

set_num_threads( 4 )
memory 2 gb

molecule MOL {
0 1

O	 -2.081319	 -0.951530	 -0.502732
N	 -1.613558	 0.006676	 0.014756
C	 -0.329345	 -0.171618	 0.743966
O	 -2.068523	 1.100482	 -0.024385
C	 -0.249695	 -1.588067	 1.299319
H	 -0.326317	 0.566904	 1.528182
H	 0.450711	 0.022391	 0.026954
C	 1.056335	 -1.816205	 2.055894
H	 -1.093839	 -1.755801	 1.957987
H	 -0.330986	 -2.292440	 0.479571
C	 1.164757	 -3.229888	 2.616451
H	 1.133489	 -1.098617	 2.867406
H	 1.895373	 -1.624716	 1.393509
H	 0.356817	 -3.438741	 3.308773
H	 1.122068	 -3.968811	 1.824059
H	 2.099480	 -3.365452	 3.146618

	symmetry c1
}
set optking {
	frozen_dihedral = ("
		5 3 2 1
	")
}

ee,wfn = optimize('scf', return_wfn=True)
oeprop( wfn, 'DIPOLE', 'QUADRUPOLE', 'MULLIKEN_CHARGES')
f=open( 'psi4out.xyz', 'w' )
f.write( "16  " )
f.write( str(ee) + "\n" )
f.write( MOL.save_string_xyz() )
f.close()
--------------------------------------------------------------------------

    Molecular point group: c1
  Charge       = 0
  Multiplicity = 1
  Basis Set: CC-PVTZ
  Basis Set:
  @DF-RHF Final Energy:  -360.90737248012010
    Total Energy =                       -360.9073724801197613
    Molecular point group: c1
  Basis Set: CC-PVTZ
  Basis Set:
  Basis Set: CC-PVTZ
  Basis Set:
  @DF-RHF Final Energy:  -360.90771871245789
    Total Energy =                       -360.9077187124574948
  Basis Set: CC-PVTZ
  Basis Set:
  Basis Set: CC-PVTZ
  Basis Set:
  @DF-RHF Final Energy:  -360.90251087886247
    Total Energy =                       -360.9025108788628131
  Basis Set: CC-PVTZ
  Basis Set:
  Basis Set: CC-PVTZ
  Basis Set:
  @DF-RHF Final Energy:  -360.90492080553781
    Total Energy =                       -360.9049208055379268
  Basis Set: CC-PVTZ
  Basis Set:
  Basis Set: CC-PVTZ
  Basis Set:
  @DF-RHF Final Energy:  -360.90863512875944
    Total Energy =                       -360.9086351287593857
  Basis Set: CC-PVTZ
  Basis Set:
  Basis Set: CC-PVTZ
  Basis Set:
  @DF-RHF Final Energy:  -360.90865394028339
    Total Energy =                       -360.9086539402833296
  Basis Set: CC-PVTZ
  Basis Set:
  Basis Set: CC-PVTZ
  Basis Set:
  @DF-RHF Final Energy:  -360.90865670518059
    Total Energy =                       -360.9086567051809880
  Basis Set: CC-PVTZ
  Basis Set:
  Charge       = 0
  Multiplicity = 1
  Basis Set: CC-PVTZ
  Basis Set:

    Orbital Energies (a.u.)
    -----------------------

    Doubly Occupied:

       1A    -20.591041     2A    -20.589255     3A    -15.837581
       4A    -11.297834     5A    -11.244650     6A    -11.240025
       7A    -11.224453     8A     -1.636341     9A     -1.420401
      10A     -1.134332    11A     -1.058865    12A     -0.948871
      13A     -0.843484    14A     -0.822752    15A     -0.759863
      16A     -0.748017    17A     -0.730373    18A     -0.669505
      19A     -0.615325    20A     -0.603931    21A     -0.565981
      22A     -0.536727    23A     -0.521024    24A     -0.502181
      25A     -0.495462    26A     -0.485333    27A     -0.469372
      28A     -0.453623

  @DF-RHF Final Energy:  -360.90865702125114

   => Energetics <=

    Nuclear Repulsion Energy =            312.5229333786355141
    One-Electron Energy =               -1110.7699775154173949
    Two-Electron Energy =                 437.3383871155304519
    DFT Exchange-Correlation Energy =       0.0000000000000000
    Empirical Dispersion Energy =           0.0000000000000000
    PCM Polarization Energy =               0.0000000000000000
    EFP Energy =                            0.0000000000000000
    Total Energy =                       -360.9086570212513720
    Molecular point group: c1
  Basis Set: CC-PVTZ
  Basis Set:

  -Total Gradient:
     Atom            X                  Y                   Z
    ------   -----------------  -----------------  -----------------
       1       -0.000220290653    -0.000130891295     0.000354940050
       2        0.000349454481     0.000053846017    -0.000639459879
       3       -0.000251360058     0.000069142109     0.000555955117
       4        0.000001413197     0.000059515328     0.000023082776
       5        0.000142274974    -0.000089288786    -0.000306342283
       6        0.000005353956     0.000007664050     0.000002253626
       7        0.000016862016     0.000004822682    -0.000022606551
       8       -0.000003966837     0.000010616161     0.000026632553
       9       -0.000014215051    -0.000018306019     0.000024550778
      10       -0.000002048257     0.000018200818     0.000002036670
      11       -0.000015663108     0.000000598515    -0.000021920582
      12        0.000003475041     0.000006233008     0.000017213576
      13       -0.000009703204     0.000006069982    -0.000008829121
      14       -0.000000898203     0.000001299957     0.000007234817
      15       -0.000002589264    -0.000011587490    -0.000004383300
      16        0.000001900970     0.000012064964    -0.000010358246

  **** Optimization is complete! (in 8 steps) ****
    Final optimized geometry and variables:
    Molecular point group: c1

    Geometry (in Angstrom), charge = 0, multiplicity = 1:

    O           -1.571572105506     0.159944872401    -1.346165782549
    N           -0.999366290358     1.026691688505    -0.777115706349
    C            0.291033666846     0.695963692699    -0.102057214709
    O           -1.351840731943     2.156761269175    -0.719564660610
    C            0.362240551064    -0.736898310232     0.388316689475
    H            0.386879189293     1.419575796418     0.689728422158
    H            1.044216474313     0.903146386419    -0.850597811439
    C            1.688391284634    -1.004627585760     1.097676137439
    H           -0.462814613048    -0.925491705135     1.066506955469
    H            0.242818070984    -1.411696332010    -0.447534283163
    C            1.797422229089    -2.438611940549     1.603834160646
    H            1.801889008331    -0.318265787435     1.931836642524
    H            2.510299072802    -0.799407699865     0.417436822244
    H            1.008468563407    -2.663641524457     2.312905753600
    H            1.720914726447    -3.147880315545     0.787289966768
    H            2.746149463480    -2.603895780228     2.099723719812

  Mulliken Charges: (a.u.)
   Center  Symbol    Alpha    Beta     Spin     Total
       1     O     4.17049  4.17049  0.00000 -0.34099
       2     N     3.27396  3.27396  0.00000  0.45208
       3     C     3.04844  3.04844  0.00000 -0.09688
       4     O     4.17229  4.17229  0.00000 -0.34459
       5     C     3.09626  3.09626  0.00000 -0.19252
       6     H     0.43095  0.43095  0.00000  0.13810
       7     H     0.43551  0.43551  0.00000  0.12898
       8     C     3.09425  3.09425  0.00000 -0.18851
       9     H     0.44316  0.44316  0.00000  0.11367
      10     H     0.43439  0.43439  0.00000  0.13122
      11     C     3.14797  3.14797  0.00000 -0.29594
      12     H     0.45115  0.45115  0.00000  0.09770
      13     H     0.45172  0.45172  0.00000  0.09656
      14     H     0.45215  0.45215  0.00000  0.09570
      15     H     0.45173  0.45173  0.00000  0.09654
      16     H     0.44557  0.44557  0.00000  0.10886

   Total alpha = 28.00000, Total beta = 28.00000, Total charge =  0.00000

*** Psi4 exiting successfully. Buy a developer a beer!
