  ==> Input File <==

--------------------------------------------------------------------------
set {
	reference rhf
	basis 6-31G*
}

set_num_threads( 1 )
memory 2 gb

molecule MOL {
0 1

H	 1.752461	 -1.570776	 -0.581538
O	 2.016064	 -0.864478	 0.000222
C	 1.050492	 0.053836	 0.000068
C	 -0.318135	 -0.576402	 0.000164
O	 1.285279	 1.218255	 -0.000078
C	 -1.454360	 0.441875	 -0.000474
H	 -0.374042	 -1.230163	 -0.866135
H	 -0.374274	 -1.229227	 0.867154
C	 -2.826123	 -0.230780	 0.000056
H	 -1.357605	 1.085198	 -0.868380
H	 -1.357504	 1.086451	 0.866496
H	 -2.959731	 -0.858053	 -0.876869
H	 -3.619374	 0.509403	 -0.000080
H	 -2.959371	 -0.857318	 0.877556

	symmetry c1
}
set optking {
	frozen_dihedral = ("
		7 4 6 10,
		2 3 4 7
	")
}

ee = energy('scf')
oeprop('DIPOLE', 'QUADRUPOLE', 'MULLIKEN_CHARGES')
f=open( 'psi4out.xyz', 'w' )
f.write( "14  " )
f.write( str(ee) + "\n" )
f.write( MOL.save_string_xyz() )
f.close()
--------------------------------------------------------------------------

    Molecular point group: c1

    Geometry (in Angstrom), charge = 0, multiplicity = 1:

       Center              X                  Y                   Z               Mass
    ------------   -----------------  -----------------  -----------------  -----------------
           H          1.765070303573    -1.557517038371    -0.574879724834     1.007825032070
           O          2.028673303573    -0.851219038371     0.006880275166    15.994914619560
           C          1.063101303573     0.067094961629     0.006726275166    12.000000000000
           C         -0.305525696427    -0.563143038371     0.006822275166    12.000000000000
           O          1.297888303573     1.231513961629     0.006580275166    15.994914619560
           C         -1.441750696427     0.455133961629     0.006184275166    12.000000000000
           H         -0.361432696427    -1.216904038371    -0.859476724834     1.007825032070
           H         -0.361664696427    -1.215968038371     0.873812275166     1.007825032070
           C         -2.813513696427    -0.217521038371     0.006714275166    12.000000000000
           H         -1.344995696427     1.098456961629    -0.861721724834     1.007825032070
           H         -1.344894696427     1.099709961629     0.873154275166     1.007825032070
           H         -2.947121696427    -0.844794038371    -0.870210724834     1.007825032070
           H         -3.606764696427     0.522661961629     0.006578275166     1.007825032070
           H         -2.946761696427    -0.844059038371     0.884214275166     1.007825032070

  Charge       = 0
  Multiplicity = 1
  Basis Set: 6-31G*
  Basis Set:

    Orbital Energies (a.u.)
    -----------------------

    Doubly Occupied:

       1A    -20.609588     2A    -20.554398     3A    -11.381226
       4A    -11.250507     5A    -11.230987     6A    -11.221829
       7A     -1.470405     8A     -1.371397     9A     -1.088531
      10A     -0.980060    11A     -0.851694    12A     -0.815323
      13A     -0.720143    14A     -0.676264    15A     -0.661580
      16A     -0.630083    17A     -0.584288    18A     -0.578024
      19A     -0.551654    20A     -0.507988    21A     -0.496619
      22A     -0.488830    23A     -0.478460    24A     -0.442484

  @DF-RHF Final Energy:  -305.86337728448359

   => Energetics <=

    Nuclear Repulsion Energy =            240.3164061630773460
    One-Electron Energy =                -893.0748336955339255
    Two-Electron Energy =                 346.8950502479731881
    DFT Exchange-Correlation Energy =       0.0000000000000000
    Empirical Dispersion Energy =           0.0000000000000000
    PCM Polarization Energy =               0.0000000000000000
    EFP Energy =                            0.0000000000000000
    Total Energy =                       -305.8633772844834198

  Mulliken Charges: (a.u.)
   Center  Symbol    Alpha    Beta     Spin     Total
       1     H     0.26888  0.26888  0.00000  0.46224
       2     O     4.35032  4.35032  0.00000 -0.70064
       3     C     2.61496  2.61496  0.00000  0.77009
       4     C     3.22778  3.22778  0.00000 -0.45557
       5     O     4.26148  4.26148  0.00000 -0.52297
       6     C     3.15193  3.15193  0.00000 -0.30386
       7     H     0.41333  0.41333  0.00000  0.17334
       8     H     0.39664  0.39664  0.00000  0.20673
       9     C     3.24341  3.24341  0.00000 -0.48681
      10     H     0.40892  0.40892  0.00000  0.18216
      11     H     0.40672  0.40672  0.00000  0.18656
      12     H     0.42195  0.42195  0.00000  0.15610
      13     H     0.41308  0.41308  0.00000  0.17384
      14     H     0.42061  0.42061  0.00000  0.15879

   Total alpha = 24.00000, Total beta = 24.00000, Total charge = -0.00000
