                              Psi4 1.0.54 Driver

  ==> Input File <==

--------------------------------------------------------------------------
set {
	reference rhf
	basis cc-pvtz
}

set_num_threads( 4 )
memory 2 gb

molecule MOL {
0 1

O	 -0.988175	 -1.402891	 0.050086
C	 -0.675048	 -0.248293	 -0.009686
C	 -1.742492	 0.826599	 -0.011538
N	 0.622280	 0.144970	 -0.099307
H	 -1.692153	 1.431066	 -0.908439
H	 -2.698310	 0.331559	 0.031353
H	 -1.642148	 1.483784	 0.843455
C	 1.291112	 0.625010	 1.091564
C	 1.291871	 0.438701	 -1.343946
H	 2.316241	 0.275275	 1.095890
H	 0.784461	 0.255339	 1.964392
H	 1.301151	 1.711376	 1.128157
H	 2.339204	 0.180540	 -1.254042
H	 0.884798	 -0.133245	 -2.160073
H	 1.229989	 1.494237	 -1.599012

	symmetry c1
}
set optking {
	frozen_dihedral = ("
		8 4 2 3
	")
}

ee,wfn = optimize('scf', return_wfn=True)
oeprop( wfn, 'DIPOLE', 'QUADRUPOLE', 'MULLIKEN_CHARGES')
f=open( 'psi4out.xyz', 'w' )
f.write( "15  " )
f.write( str(ee) + "\n" )
f.write( MOL.save_string_xyz() )
f.close()
--------------------------------------------------------------------------

    Molecular point group: c1
  Charge       = 0
  Multiplicity = 1
  Basis Set: CC-PVTZ
  Basis Set:
  @DF-RHF Final Energy:  -286.09870779239913
    Total Energy =                       -286.0987077923992956
    Molecular point group: c1
  Basis Set: CC-PVTZ
  Basis Set:
  Basis Set: CC-PVTZ
  Basis Set:
  @DF-RHF Final Energy:  -286.10313500001985
    Total Energy =                       -286.1031350000198472
  Basis Set: CC-PVTZ
  Basis Set:
  Basis Set: CC-PVTZ
  Basis Set:
  @DF-RHF Final Energy:  -286.10525285418998
    Total Energy =                       -286.1052528541900983
  Basis Set: CC-PVTZ
  Basis Set:
  Basis Set: CC-PVTZ
  Basis Set:
  @DF-RHF Final Energy:  -285.99360882784288
    Total Energy =                       -285.9936088278429906
  Basis Set: CC-PVTZ
  Basis Set:
  @DF-RHF Final Energy:  -286.09340020661989
    Total Energy =                       -286.0934002066200037
  @DF-RHF Final Energy:  -286.10735653704688
    Total Energy =                       -286.1073565370465985
  @DF-RHF Final Energy:  -286.00248377561275
    Total Energy =                       -286.0024837756126885
  @DF-RHF Final Energy:  -286.09970579406229
    Total Energy =                       -286.0997057940621744
  @DF-RHF Final Energy:  -286.10744099938773
    Total Energy =                       -286.1074409993873928
  @DF-RHF Final Energy:  -286.00010255828795
    Total Energy =                       -286.0001025582878356
  @DF-RHF Final Energy:  -286.09788628126967
    Total Energy =                       -286.0978862812698935
  @DF-RHF Final Energy:  -286.10876569958469
    Total Energy =                       -286.1087656995846373
  @DF-RHF Final Energy:  -286.01467576509754
    Total Energy =                       -286.0146757650974223
  @DF-RHF Final Energy:  -286.09449106416025
    Total Energy =                       -286.0944910641603087
  @DF-RHF Final Energy:  -286.10870043199350
    Total Energy =                       -286.1087004319933840
  @DF-RHF Final Energy:  -286.10896066563930
    Total Energy =                       -286.1089606656394153
  @DF-RHF Final Energy:  -286.10941301039645
    Total Energy =                       -286.1094130103965654
  @DF-RHF Final Energy:  -286.10944711389226
    Total Energy =                       -286.1094471138923154
  Basis Set: CC-PVTZ
  Basis Set:
  @DF-RHF Final Energy:  -286.10951105092090
    Total Energy =                       -286.1095110509206165
  Basis Set: CC-PVTZ
  Basis Set:
  Basis Set: CC-PVTZ
  Basis Set:
  @DF-RHF Final Energy:  -286.10952243009365
    Total Energy =                       -286.1095224300934774
  Basis Set: CC-PVTZ
  Basis Set:
  Basis Set: CC-PVTZ
  Basis Set:
  @DF-RHF Final Energy:  -286.10952537988305
    Total Energy =                       -286.1095253798831664
  Basis Set: CC-PVTZ
  Basis Set:
  Charge       = 0
  Multiplicity = 1
  Basis Set: CC-PVTZ
  Basis Set:

    Orbital Energies (a.u.)
    -----------------------

    Doubly Occupied:

       1A    -20.541031     2A    -15.558676     3A    -11.344744
       4A    -11.255534     5A    -11.255245     6A    -11.232075
       7A     -1.412932     8A     -1.238203     9A     -1.010222
      10A     -0.971030    11A     -0.905683    12A     -0.742504
      13A     -0.681983    14A     -0.662894    15A     -0.644246
      16A     -0.611683    17A     -0.591516    18A     -0.576511
      19A     -0.554931    20A     -0.548563    21A     -0.529249
      22A     -0.499891    23A     -0.427366    24A     -0.375671

  @DF-RHF Final Energy:  -286.10952571737005

   => Energetics <=

    Nuclear Repulsion Energy =            252.6789548744170872
    One-Electron Energy =                -889.2321962015070085
    Two-Electron Energy =                 350.4437156097197885
    DFT Exchange-Correlation Energy =       0.0000000000000000
    Empirical Dispersion Energy =           0.0000000000000000
    PCM Polarization Energy =               0.0000000000000000
    EFP Energy =                            0.0000000000000000
    Total Energy =                       -286.1095257173701611
    Molecular point group: c1
  Basis Set: CC-PVTZ
  Basis Set:

  -Total Gradient:
     Atom            X                  Y                   Z
    ------   -----------------  -----------------  -----------------
       1        0.000021279126    -0.000035134281     0.000005744122
       2       -0.007139840697     0.001242863960    -0.001218895972
       3        0.004100459293    -0.000827156428     0.001773125483
       4        0.005502141748    -0.000318083336    -0.004389766050
       5        0.000003446538    -0.000004519101    -0.000002022802
       6       -0.000002437428     0.000008653698     0.000001983757
       7       -0.000001434821    -0.000000367714    -0.000004721915
       8       -0.002483345820    -0.000080618446     0.003798496187
       9        0.000002279583     0.000040086796     0.000086705793
      10        0.000001644846    -0.000007803648    -0.000002861703
      11       -0.000014269486    -0.000001370751    -0.000007738703
      12        0.000000420387    -0.000001708538    -0.000010279457
      13       -0.000002154402    -0.000006308662    -0.000001504838
      14        0.000007769500    -0.000007312612    -0.000011538642
      15        0.000004041635    -0.000001220936    -0.000016725260

  **** Optimization is complete! (in 22 steps) ****
    Final optimized geometry and variables:
    Molecular point group: c1

    Geometry (in Angstrom), charge = 0, multiplicity = 1:

    O            0.332571605352    -1.194382783254    -1.317510526746
    C           -0.060228370671    -0.652530362990    -0.344962613182
    C           -0.699427181260    -1.434095496761     0.784161321028
    N            0.139368009111     0.748641826067    -0.169401138342
    H           -1.748839098396    -1.183803553832     0.881988293615
    H           -0.606968500692    -2.488192874408     0.577649680004
    H           -0.220696674832    -1.198755401960     1.726616870063
    C            1.319947722838     1.038315192118     0.626943763646
    C           -1.025921866822     1.469573955316     0.306866523814
    H            1.536098155922     2.096160097389     0.561280106954
    H            2.169907094298     0.498750886553     0.233223542329
    H            1.199239324129     0.784197662311     1.680830761167
    H           -0.844204299098     2.530230418233     0.196732285386
    H           -1.889594007595     1.221675719256    -0.296143581997
    H           -1.265349627409     1.277657004847     1.353206059472

  Mulliken Charges: (a.u.)
   Center  Symbol    Alpha    Beta     Spin     Total
       1     O     4.16166  4.16166  0.00000 -0.32332
       2     C     2.84293  2.84293  0.00000  0.31414
       3     C     3.16210  3.16210  0.00000 -0.32419
       4     N     3.59204  3.59204  0.00000 -0.18407
       5     H     0.44818  0.44818  0.00000  0.10365
       6     H     0.43039  0.43039  0.00000  0.13921
       7     H     0.44570  0.44570  0.00000  0.10861
       8     C     3.09920  3.09920  0.00000 -0.19839
       9     C     3.10523  3.10523  0.00000 -0.21046
      10     H     0.44745  0.44745  0.00000  0.10511
      11     H     0.44170  0.44170  0.00000  0.11659
      12     H     0.46874  0.46874  0.00000  0.06252
      13     H     0.44275  0.44275  0.00000  0.11450
      14     H     0.44539  0.44539  0.00000  0.10922
      15     H     0.46655  0.46655  0.00000  0.06689

   Total alpha = 24.00000, Total beta = 24.00000, Total charge =  0.00000

*** Psi4 exiting successfully. Buy a developer a beer!
