                              Psi4 1.0.54 Driver

  ==> Input File <==

--------------------------------------------------------------------------
set {
	reference rhf
	basis cc-pvtz
}

set_num_threads( 4 )
memory 2 gb

molecule MOL {
0 1

H	 2.085576	 1.952817	 1.186225
N	 1.226154	 1.450522	 1.117792
C	 1.263552	 0.494993	 0.021953
H	 0.501718	 2.123771	 0.978994
C	 -0.016533	 -0.325589	 -0.026925
H	 2.106596	 -0.167245	 0.188420
H	 1.423816	 0.967694	 -0.948023
C	 -1.280353	 0.525521	 0.047747
H	 -0.016686	 -0.912532	 -0.939714
H	 -0.014099	 -1.037598	 0.796369
C	 -2.560681	 -0.301323	 -0.007747
H	 -1.279957	 1.241025	 -0.770189
H	 -1.270445	 1.110526	 0.963468
H	 -2.617064	 -0.872870	 -0.928010
H	 -3.439525	 0.331102	 0.043462
H	 -2.609427	 -1.002736	 0.818585

	symmetry c1
}
set optking {
	frozen_dihedral = ("
		6 3 5 9
	")
}

ee,wfn = optimize('scf', return_wfn=True)
oeprop( wfn, 'DIPOLE', 'QUADRUPOLE', 'MULLIKEN_CHARGES')
f=open( 'psi4out.xyz', 'w' )
f.write( "16  " )
f.write( str(ee) + "\n" )
f.write( MOL.save_string_xyz() )
f.close()
--------------------------------------------------------------------------

    Molecular point group: c1
  Charge       = 0
  Multiplicity = 1
  Basis Set: CC-PVTZ
  Basis Set:
  @DF-RHF Final Energy:  -212.39719546414159
    Total Energy =                       -212.3971954641415891
    Molecular point group: c1
  Basis Set: CC-PVTZ
  Basis Set:
  Basis Set: CC-PVTZ
  Basis Set:
  @DF-RHF Final Energy:  -212.39782220723657
    Total Energy =                       -212.3978222072364019
  Basis Set: CC-PVTZ
  Basis Set:
  Basis Set: CC-PVTZ
  Basis Set:
  @DF-RHF Final Energy:  -212.39837401866845
    Total Energy =                       -212.3983740186685054
  Basis Set: CC-PVTZ
  Basis Set:
  Basis Set: CC-PVTZ
  Basis Set:
  @DF-RHF Final Energy:  -212.39841422993999
    Total Energy =                       -212.3984142299399309
  Basis Set: CC-PVTZ
  Basis Set:
  Basis Set: CC-PVTZ
  Basis Set:
  @DF-RHF Final Energy:  -212.39842102148302
    Total Energy =                       -212.3984210214830455
  Basis Set: CC-PVTZ
  Basis Set:
  Charge       = 0
  Multiplicity = 1
  Basis Set: CC-PVTZ
  Basis Set:

    Orbital Energies (a.u.)
    -----------------------

    Doubly Occupied:

       1A    -15.526472     2A    -11.238877     3A    -11.210954
       4A    -11.207698     5A    -11.204918     6A     -1.178294
       7A     -1.057005     8A     -0.961048     9A     -0.852009
      10A     -0.778810    11A     -0.665482    12A     -0.650201
      13A     -0.595969    14A     -0.586030    15A     -0.547796
      16A     -0.525509    17A     -0.514189    18A     -0.471654
      19A     -0.466745    20A     -0.452688    21A     -0.383578

  @DF-RHF Final Energy:  -212.39842197176492

   => Energetics <=

    Nuclear Repulsion Energy =            189.5074146671821893
    One-Electron Energy =                -661.6598223274489783
    Two-Electron Energy =                 259.7539856885017002
    DFT Exchange-Correlation Energy =       0.0000000000000000
    Empirical Dispersion Energy =           0.0000000000000000
    PCM Polarization Energy =               0.0000000000000000
    EFP Energy =                            0.0000000000000000
    Total Energy =                       -212.3984219717651172
    Molecular point group: c1
  Basis Set: CC-PVTZ
  Basis Set:

  -Total Gradient:
     Atom            X                  Y                   Z
    ------   -----------------  -----------------  -----------------
       1       -0.000019610223    -0.000002614080    -0.000009611707
       2       -0.000026725211     0.000021534185     0.000027461761
       3       -0.000144677855     0.000126776510    -0.004859291116
       4       -0.000005687233     0.000022922367     0.000017118798
       5        0.002097260354    -0.003306367299     0.002807829306
       6       -0.000179609768     0.000349691191     0.003632484770
       7        0.000001245175    -0.000015365253     0.000004295034
       8        0.000018232986     0.000021499970    -0.000038702237
       9       -0.001750082522     0.002793338182    -0.001595996671
      10        0.000016327794    -0.000018326498     0.000002937990
      11       -0.000003849373    -0.000007530672     0.000014051274
      12       -0.000017392693     0.000000449851     0.000016113127
      13       -0.000009062558    -0.000011315994    -0.000022838260
      14        0.000010622604     0.000016463906     0.000009466791
      15        0.000003752404     0.000003182249     0.000004723931
      16        0.000009256117     0.000005661384    -0.000010042790

  **** Optimization is complete! (in 6 steps) ****
    Final optimized geometry and variables:
    Molecular point group: c1

    Geometry (in Angstrom), charge = 0, multiplicity = 1:

    H            2.515013398824     1.407504372293     0.929224053355
    N            1.594522979987     1.030052231107     0.856163179381
    C            1.506402660455     0.102950188330    -0.264657060090
    H            0.971945808163     1.801186512253     0.743312779288
    C            0.210891999853    -0.703329280421    -0.242651402044
    H            2.338365965026    -0.583385629225    -0.158264268037
    H            1.609242570675     0.597881730013    -1.230525526599
    C           -1.058010865578     0.142928174075    -0.145810430978
    H            0.157385602713    -1.274931576563    -1.165889138228
    H            0.238086966350    -1.406092385371     0.583488307503
    C           -2.330179891072    -0.693170302051    -0.241596336662
    H           -1.058311116861     0.886723135634    -0.940115642172
    H           -1.063297255816     0.686611410438     0.792089365299
    H           -2.382021525865    -1.222709616599    -1.187132164976
    H           -3.215467251085    -0.072777977733    -0.160877774262
    H           -2.370730389566    -1.431666721659     0.552079869267

  Mulliken Charges: (a.u.)
   Center  Symbol    Alpha    Beta     Spin     Total
       1     H     0.42911  0.42911  0.00000  0.14178
       2     N     3.69242  3.69242  0.00000 -0.38483
       3     C     3.03887  3.03887  0.00000 -0.07773
       4     H     0.42792  0.42792  0.00000  0.14416
       5     C     3.07452  3.07452  0.00000 -0.14905
       6     H     0.45267  0.45267  0.00000  0.09467
       7     H     0.46400  0.46400  0.00000  0.07201
       8     C     3.09404  3.09404  0.00000 -0.18808
       9     H     0.45721  0.45721  0.00000  0.08559
      10     H     0.45388  0.45388  0.00000  0.09224
      11     C     3.14983  3.14983  0.00000 -0.29966
      12     H     0.45591  0.45591  0.00000  0.08817
      13     H     0.45071  0.45071  0.00000  0.09858
      14     H     0.45583  0.45583  0.00000  0.08833
      15     H     0.44919  0.44919  0.00000  0.10163
      16     H     0.45390  0.45390  0.00000  0.09220

   Total alpha = 21.00000, Total beta = 21.00000, Total charge =  0.00000

*** Psi4 exiting successfully. Buy a developer a beer!
