  ==> Input File <==

--------------------------------------------------------------------------
set {
	reference rhf
	basis 6-31G*
}

set_num_threads( 4 )
memory 2 gb

molecule MOL {
0 1

H	 -2.098997	 -0.674324	 -0.616650
O	 -2.035884	 -0.060112	 0.102722
C	 -0.955155	 0.788182	 -0.092531
C	 0.353668	 0.040312	 -0.004810
H	 -0.985057	 1.290372	 -1.054184
H	 -0.974469	 1.533190	 0.688632
F	 1.232806	 0.533568	 -0.869904
F	 0.873243	 0.157293	 1.206617
F	 0.219475	 -1.243953	 -0.265971

	symmetry c1
}
set optking {
	frozen_dihedral = ("
		7 4 3 5
	")
}

ee = optimize('scf')
oeprop('DIPOLE', 'QUADRUPOLE', 'MULLIKEN_CHARGES')
f=open( 'psi4out.xyz', 'w' )
f.write( "9  " )
f.write( str(ee) + "\n" )
f.write( MOL.save_string_xyz() )
f.close()
--------------------------------------------------------------------------

    Molecular point group: c1
  Charge       = 0
  Multiplicity = 1
  Basis Set: 6-31G*
  Basis Set:
  @DF-RHF Final Energy:  -450.65755676867167
    Total Energy =                       -450.6575567686718955
    Molecular point group: c1
  Basis Set: 6-31G*
  Basis Set:
  Basis Set: 6-31G*
  Basis Set:
  @DF-RHF Final Energy:  -450.65821564835210
    Total Energy =                       -450.6582156483520407
  Basis Set: 6-31G*
  Basis Set:
  Basis Set: 6-31G*
  Basis Set:
  @DF-RHF Final Energy:  -450.65854864827651
    Total Energy =                       -450.6585486482765646
  Basis Set: 6-31G*
  Basis Set:
  Basis Set: 6-31G*
  Basis Set:
  @DF-RHF Final Energy:  -450.65858236907542
    Total Energy =                       -450.6585823690753045
  Basis Set: 6-31G*
  Basis Set:
  Charge       = 0
  Multiplicity = 1
  Basis Set: 6-31G*
  Basis Set:

    Orbital Energies (a.u.)
    -----------------------

    Doubly Occupied:

       1A    -26.343657     2A    -26.342263     3A    -26.342206
       4A    -20.589983     5A    -11.502396     6A    -11.309492
       7A     -1.741361     8A     -1.639191     9A     -1.637775
      10A     -1.402586    11A     -1.045267    12A     -0.924555
      13A     -0.831146    14A     -0.828260    15A     -0.810160
      16A     -0.723528    17A     -0.712071    18A     -0.699136
      19A     -0.664223    20A     -0.660509    21A     -0.643096
      22A     -0.628095    23A     -0.615003    24A     -0.527160
      25A     -0.479973

  @DF-RHF Final Energy:  -450.65858577401707

   => Energetics <=

    Nuclear Repulsion Energy =            276.4989217959038115
    One-Electron Energy =               -1175.0288258047048657
    Two-Electron Energy =                 447.8713182347839847
    DFT Exchange-Correlation Energy =       0.0000000000000000
    Empirical Dispersion Energy =           0.0000000000000000
    PCM Polarization Energy =               0.0000000000000000
    EFP Energy =                            0.0000000000000000
    Total Energy =                       -450.6585857740170695
    Molecular point group: c1
  Basis Set: 6-31G*
  Basis Set:

  -Total Gradient:
     Atom            X                  Y                   Z
    ------   -----------------  -----------------  -----------------
       1       -0.000017793650    -0.000011934538    -0.000002379826
       2        0.000177244706     0.000146704127    -0.000067378142
       3       -0.003488414868    -0.006840874326    -0.003899317296
       4        0.002392064744     0.004908494738     0.005138133876
       5        0.002381783360     0.004647572678     0.002375130452
       6        0.000011128367     0.000022973150     0.000023791660
       7       -0.001397803240    -0.003100350024    -0.003535048645
       8       -0.000073809724    -0.000005401860    -0.000016244540
       9        0.000015600315     0.000232816057    -0.000016687542

  **** Optimization is complete! (in 5 steps) ****
    Final optimized geometry and variables:
    Molecular point group: c1

    Geometry (in Angstrom), charge = 0, multiplicity = 1:

    H           -2.081541936665    -0.732183144257    -0.545401109622
    O           -2.061274291563    -0.036508435796     0.097813332559
    C           -0.967927270485     0.783597407299    -0.120045893067
    C            0.358275851524     0.041061843082    -0.002577977685
    H           -0.981929761071     1.293249802954    -1.077831281516
    H           -0.984616341552     1.545699951587     0.645582841207
    F            1.252472201458     0.546848125369    -0.839157606956
    F            0.868143643822     0.088826588537     1.212180216595
    F            0.214606081716    -1.237578657247    -0.326057071295

  Mulliken Charges: (a.u.)
   Center  Symbol    Alpha    Beta     Spin     Total
       1     H     0.27202  0.27202  0.00000  0.45596
       2     O     4.35963  4.35963  0.00000 -0.71926
       3     C     3.06588  3.06588  0.00000 -0.13176
       4     C     2.45613  2.45613  0.00000  1.08773
       5     H     0.40698  0.40698  0.00000  0.18604
       6     H     0.39380  0.39380  0.00000  0.21239
       7     F     4.68356  4.68356  0.00000 -0.36713
       8     F     4.67657  4.67657  0.00000 -0.35315
       9     F     4.68542  4.68542  0.00000 -0.37084

   Total alpha = 25.00000, Total beta = 25.00000, Total charge = -0.00000
