  ==> Input File <==

--------------------------------------------------------------------------
set {
	reference rhf
	basis cc-pvtz
}

set_num_threads( 4 )
memory 2 gb

molecule MOL {
0 1

O	 -2.071633	 -1.227563	 -0.223463
C	 -1.652164	 -0.152425	 0.058082
C	 -0.327811	 0.006324	 0.778296
C	 -2.402515	 1.108629	 -0.298924
C	 0.843231	 -0.001575	 -0.211665
H	 -0.319484	 0.928173	 1.350354
H	 -0.227804	 -0.823091	 1.466705
C	 2.197693	 0.138030	 0.476937
H	 0.722944	 0.805202	 -0.930230
H	 0.813976	 -0.926978	 -0.776588
C	 2.140012	 -0.174305	 1.968339
H	 2.915633	 -0.521437	 -0.002843
H	 2.567717	 1.149004	 0.333569
H	 1.806301	 -1.191704	 2.143186
H	 1.453258	 0.490769	 2.480602
H	 3.114559	 -0.062553	 2.428961
H	 -3.240910	 0.874416	 -0.936711
H	 -1.747554	 1.818823	 -0.790984
H	 -2.760419	 1.579708	 0.610998

	symmetry c1
}
set optking {
	frozen_dihedral = ("
		11 8 5 9
	")
}

ee = optimize('scf')
oeprop('DIPOLE', 'QUADRUPOLE', 'MULLIKEN_CHARGES')
f=open( 'psi4out.xyz', 'w' )
f.write( "19  " )
f.write( str(ee) + "\n" )
f.write( MOL.save_string_xyz() )
f.close()
--------------------------------------------------------------------------

    Molecular point group: c1
  Charge       = 0
  Multiplicity = 1
  Basis Set: CC-PVTZ
  Basis Set:
  @DF-RHF Final Energy:  -309.16556619529479
    Total Energy =                       -309.1655661952946730
    Molecular point group: c1
  Basis Set: CC-PVTZ
  Basis Set:
  Basis Set: CC-PVTZ
  Basis Set:
  @DF-RHF Final Energy:  -309.16618369523871
    Total Energy =                       -309.1661836952389422
  Basis Set: CC-PVTZ
  Basis Set:
  Basis Set: CC-PVTZ
  Basis Set:
  @DF-RHF Final Energy:  -309.16878249650455
    Total Energy =                       -309.1687824965047184
  Basis Set: CC-PVTZ
  Basis Set:
  Basis Set: CC-PVTZ
  Basis Set:
  @DF-RHF Final Energy:  -309.16891016707871
    Total Energy =                       -309.1689101670785931
  Basis Set: CC-PVTZ
  Basis Set:
  @DF-RHF Final Energy:  -309.16902135272130
    Total Energy =                       -309.1690213527209607
  @DF-RHF Final Energy:  -309.16907463457932
    Total Energy =                       -309.1690746345797152
  Basis Set: CC-PVTZ
  Basis Set:
  @DF-RHF Final Energy:  -309.16909412156275
    Total Energy =                       -309.1690941215625799
  Basis Set: CC-PVTZ
  Basis Set:
  Basis Set: CC-PVTZ
  Basis Set:
  @DF-RHF Final Energy:  -309.16908219642255
    Total Energy =                       -309.1690821964228917
  Basis Set: CC-PVTZ
  Basis Set:
  Basis Set: CC-PVTZ
  Basis Set:
  @DF-RHF Final Energy:  -309.16909481902695
    Total Energy =                       -309.1690948190270092
  Basis Set: CC-PVTZ
  Basis Set:
  Charge       = 0
  Multiplicity = 1
  Basis Set: CC-PVTZ
  Basis Set:

    Orbital Energies (a.u.)
    -----------------------

    Doubly Occupied:

       1A    -20.536537     2A    -11.319059     3A    -11.229277
       4A    -11.227163     5A    -11.226921     6A    -11.223653
       7A    -11.213770     8A     -1.396717     9A     -1.089618
      10A     -1.027738    11A     -0.981906    12A     -0.903692
      13A     -0.795691    14A     -0.734414    15A     -0.663990
      16A     -0.653300    17A     -0.623941    18A     -0.605268
      19A     -0.586242    20A     -0.575235    21A     -0.551971
      22A     -0.545250    23A     -0.521571    24A     -0.504850
      25A     -0.481499    26A     -0.467118    27A     -0.461073
      28A     -0.399535

  @DF-RHF Final Energy:  -309.16909489614005

   => Energetics <=

    Nuclear Repulsion Energy =            305.5181523450809777
    One-Electron Energy =               -1024.2804936342631663
    Two-Electron Energy =                 409.5932463930420226
    DFT Exchange-Correlation Energy =       0.0000000000000000
    Empirical Dispersion Energy =           0.0000000000000000
    PCM Polarization Energy =               0.0000000000000000
    EFP Energy =                            0.0000000000000000
    Total Energy =                       -309.1690948961401091
    Molecular point group: c1
  Basis Set: CC-PVTZ
  Basis Set:

  -Total Gradient:
     Atom            X                  Y                   Z
    ------   -----------------  -----------------  -----------------
       1       -0.000006383562    -0.000002069948    -0.000006479641
       2        0.000002555354    -0.000000726412     0.000020178273
       3        0.000000827945    -0.000005316522     0.000000639685
       4       -0.000004595712     0.000004020848     0.000000665107
       5        0.002346454700    -0.001863089903    -0.004429854735
       6        0.000002451018     0.000002023493     0.000004629082
       7       -0.000002677531     0.000002196940    -0.000009897603
       8        0.000766052979    -0.005044022414    -0.000409786245
       9       -0.002241183798     0.002985464013     0.003955261460
      10        0.000008399944    -0.000004837766     0.000002437448
      11       -0.000866610567     0.003921017209     0.000881547944
      12        0.000000734105     0.000000154399     0.000001007937
      13       -0.000004844072     0.000000966353    -0.000006806104
      14        0.000005905883     0.000001552794     0.000003083553
      15       -0.000006195056     0.000000378088    -0.000002684030
      16       -0.000001052799     0.000002171095     0.000001801864
      17        0.000002640311     0.000000157295    -0.000003264480
      18       -0.000002564537    -0.000002672856    -0.000002086008
      19        0.000000085392     0.000002633294    -0.000000393507

  **** Optimization is complete! (in 10 steps) ****
    Final optimized geometry and variables:
    Molecular point group: c1

    Geometry (in Angstrom), charge = 0, multiplicity = 1:

    O           -1.911180444384    -1.167412110261    -0.667189664690
    C           -1.499118486388    -0.099160139761    -0.350330427239
    C           -0.209442663083     0.039571185146     0.434563944211
    C           -2.226894463048     1.171215786028    -0.721322637687
    C            0.995207990635     0.017942895489    -0.521261685428
    H           -0.220532018963     0.961864473854     1.004811012223
    H           -0.162156573870    -0.789873956283     1.125696034383
    C            2.381740430730     0.174005501499     0.146787880646
    H            0.860908322185     0.838734545863    -1.217996075293
    H            0.952883841770    -0.902784109331    -1.088453171476
    C            2.471706001107    -0.139988588153     1.638903582318
    H            3.093112294199    -0.443191671934    -0.389604491877
    H            2.716740322916     1.197196803903     0.008812001252
    H            2.182993533720    -1.162012588771     1.858362263364
    H            1.844870637528     0.516620900173     2.229017088355
    H            3.491893051046    -0.010050686804     1.980755682157
    H           -3.032543378957     0.951984651025    -1.404994562062
    H           -1.546713589830     1.889072034130    -1.165602644342
    H           -2.629766347841     1.625490180041     0.178343282456

  Mulliken Charges: (a.u.)
   Center  Symbol    Alpha    Beta     Spin     Total
       1     O     4.17735  4.17735  0.00000 -0.35469
       2     C     2.85788  2.85788  0.00000  0.28425
       3     C     3.10261  3.10261  0.00000 -0.20522
       4     C     3.15596  3.15596  0.00000 -0.31193
       5     C     3.10524  3.10524  0.00000 -0.21047
       6     H     0.44865  0.44865  0.00000  0.10269
       7     H     0.43692  0.43692  0.00000  0.12616
       8     C     3.08818  3.08818  0.00000 -0.17636
       9     H     0.44941  0.44941  0.00000  0.10118
      10     H     0.43852  0.43852  0.00000  0.12296
      11     C     3.15681  3.15681  0.00000 -0.31362
      12     H     0.44740  0.44740  0.00000  0.10520
      13     H     0.45281  0.45281  0.00000  0.09439
      14     H     0.45060  0.45060  0.00000  0.09880
      15     H     0.45327  0.45327  0.00000  0.09346
      16     H     0.44318  0.44318  0.00000  0.11364
      17     H     0.43573  0.43573  0.00000  0.12855
      18     H     0.45108  0.45108  0.00000  0.09784
      19     H     0.44840  0.44840  0.00000  0.10320

   Total alpha = 28.00000, Total beta = 28.00000, Total charge = -0.00000
