                              Psi4 1.0.54 Driver

  ==> Input File <==

--------------------------------------------------------------------------
set {
	reference rhf
	basis cc-pvtz
}

set_num_threads( 4 )
memory 2 gb

molecule MOL {
0 1

H	 2.469628	 2.104516	 2.851340
N	 1.638450	 1.552993	 2.827200
C	 1.116707	 1.450723	 1.473396
H	 0.976084	 1.991959	 3.432120
C	 -0.102415	 0.541622	 1.428650
H	 1.898084	 1.032227	 0.847922
H	 0.857721	 2.419590	 1.044235
C	 -0.678115	 0.376691	 0.025731
H	 0.173486	 -0.426042	 1.834742
H	 -0.869465	 0.944318	 2.087401
C	 -1.900706	 -0.535531	 -0.022488
H	 0.089778	 -0.021836	 -0.633413
H	 -0.945259	 1.351985	 -0.374653
C	 -3.220513	 0.226854	 0.028039
H	 -1.865036	 -1.134397	 -0.928236
H	 -1.857948	 -1.236381	 0.806820
H	 -3.309098	 0.911849	 -0.808725
H	 -4.066838	 -0.449485	 -0.008086
H	 -3.301685	 0.809374	 0.939860

	symmetry c1
}
set optking {
	frozen_dihedral = ("
		12 8 11 15
	")
}

ee,wfn = optimize('scf', return_wfn=True)
oeprop( wfn, 'DIPOLE', 'QUADRUPOLE', 'MULLIKEN_CHARGES')
f=open( 'psi4out.xyz', 'w' )
f.write( "19  " )
f.write( str(ee) + "\n" )
f.write( MOL.save_string_xyz() )
f.close()
--------------------------------------------------------------------------

    Molecular point group: c1
  Charge       = 0
  Multiplicity = 1
  Basis Set: CC-PVTZ
  Basis Set:
  @DF-RHF Final Energy:  -251.44395461012613
    Total Energy =                       -251.4439546101260703
    Molecular point group: c1
  Basis Set: CC-PVTZ
  Basis Set:
  Basis Set: CC-PVTZ
  Basis Set:
  @DF-RHF Final Energy:  -251.44421945025275
    Total Energy =                       -251.4442194502528309
  Basis Set: CC-PVTZ
  Basis Set:
  Basis Set: CC-PVTZ
  Basis Set:
  @DF-RHF Final Energy:  -251.44429199173015
    Total Energy =                       -251.4442919917302106
  Basis Set: CC-PVTZ
  Basis Set:
  Charge       = 0
  Multiplicity = 1
  Basis Set: CC-PVTZ
  Basis Set:

    Orbital Energies (a.u.)
    -----------------------

    Doubly Occupied:

       1A    -15.526486     2A    -11.237890     3A    -11.211788
       4A    -11.210313     5A    -11.208095     6A    -11.206164
       7A     -1.178192     8A     -1.072854     9A     -0.997959
      10A     -0.902399    11A     -0.819262    12A     -0.785067
      13A     -0.664631    14A     -0.637936    15A     -0.612027
      16A     -0.602010    17A     -0.563158    18A     -0.557871
      19A     -0.519357    20A     -0.497773    21A     -0.493352
      22A     -0.462974    23A     -0.453567    24A     -0.450915
      25A     -0.383850

  @DF-RHF Final Energy:  -251.44429293205653

   => Energetics <=

    Nuclear Repulsion Energy =            248.0332874247316397
    One-Electron Energy =                -830.4433820307851875
    Two-Electron Energy =                 330.9658016739968502
    DFT Exchange-Correlation Energy =       0.0000000000000000
    Empirical Dispersion Energy =           0.0000000000000000
    PCM Polarization Energy =               0.0000000000000000
    EFP Energy =                            0.0000000000000000
    Total Energy =                       -251.4442929320567259
    Molecular point group: c1
  Basis Set: CC-PVTZ
  Basis Set:

  -Total Gradient:
     Atom            X                  Y                   Z
    ------   -----------------  -----------------  -----------------
       1        0.000016482827     0.000009240287     0.000029825618
       2        0.000044104947     0.000023071257    -0.000005604497
       3       -0.000007416259    -0.000035083116     0.000012007353
       4       -0.000003391463     0.000006943095     0.000006000551
       5       -0.000009393822     0.000006866257    -0.000016168522
       6        0.000010870713     0.000011805482    -0.000006033374
       7        0.000005107091    -0.000001372909     0.000006644131
       8        0.001819797687    -0.002909878039     0.003501961701
       9       -0.000012629696     0.000004533656    -0.000009524145
      10       -0.000010994264    -0.000003475556    -0.000019181437
      11       -0.002257926037     0.003457222044    -0.002669624061
      12       -0.001132129237     0.001927502702    -0.002509818373
      13        0.000014727819    -0.000016380474     0.000007409488
      14       -0.000051600944     0.000001983999     0.000014436641
      15        0.001566318909    -0.002481418854     0.001669359997
      16       -0.000017793720     0.000019530547    -0.000019737303
      17        0.000032032221    -0.000008761173     0.000010129430
      18       -0.000013725233    -0.000003752373    -0.000003116736
      19        0.000007558458    -0.000008576834     0.000001033534

  **** Optimization is complete! (in 4 steps) ****
    Final optimized geometry and variables:
    Molecular point group: c1

    Geometry (in Angstrom), charge = 0, multiplicity = 1:

    H            2.959787733719     1.451653517613     1.905605139162
    N            2.134799202300     0.891660829515     1.867064030754
    C            1.620239478899     0.809055511329     0.509121278766
    H            1.465059829467     1.312382504410     2.476861783264
    C            0.412259000812    -0.113230954574     0.440880129771
    H            2.409046896860     0.411405717731    -0.120804231805
    H            1.351967502974     1.782760511195     0.097109584048
    C           -0.141862800349    -0.275032226840    -0.971381607474
    H            0.693602917289    -1.081680585008     0.840610700624
    H           -0.366792977159     0.274768654729     1.094288113724
    C           -1.411357342089    -1.138667569278    -1.045272362434
    H            0.622668364652    -0.689614653867    -1.621294817119
    H           -0.360795175455     0.707264241980    -1.384154636914
    C           -2.707017361617    -0.337823307294    -0.966038485117
    H           -1.399211088815    -1.731736684661    -1.953446519305
    H           -1.392773338105    -1.862816958259    -0.235343193401
    H           -2.796332581096     0.341810176953    -1.806791007742
    H           -3.573081537216    -0.989896886974    -0.973249563980
    H           -2.749487501584     0.254674294988    -0.058128909852

  Mulliken Charges: (a.u.)
   Center  Symbol    Alpha    Beta     Spin     Total
       1     H     0.43020  0.43020  0.00000  0.13960
       2     N     3.68911  3.68911  0.00000 -0.37823
       3     C     3.02724  3.02724  0.00000 -0.05447
       4     H     0.43111  0.43111  0.00000  0.13777
       5     C     3.08183  3.08183  0.00000 -0.16367
       6     H     0.45706  0.45706  0.00000  0.08588
       7     H     0.46791  0.46791  0.00000  0.06417
       8     C     3.10039  3.10039  0.00000 -0.20077
       9     H     0.44849  0.44849  0.00000  0.10302
      10     H     0.45987  0.45987  0.00000  0.08026
      11     C     3.09032  3.09032  0.00000 -0.18064
      12     H     0.44776  0.44776  0.00000  0.10448
      13     H     0.45862  0.45862  0.00000  0.08275
      14     C     3.14719  3.14719  0.00000 -0.29438
      15     H     0.44804  0.44804  0.00000  0.10391
      16     H     0.45514  0.45514  0.00000  0.08972
      17     H     0.45537  0.45537  0.00000  0.08925
      18     H     0.44868  0.44868  0.00000  0.10265
      19     H     0.45565  0.45565  0.00000  0.08869

   Total alpha = 25.00000, Total beta = 25.00000, Total charge = -0.00000

*** Psi4 exiting successfully. Buy a developer a beer!
