                              Psi4 1.0.54 Driver

  ==> Input File <==

--------------------------------------------------------------------------
set {
	reference rhf
	basis cc-pvtz
}

set_num_threads( 4 )
memory 2 gb

molecule MOL {
0 1

O	 1.450887	 -0.066038	 0.768187
C	 0.576499	 0.134701	 -0.003900
C	 -0.765656	 -0.550508	 -0.002152
O	 0.671688	 1.002260	 -0.998009
C	 -1.945526	 0.411052	 0.000603
H	 -0.794329	 -1.203792	 -0.868145
H	 -0.791555	 -1.205429	 0.862701
C	 -3.282915	 -0.321280	 0.002596
H	 -1.880300	 1.059126	 -0.864925
H	 -1.877207	 1.057892	 0.866807
H	 -3.388495	 -0.952755	 -0.873419
H	 -4.107811	 0.380864	 0.004116
H	 -3.385717	 -0.953283	 0.878571
C	 1.885238	 1.716320	 -1.122208
H	 2.074056	 2.303796	 -0.236052
H	 1.764349	 2.360871	 -1.977561
H	 2.711580	 1.039142	 -1.279151

	symmetry c1
}
set optking {
	frozen_dihedral = ("
		1 2 3 6
	")
}

ee,wfn = optimize('scf', return_wfn=True)
oeprop( wfn, 'DIPOLE', 'QUADRUPOLE', 'MULLIKEN_CHARGES')
f=open( 'psi4out.xyz', 'w' )
f.write( "17  " )
f.write( str(ee) + "\n" )
f.write( MOL.save_string_xyz() )
f.close()
--------------------------------------------------------------------------

    Molecular point group: c1
  Charge       = 0
  Multiplicity = 1
  Basis Set: CC-PVTZ
  Basis Set:
  @DF-RHF Final Energy:  -345.03365853410980
    Total Energy =                       -345.0336585341100317
    Molecular point group: c1
  Basis Set: CC-PVTZ
  Basis Set:
  Basis Set: CC-PVTZ
  Basis Set:
  @DF-RHF Final Energy:  -345.03343944538921
    Total Energy =                       -345.0334394453892628
  Basis Set: CC-PVTZ
  Basis Set:
  Basis Set: CC-PVTZ
  Basis Set:
  @DF-RHF Final Energy:  -345.03358570930237
    Total Energy =                       -345.0335857093018603
  Basis Set: CC-PVTZ
  Basis Set:
  Basis Set: CC-PVTZ
  Basis Set:
  @DF-RHF Final Energy:  -345.03394338059883
    Total Energy =                       -345.0339433805988847
  Basis Set: CC-PVTZ
  Basis Set:
  Basis Set: CC-PVTZ
  Basis Set:
  @DF-RHF Final Energy:  -345.03394724712308
    Total Energy =                       -345.0339472471231375
  Basis Set: CC-PVTZ
  Basis Set:
  Charge       = 0
  Multiplicity = 1
  Basis Set: CC-PVTZ
  Basis Set:

    Orbital Energies (a.u.)
    -----------------------

    Doubly Occupied:

       1A    -20.597524     2A    -20.532931     3A    -11.364109
       4A    -11.279045     5A    -11.233536     6A    -11.228295
       7A    -11.216306     8A     -1.472513     9A     -1.364973
      10A     -1.085290    11A     -0.999653    12A     -0.942838
      13A     -0.832200    14A     -0.776521    15A     -0.699176
      16A     -0.684086    17A     -0.676321    18A     -0.638905
      19A     -0.597491    20A     -0.577962    21A     -0.552430
      22A     -0.544222    23A     -0.526741    24A     -0.512447
      25A     -0.490282    26A     -0.483220    27A     -0.459488
      28A     -0.434757

  @DF-RHF Final Energy:  -345.03394803777587

   => Energetics <=

    Nuclear Repulsion Energy =            314.7313035368232477
    One-Electron Energy =               -1093.9239812641540084
    Two-Electron Energy =                 434.1587296895546615
    DFT Exchange-Correlation Energy =       0.0000000000000000
    Empirical Dispersion Energy =           0.0000000000000000
    PCM Polarization Energy =               0.0000000000000000
    EFP Energy =                            0.0000000000000000
    Total Energy =                       -345.0339480377760992
    Molecular point group: c1
  Basis Set: CC-PVTZ
  Basis Set:

  -Total Gradient:
     Atom            X                  Y                   Z
    ------   -----------------  -----------------  -----------------
       1        0.000172636994    -0.000423610838    -0.000461393717
       2       -0.000202064483     0.000462456476     0.000774524583
       3       -0.000201646601     0.000374261565    -0.000621803039
       4       -0.000035126899     0.000053493890    -0.000058785122
       5        0.000007062236     0.000011372980    -0.000008460027
       6        0.000247374107    -0.000445908476     0.000366606639
       7       -0.000003311092    -0.000009001211    -0.000004562138
       8       -0.000009128432    -0.000010926081     0.000024696023
       9        0.000019715048     0.000006936574     0.000002901586
      10       -0.000000746059    -0.000000097373    -0.000011415554
      11       -0.000006253631    -0.000004700995    -0.000010685307
      12        0.000005155568    -0.000001191057     0.000003932124
      13       -0.000007924011    -0.000007969261    -0.000003533936
      14        0.000007460480    -0.000018980170     0.000008409804
      15        0.000003096784     0.000006440704     0.000005724067
      16       -0.000000886983    -0.000000475428    -0.000002892124
      17        0.000004586971     0.000007898704    -0.000003263860

  **** Optimization is complete! (in 6 steps) ****
    Final optimized geometry and variables:
    Molecular point group: c1

    Geometry (in Angstrom), charge = 0, multiplicity = 1:

    O            1.632940642824    -0.379099087023     0.960335793685
    C            0.754326475512    -0.187454023535     0.190051757096
    C           -0.575722897874    -0.896134640211     0.216200053805
    O            0.848872072875     0.667582569349    -0.814771246676
    C           -1.786644795391     0.037878116181     0.193976247453
    H           -0.604104975855    -1.557137604473    -0.644881058332
    H           -0.581840814860    -1.514527503190     1.102467190335
    C           -3.101022311312    -0.730871517888     0.269812810606
    H           -1.763041957355     0.638343576237    -0.706101866608
    H           -1.721986194545     0.726761687472     1.030643964660
    H           -3.207400155519    -1.407488495105    -0.571512134777
    H           -3.946396049421    -0.053413552364     0.258442803412
    H           -3.160672074740    -1.320333190026     1.178209449303
    C            2.064230559713     1.376065341043    -0.951371647912
    H            2.259255946884     1.970979500841    -0.071567991712
    H            1.942292665068     2.013099671339    -1.812347385362
    H            2.887297868129     0.694157719950    -1.105176313841

  Mulliken Charges: (a.u.)
   Center  Symbol    Alpha    Beta     Spin     Total
       1     O     4.19915  4.19915  0.00000 -0.39830
       2     C     2.81025  2.81025  0.00000  0.37950
       3     C     3.07909  3.07909  0.00000 -0.15818
       4     O     4.14871  4.14871  0.00000 -0.29742
       5     C     3.09016  3.09016  0.00000 -0.18031
       6     H     0.44793  0.44793  0.00000  0.10414
       7     H     0.43694  0.43694  0.00000  0.12612
       8     C     3.15146  3.15146  0.00000 -0.30292
       9     H     0.44332  0.44332  0.00000  0.11336
      10     H     0.44989  0.44989  0.00000  0.10023
      11     H     0.45445  0.45445  0.00000  0.09110
      12     H     0.44613  0.44613  0.00000  0.10774
      13     H     0.45313  0.45313  0.00000  0.09374
      14     C     3.03646  3.03646  0.00000 -0.07292
      15     H     0.45408  0.45408  0.00000  0.09184
      16     H     0.44580  0.44580  0.00000  0.10841
      17     H     0.45305  0.45305  0.00000  0.09389

   Total alpha = 28.00000, Total beta = 28.00000, Total charge =  0.00000

*** Psi4 exiting successfully. Buy a developer a beer!
