  ==> Input File <==

--------------------------------------------------------------------------
set {
	reference rhf
	basis cc-pvtz
}

set_num_threads( 4 )
memory 2 gb

molecule MOL {
0 1

H	 1.744779	 -0.064186	 -1.224655
O	 1.675515	 -0.612943	 -0.465627
C	 1.135873	 0.113391	 0.608264
C	 0.027642	 1.012027	 0.090274
H	 1.902972	 0.727968	 1.072615
H	 0.756163	 -0.561896	 1.370018
C	 -1.138737	 0.285728	 -0.581921
H	 0.464661	 1.708096	 -0.618252
H	 -0.340737	 1.603071	 0.925246
C	 -1.933983	 -0.631436	 0.343653
H	 -0.763151	 -0.285569	 -1.422081
H	 -1.808359	 1.035291	 -0.992333
H	 -2.789188	 -1.049673	 -0.174718
H	 -1.335629	 -1.461368	 0.700418
H	 -2.305435	 -0.092167	 1.209725

	symmetry c1
}
set optking {
	frozen_dihedral = ("
		1 2 3 4
	")
}

ee = optimize('scf')
oeprop('DIPOLE', 'QUADRUPOLE', 'MULLIKEN_CHARGES')
f=open( 'psi4out.xyz', 'w' )
f.write( "15  " )
f.write( str(ee) + "\n" )
f.write( MOL.save_string_xyz() )
f.close()
--------------------------------------------------------------------------

    Molecular point group: c1
  Charge       = 0
  Multiplicity = 1
  Basis Set: CC-PVTZ
  Basis Set:
  @DF-RHF Final Energy:  -232.23487668859175
    Total Energy =                       -232.2348766885917257
    Molecular point group: c1
  Basis Set: CC-PVTZ
  Basis Set:
  Basis Set: CC-PVTZ
  Basis Set:
  @DF-RHF Final Energy:  -232.23631526376218
    Total Energy =                       -232.2363152637620942
  Basis Set: CC-PVTZ
  Basis Set:
  Basis Set: CC-PVTZ
  Basis Set:
  @DF-RHF Final Energy:  -232.23666686638288
    Total Energy =                       -232.2366668663829614
  Basis Set: CC-PVTZ
  Basis Set:
  Basis Set: CC-PVTZ
  Basis Set:
  @DF-RHF Final Energy:  -232.23667009639277
    Total Energy =                       -232.2366700963930271
  Basis Set: CC-PVTZ
  Basis Set:
  Charge       = 0
  Multiplicity = 1
  Basis Set: CC-PVTZ
  Basis Set:

    Orbital Energies (a.u.)
    -----------------------

    Doubly Occupied:

       1A    -20.545729     2A    -11.264895     3A    -11.219756
       4A    -11.216601     5A    -11.207528     6A     -1.363814
       7A     -1.070841     8A     -0.974004     9A     -0.879828
      10A     -0.792341    11A     -0.671764    12A     -0.647673
      13A     -0.637206    14A     -0.585128    15A     -0.569923
      16A     -0.543889    17A     -0.506610    18A     -0.485450
      19A     -0.475585    20A     -0.457584    21A     -0.431287

  @DF-RHF Final Energy:  -232.23667046750944

   => Energetics <=

    Nuclear Repulsion Energy =            191.7048154668772781
    One-Electron Energy =                -694.7880998808911954
    Two-Electron Energy =                 270.8466139465046467
    DFT Exchange-Correlation Energy =       0.0000000000000000
    Empirical Dispersion Energy =           0.0000000000000000
    PCM Polarization Energy =               0.0000000000000000
    EFP Energy =                            0.0000000000000000
    Total Energy =                       -232.2366704675092706
    Molecular point group: c1
  Basis Set: CC-PVTZ
  Basis Set:

  -Total Gradient:
     Atom            X                  Y                   Z
    ------   -----------------  -----------------  -----------------
       1       -0.001748329178    -0.000572405869    -0.000566836819
       2        0.002507799022     0.001149849563     0.000656129454
       3       -0.001602049137    -0.001460382369     0.000149805506
       4        0.000849519421     0.000889000324    -0.000250878463
       5        0.000014296241    -0.000008292593    -0.000034724601
       6       -0.000023703179    -0.000019798586     0.000013549987
       7       -0.000015112865     0.000039430087     0.000005483508
       8       -0.000002777218    -0.000026135673    -0.000000259895
       9       -0.000006801822     0.000011254040    -0.000000335549
      10        0.000010215719     0.000003774395     0.000001357915
      11        0.000011652752     0.000018873203     0.000006917025
      12       -0.000010933126    -0.000006328194     0.000011839127
      13       -0.000000883939    -0.000012522422     0.000001076255
      14        0.000015934675    -0.000004285792     0.000014827422
      15        0.000001172635    -0.000002030115    -0.000007950875

  **** Optimization is complete! (in 5 steps) ****
    Final optimized geometry and variables:
    Molecular point group: c1

    Geometry (in Angstrom), charge = 0, multiplicity = 1:

    H            1.827106208433    -0.140364263930    -1.199770646285
    O            1.736334655155    -0.655319437434    -0.418747352536
    C            1.139763131483     0.109468078676     0.595542456256
    C            0.014866574195     1.006066737031     0.097903834686
    H            1.889942738788     0.725857532016     1.084699167586
    H            0.777973597092    -0.595126017206     1.331537084088
    C           -1.156115478223     0.283038645587    -0.571086045624
    H            0.434084568832     1.726013734468    -0.602795517936
    H           -0.349091431733     1.586264520321     0.941953079040
    C           -1.937262059247    -0.643218833559     0.356891679901
    H           -0.793264748548    -0.286325764372    -1.419987094002
    H           -1.831668202827     1.032136015253    -0.972159120284
    H           -2.793681061433    -1.064905932986    -0.156245247228
    H           -1.329215563303    -1.468944682050     0.705352780115
    H           -2.304738815571    -0.108088263704     1.226869307186

  Mulliken Charges: (a.u.)
   Center  Symbol    Alpha    Beta     Spin     Total
       1     H     0.39361  0.39361  0.00000  0.21278
       2     O     4.20621  4.20621  0.00000 -0.41241
       3     C     2.96895  2.96895  0.00000  0.06211
       4     C     3.11622  3.11622  0.00000 -0.23244
       5     H     0.46229  0.46229  0.00000  0.07543
       6     H     0.45997  0.45997  0.00000  0.08007
       7     C     3.08065  3.08065  0.00000 -0.16130
       8     H     0.45106  0.45106  0.00000  0.09789
       9     H     0.45105  0.45105  0.00000  0.09790
      10     C     3.15423  3.15423  0.00000 -0.30846
      11     H     0.45451  0.45451  0.00000  0.09098
      12     H     0.44905  0.44905  0.00000  0.10190
      13     H     0.44636  0.44636  0.00000  0.10727
      14     H     0.44993  0.44993  0.00000  0.10014
      15     H     0.45592  0.45592  0.00000  0.08816

   Total alpha = 21.00000, Total beta = 21.00000, Total charge = -0.00000
