  ==> Input File <==

--------------------------------------------------------------------------
set {
	reference rhf
	basis cc-pvtz
}

set_num_threads( 4 )
memory 2 gb

molecule MOL {
0 1

H	 1.957535	 2.265664	 -0.712634
N	 1.139994	 1.698303	 -0.785559
C	 1.263552	 0.494993	 0.021953
H	 1.025389	 1.469464	 -1.750875
C	 -0.016533	 -0.325589	 -0.026925
H	 1.453309	 0.800819	 1.045406
H	 2.103730	 -0.132873	 -0.277828
C	 -1.280353	 0.525521	 0.047747
H	 -0.016686	 -0.912532	 -0.939714
H	 -0.014099	 -1.037598	 0.796369
C	 -2.560681	 -0.301323	 -0.007747
H	 -1.279957	 1.241025	 -0.770189
H	 -1.270445	 1.110526	 0.963468
H	 -2.617064	 -0.872870	 -0.928010
H	 -3.439525	 0.331102	 0.043462
H	 -2.609427	 -1.002736	 0.818585

	symmetry c1
}
set optking {
	frozen_dihedral = ("
		6 3 5 9
	")
}

ee = optimize('scf')
oeprop('DIPOLE', 'QUADRUPOLE', 'MULLIKEN_CHARGES')
f=open( 'psi4out.xyz', 'w' )
f.write( "16  " )
f.write( str(ee) + "\n" )
f.write( MOL.save_string_xyz() )
f.close()
--------------------------------------------------------------------------

    Molecular point group: c1
  Charge       = 0
  Multiplicity = 1
  Basis Set: CC-PVTZ
  Basis Set:
  @DF-RHF Final Energy:  -212.39645214304343
    Total Energy =                       -212.3964521430434047
    Molecular point group: c1
  Basis Set: CC-PVTZ
  Basis Set:
  Basis Set: CC-PVTZ
  Basis Set:
  @DF-RHF Final Energy:  -212.39739627728181
    Total Energy =                       -212.3973962772817572
  Basis Set: CC-PVTZ
  Basis Set:
  Basis Set: CC-PVTZ
  Basis Set:
  @DF-RHF Final Energy:  -212.39786124513563
    Total Energy =                       -212.3978612451358572
  Basis Set: CC-PVTZ
  Basis Set:
  Basis Set: CC-PVTZ
  Basis Set:
  @DF-RHF Final Energy:  -212.39788633827376
    Total Energy =                       -212.3978863382737927
  Basis Set: CC-PVTZ
  Basis Set:
  Basis Set: CC-PVTZ
  Basis Set:
  @DF-RHF Final Energy:  -212.39788763082618
    Total Energy =                       -212.3978876308262329
  Basis Set: CC-PVTZ
  Basis Set:
  Charge       = 0
  Multiplicity = 1
  Basis Set: CC-PVTZ
  Basis Set:

    Orbital Energies (a.u.)
    -----------------------

    Doubly Occupied:

       1A    -15.527588     2A    -11.239141     3A    -11.209013
       4A    -11.204055     5A    -11.201286     6A     -1.179279
       7A     -1.054058     8A     -0.959750     9A     -0.848631
      10A     -0.780685    11A     -0.668425    12A     -0.620907
      13A     -0.617994    14A     -0.575621    15A     -0.562935
      16A     -0.521793    17A     -0.498998    18A     -0.468694
      19A     -0.462707    20A     -0.456620    21A     -0.382080

  @DF-RHF Final Energy:  -212.39788792872997

   => Energetics <=

    Nuclear Repulsion Energy =            189.1756612646553322
    One-Electron Energy =                -661.0665779202587373
    Two-Electron Energy =                 259.4930287268734901
    DFT Exchange-Correlation Energy =       0.0000000000000000
    Empirical Dispersion Energy =           0.0000000000000000
    PCM Polarization Energy =               0.0000000000000000
    EFP Energy =                            0.0000000000000000
    Total Energy =                       -212.3978879287299151
    Molecular point group: c1
  Basis Set: CC-PVTZ
  Basis Set:

  -Total Gradient:
     Atom            X                  Y                   Z
    ------   -----------------  -----------------  -----------------
       1       -0.000004278839    -0.000015070923     0.000001271751
       2       -0.000025379130     0.000017913807    -0.000018171934
       3       -0.002506624754     0.004103019998    -0.000387090780
       4       -0.000000085818     0.000003574427    -0.000002990167
       5       -0.001965570264     0.003535617770    -0.002723610263
       6        0.002431890976    -0.004046979013     0.000777973775
       7       -0.000010187392    -0.000006133089     0.000009174050
       8        0.000001477507     0.000015289833     0.000035355611
       9        0.002072590451    -0.003627342062     0.002323725607
      10        0.000007878855     0.000011536366    -0.000002451600
      11        0.000002654856    -0.000001773586    -0.000015468809
      12       -0.000006606486    -0.000000780192     0.000003983909
      13       -0.000005279906     0.000009361562     0.000001330949
      14       -0.000001686069    -0.000006163190    -0.000002439115
      15        0.000007307305     0.000000930703    -0.000003505346
      16        0.000001898707     0.000006997589     0.000002912364

  **** Optimization is complete! (in 6 steps) ****
    Final optimized geometry and variables:
    Molecular point group: c1

    Geometry (in Angstrom), charge = 0, multiplicity = 1:

    H            2.356629530101     1.793748853299    -0.512268172948
    N            1.516310458719     1.270359652514    -0.635977496118
    C            1.520421052902     0.079796225860     0.197685875876
    H            1.461950933951     1.026830177774    -1.603425993652
    C            0.224254309501    -0.722474312265     0.098583491302
    H            1.680967616431     0.374213535024     1.229413344359
    H            2.345394924218    -0.593094421617    -0.040789109134
    C           -1.060642755659     0.090495927330     0.212671027758
    H            0.229324237566    -1.310141141308    -0.817626454618
    H            0.246392548317    -1.461515937835     0.896563472374
    C           -2.309295452059    -0.785610730288     0.207912121383
    H           -1.114423236535     0.807814007147    -0.596035080995
    H           -1.030111481792     0.674637800689     1.128265258483
    H           -2.378812284290    -1.364293814537    -0.707751617969
    H           -3.208674611730    -0.185534860205     0.286636547941
    H           -2.305060540079    -1.484615429310     1.038071796700

  Mulliken Charges: (a.u.)
   Center  Symbol    Alpha    Beta     Spin     Total
       1     H     0.42915  0.42915  0.00000  0.14169
       2     N     3.68798  3.68798  0.00000 -0.37595
       3     C     3.03788  3.03788  0.00000 -0.07576
       4     H     0.43102  0.43102  0.00000  0.13797
       5     C     3.09643  3.09643  0.00000 -0.19287
       6     H     0.45554  0.45554  0.00000  0.08892
       7     H     0.46147  0.46147  0.00000  0.07705
       8     C     3.07299  3.07299  0.00000 -0.14598
       9     H     0.45456  0.45456  0.00000  0.09087
      10     H     0.45354  0.45354  0.00000  0.09291
      11     C     3.15059  3.15059  0.00000 -0.30118
      12     H     0.44997  0.44997  0.00000  0.10005
      13     H     0.45640  0.45640  0.00000  0.08720
      14     H     0.45687  0.45687  0.00000  0.08627
      15     H     0.44876  0.44876  0.00000  0.10247
      16     H     0.45683  0.45683  0.00000  0.08635

   Total alpha = 21.00000, Total beta = 21.00000, Total charge = -0.00000
