  ==> Input File <==

--------------------------------------------------------------------------
set {
	reference rhf
	basis cc-pvtz
}

set_num_threads( 4 )
memory 2 gb

molecule MOL {
0 1

O	 0.948244	 0.918600	 0.801257
C	 0.576499	 0.134701	 -0.003900
C	 -0.765656	 -0.550508	 -0.002152
O	 1.314404	 -0.256743	 -1.029687
C	 -1.945526	 0.411052	 0.000603
H	 -0.794329	 -1.203792	 -0.868145
H	 -0.791555	 -1.205429	 0.862701
C	 -3.282915	 -0.321280	 0.002596
H	 -1.880300	 1.059126	 -0.864925
H	 -1.877207	 1.057892	 0.866807
H	 -3.388495	 -0.952755	 -0.873419
H	 -4.107811	 0.380864	 0.004116
H	 -3.385717	 -0.953283	 0.878571
C	 2.605510	 0.305409	 -1.152335
H	 2.545306	 1.378121	 -1.260583
H	 3.038170	 -0.134378	 -2.036123
H	 3.206895	 0.071475	 -0.286510

	symmetry c1
}
set optking {
	frozen_dihedral = ("
		1 2 3 6
	")
}

ee = optimize('scf')
oeprop('DIPOLE', 'QUADRUPOLE', 'MULLIKEN_CHARGES')
f=open( 'psi4out.xyz', 'w' )
f.write( "17  " )
f.write( str(ee) + "\n" )
f.write( MOL.save_string_xyz() )
f.close()
--------------------------------------------------------------------------

    Molecular point group: c1
  Charge       = 0
  Multiplicity = 1
  Basis Set: CC-PVTZ
  Basis Set:
  @DF-RHF Final Energy:  -345.03344200529801
    Total Energy =                       -345.0334420052979567
    Molecular point group: c1
  Basis Set: CC-PVTZ
  Basis Set:
  Basis Set: CC-PVTZ
  Basis Set:
  @DF-RHF Final Energy:  -345.03398482001921
    Total Energy =                       -345.0339848200193273
  Basis Set: CC-PVTZ
  Basis Set:
  Basis Set: CC-PVTZ
  Basis Set:
  @DF-RHF Final Energy:  -345.03356869991615
    Total Energy =                       -345.0335686999160316
  Basis Set: CC-PVTZ
  Basis Set:
  Basis Set: CC-PVTZ
  Basis Set:
  @DF-RHF Final Energy:  -345.03404829882805
    Total Energy =                       -345.0340482988282247
  Basis Set: CC-PVTZ
  Basis Set:
  Basis Set: CC-PVTZ
  Basis Set:
  @DF-RHF Final Energy:  -345.03405138113351
    Total Energy =                       -345.0340513811332812
  Basis Set: CC-PVTZ
  Basis Set:
  Charge       = 0
  Multiplicity = 1
  Basis Set: CC-PVTZ
  Basis Set:

    Orbital Energies (a.u.)
    -----------------------

    Doubly Occupied:

       1A    -20.599117     2A    -20.531623     3A    -11.364448
       4A    -11.278843     5A    -11.232903     6A    -11.226232
       7A    -11.214802     8A     -1.472995     9A     -1.364992
      10A     -1.082905    11A     -1.001660    12A     -0.942026
      13A     -0.828944    14A     -0.773775    15A     -0.701120
      16A     -0.684153    17A     -0.676129    18A     -0.637702
      19A     -0.596119    20A     -0.582917    21A     -0.561667
      22A     -0.535498    23A     -0.526716    24A     -0.504007
      25A     -0.485708    26A     -0.482439    27A     -0.458804
      28A     -0.438158

  @DF-RHF Final Energy:  -345.03405173610048

   => Energetics <=

    Nuclear Repulsion Energy =            313.3744502587806551
    One-Electron Energy =               -1091.2442062880331832
    Two-Electron Energy =                 432.8357042931523324
    DFT Exchange-Correlation Energy =       0.0000000000000000
    Empirical Dispersion Energy =           0.0000000000000000
    PCM Polarization Energy =               0.0000000000000000
    EFP Energy =                            0.0000000000000000
    Total Energy =                       -345.0340517361002526
    Molecular point group: c1
  Basis Set: CC-PVTZ
  Basis Set:

  -Total Gradient:
     Atom            X                  Y                   Z
    ------   -----------------  -----------------  -----------------
       1        0.000191530601    -0.000353115690     0.000226508654
       2       -0.000236789286     0.000444842880    -0.000250115231
       3       -0.000131375613     0.000250086545    -0.000214673300
       4        0.000011244153    -0.000007164860     0.000008265560
       5        0.000003889145     0.000015889143     0.000000633945
       6        0.000167933132    -0.000348368832     0.000229895715
       7       -0.000002388452     0.000007610713    -0.000012411656
       8        0.000005719469    -0.000009421918     0.000016217681
       9        0.000009229636    -0.000017277237     0.000006854124
      10       -0.000012972148     0.000007791666    -0.000002058962
      11        0.000005921420     0.000005956983    -0.000002291163
      12        0.000005019308     0.000006508867     0.000002470865
      13       -0.000000978631    -0.000005155958    -0.000003511854
      14       -0.000030182737     0.000000061607    -0.000004407355
      15        0.000008447951     0.000003667902    -0.000001883565
      16        0.000005253308     0.000000102024    -0.000000667843
      17        0.000000498749    -0.000002013834     0.000001174385

  **** Optimization is complete! (in 6 steps) ****
    Final optimized geometry and variables:
    Molecular point group: c1

    Geometry (in Angstrom), charge = 0, multiplicity = 1:

    O            0.957253597884     0.795306326321     1.005068872659
    C            0.619044849017     0.015861214268     0.179495053614
    C           -0.718382999516    -0.681481928049     0.172013553683
    O            1.386516430937    -0.341636925107    -0.834785577287
    C           -1.881727982984     0.311247698888     0.190722860614
    H           -0.779927883075    -1.339536084407    -0.683217401320
    H           -0.751327509175    -1.295502023713     1.065903473389
    C           -3.234494838249    -0.388129727720     0.252127234238
    H           -1.835196855660     0.933855352716    -0.697549407413
    H           -1.764965039976     0.971614710441     1.040275123115
    H           -3.381348282022    -1.039710978507    -0.602653876707
    H           -4.042350158745     0.333692908081     0.260443137446
    H           -3.321421138960    -0.992914486079     1.148466245981
    C            2.670674521619     0.244939510217    -0.912400283023
    H            2.594141084171     1.318513643802    -0.999066931511
    H            3.133550969425    -0.168453899720    -1.793687438195
    H            3.253040605574     0.002778407803    -0.035931512860

  Mulliken Charges: (a.u.)
   Center  Symbol    Alpha    Beta     Spin     Total
       1     O     4.20436  4.20436  0.00000 -0.40871
       2     C     2.81273  2.81273  0.00000  0.37453
       3     C     3.08136  3.08136  0.00000 -0.16271
       4     O     4.14346  4.14346  0.00000 -0.28692
       5     C     3.08694  3.08694  0.00000 -0.17388
       6     H     0.43993  0.43993  0.00000  0.12014
       7     H     0.44555  0.44555  0.00000  0.10890
       8     C     3.15130  3.15130  0.00000 -0.30259
       9     H     0.45189  0.45189  0.00000  0.09622
      10     H     0.43970  0.43970  0.00000  0.12060
      11     H     0.45516  0.45516  0.00000  0.08968
      12     H     0.44600  0.44600  0.00000  0.10801
      13     H     0.45376  0.45376  0.00000  0.09248
      14     C     3.03458  3.03458  0.00000 -0.06917
      15     H     0.45406  0.45406  0.00000  0.09187
      16     H     0.44512  0.44512  0.00000  0.10976
      17     H     0.45410  0.45410  0.00000  0.09180

   Total alpha = 28.00000, Total beta = 28.00000, Total charge = -0.00000
