                              Psi4 1.0.54 Driver

  ==> Input File <==

--------------------------------------------------------------------------
set {
	reference rhf
	basis cc-pvtz
}

set_num_threads( 4 )
memory 2 gb

molecule MOL {
0 1

H	 3.721907	 -0.933076	 -0.066039
O	 2.824271	 -1.154299	 0.131461
C	 2.076458	 -0.067370	 -0.038225
C	 0.626018	 -0.337582	 0.258241
O	 2.538288	 0.965419	 -0.381593
C	 -0.267326	 0.883135	 0.076490
H	 0.325620	 -1.161483	 -0.378003
H	 0.574537	 -0.713685	 1.275261
C	 -1.726822	 0.642622	 0.463839
H	 -0.210803	 1.217591	 -0.953497
H	 0.129920	 1.693110	 0.675679
C	 -2.517868	 1.899650	 0.821844
H	 -1.741913	 -0.029191	 1.316889
H	 -2.233819	 0.116492	 -0.342130
C	 -3.932508	 1.588939	 1.300097
H	 -1.987446	 2.445628	 1.597470
H	 -2.574726	 2.563418	 -0.034973
H	 -4.470748	 2.496066	 1.549298
H	 -3.917253	 0.959553	 2.183465
H	 -4.498508	 1.068426	 0.534678

	symmetry c1
}
set optking {
	frozen_dihedral = ("
		12 9 6 10
	")
}

ee,wfn = optimize('scf', return_wfn=True)
oeprop( wfn, 'DIPOLE', 'QUADRUPOLE', 'MULLIKEN_CHARGES')
f=open( 'psi4out.xyz', 'w' )
f.write( "20  " )
f.write( str(ee) + "\n" )
f.write( MOL.save_string_xyz() )
f.close()
--------------------------------------------------------------------------

    Molecular point group: c1
  Charge       = 0
  Multiplicity = 1
  Basis Set: CC-PVTZ
  Basis Set:
  @DF-RHF Final Energy:  -384.09449387750828
    Total Energy =                       -384.0944938775090804
    Molecular point group: c1
  Basis Set: CC-PVTZ
  Basis Set:
  Basis Set: CC-PVTZ
  Basis Set:
  @DF-RHF Final Energy:  -384.09509329175484
    Total Energy =                       -384.0950932917551199
  Basis Set: CC-PVTZ
  Basis Set:
  Basis Set: CC-PVTZ
  Basis Set:
  @DF-RHF Final Energy:  -384.09521637440599
    Total Energy =                       -384.0952163744060499
  Basis Set: CC-PVTZ
  Basis Set:
  Basis Set: CC-PVTZ
  Basis Set:
  @DF-RHF Final Energy:  -384.09525983004539
    Total Energy =                       -384.0952598300459613
  Basis Set: CC-PVTZ
  Basis Set:
  Basis Set: CC-PVTZ
  Basis Set:
  @DF-RHF Final Energy:  -384.09526883059169
    Total Energy =                       -384.0952688305914080
  Basis Set: CC-PVTZ
  Basis Set:
  Charge       = 0
  Multiplicity = 1
  Basis Set: CC-PVTZ
  Basis Set:

    Orbital Energies (a.u.)
    -----------------------

    Doubly Occupied:

       1A    -20.603878     2A    -20.540500     3A    -11.373301
       4A    -11.239051     5A    -11.220876     6A    -11.218343
       7A    -11.216623     8A    -11.209196     9A     -1.477467
      10A     -1.368979    11A     -1.096828    12A     -1.043852
      13A     -0.960328    14A     -0.869698    15A     -0.805165
      16A     -0.791075    17A     -0.703690    18A     -0.689179
      19A     -0.671988    20A     -0.639911    21A     -0.597898
      22A     -0.596269    23A     -0.570502    24A     -0.563890
      25A     -0.540118    26A     -0.509912    27A     -0.490333
      28A     -0.484415    29A     -0.473551    30A     -0.466767
      31A     -0.465663    32A     -0.443859

  @DF-RHF Final Energy:  -384.09526935661256

   => Energetics <=

    Nuclear Repulsion Energy =            372.2652678438849989
    One-Electron Energy =               -1260.8348621934962921
    Two-Electron Energy =                 504.4743249929985609
    DFT Exchange-Correlation Energy =       0.0000000000000000
    Empirical Dispersion Energy =           0.0000000000000000
    PCM Polarization Energy =               0.0000000000000000
    EFP Energy =                            0.0000000000000000
    Total Energy =                       -384.0952693566127323
    Molecular point group: c1
  Basis Set: CC-PVTZ
  Basis Set:

  -Total Gradient:
     Atom            X                  Y                   Z
    ------   -----------------  -----------------  -----------------
       1       -0.000043899445    -0.000011552515     0.000018384329
       2        0.000025357375     0.000027871643    -0.000052457621
       3        0.000046117193     0.000087939054     0.000047423462
       4       -0.000021478575    -0.000028372137    -0.000082702328
       5       -0.000052651373    -0.000106224994     0.000022174102
       6       -0.000221881571     0.004326855319     0.002450127605
       7        0.000017677135     0.000004582216     0.000017035223
       8       -0.000006049228     0.000018799696     0.000007296257
       9       -0.000883564139    -0.000539588467    -0.003915852662
      10        0.000406847601    -0.003543750318    -0.001127529578
      11        0.000001802471     0.000031699771     0.000004143324
      12        0.000704239585    -0.000242890745     0.002615290491
      13       -0.000033674585    -0.000009959656    -0.000001293966
      14        0.000018142443    -0.000001535861     0.000002795115
      15        0.000020774659    -0.000004686683    -0.000006010350
      16        0.000005026989     0.000003444789    -0.000007150749
      17       -0.000016095724    -0.000024392237     0.000005415129
      18        0.000012482356    -0.000002495750    -0.000001914136
      19        0.000005542241     0.000009108017    -0.000008419232
      20        0.000015284595     0.000005148857     0.000013245584

  **** Optimization is complete! (in 6 steps) ****
    Final optimized geometry and variables:
    Molecular point group: c1

    Geometry (in Angstrom), charge = 0, multiplicity = 1:

    H            3.680189556056    -1.539476655117    -0.536591335670
    O            2.792990434876    -1.730359210775    -0.271828403556
    C            2.066293868130    -0.624692133851    -0.408135548581
    C            0.634051236046    -0.844903631196    -0.003061120552
    O            2.530906016896     0.388313153323    -0.803074139716
    C           -0.241272091794     0.394297308044    -0.142302792661
    H            0.254524692083    -1.665089493954    -0.604188422215
    H            0.644280943649    -1.208633888933     1.019128110953
    C           -1.699795778101     0.110085964977     0.221458778049
    H           -0.177542423890     0.735478268295    -1.168665122613
    H            0.157818757734     1.185641992286     0.480372748975
    C           -2.490293663899     1.369687670308     0.564957856537
    H           -1.736763960501    -0.559367405950     1.078193693788
    H           -2.183048450566    -0.419218863799    -0.595217124805
    C           -3.954078130767     1.089526491268     0.886503771325
    H           -2.020925137164     1.859724475083     1.412881484276
    H           -2.430900496395     2.071583819865    -0.262602433630
    H           -4.482228435596     2.002166465857     1.137067087943
    H           -4.047114999766     0.411913769013     1.728882449087
    H           -4.460943210597     0.635700415450     0.041468856658

  Mulliken Charges: (a.u.)
   Center  Symbol    Alpha    Beta     Spin     Total
       1     H     0.38245  0.38245  0.00000  0.23509
       2     O     4.15980  4.15980  0.00000 -0.31959
       3     C     2.80532  2.80532  0.00000  0.38937
       4     C     3.11201  3.11201  0.00000 -0.22403
       5     O     4.19131  4.19131  0.00000 -0.38262
       6     C     3.08514  3.08514  0.00000 -0.17029
       7     H     0.43755  0.43755  0.00000  0.12490
       8     H     0.43828  0.43828  0.00000  0.12345
       9     C     3.08935  3.08935  0.00000 -0.17870
      10     H     0.44483  0.44483  0.00000  0.11034
      11     H     0.44603  0.44603  0.00000  0.10794
      12     C     3.08404  3.08404  0.00000 -0.16808
      13     H     0.45730  0.45730  0.00000  0.08540
      14     H     0.45259  0.45259  0.00000  0.09482
      15     C     3.15027  3.15027  0.00000 -0.30054
      16     H     0.45347  0.45347  0.00000  0.09306
      17     H     0.45246  0.45246  0.00000  0.09507
      18     H     0.44757  0.44757  0.00000  0.10486
      19     H     0.45539  0.45539  0.00000  0.08923
      20     H     0.45485  0.45485  0.00000  0.09031

   Total alpha = 32.00000, Total beta = 32.00000, Total charge =  0.00000

*** Psi4 exiting successfully. Buy a developer a beer!
