  ==> Input File <==

--------------------------------------------------------------------------
set {
	reference rhf
	basis 6-31G*
}

set_num_threads( 4 )
memory 2 gb

molecule MOL {
0 1

O	 -2.218281	 -2.747954	 0.745256
C	 -1.483196	 -3.071919	 -0.137428
C	 -0.550844	 -2.062497	 -0.784029
C	 -1.418096	 -4.499434	 -0.632743
C	 0.685253	 -1.815942	 0.095982
H	 -1.101179	 -1.135497	 -0.902797
H	 -0.243624	 -2.402143	 -1.769058
C	 1.631333	 -0.777471	 -0.511575
H	 0.345297	 -1.496411	 1.074611
H	 1.224639	 -2.750811	 0.240308
C	 2.915987	 -0.544314	 0.291766
H	 1.101727	 0.166774	 -0.624025
H	 1.903486	 -1.095980	 -1.515732
C	 3.373361	 0.914346	 0.347591
H	 3.708709	 -1.142521	 -0.150311
H	 2.780642	 -0.921148	 1.303579
H	 3.506512	 1.320010	 -0.651625
H	 4.322697	 0.999599	 0.867103
H	 2.660624	 1.545032	 0.868198
H	 -1.778957	 -4.547555	 -1.656817
H	 -2.027530	 -5.136584	 -0.007112
H	 -0.392930	 -4.858346	 -0.637476

	symmetry c1
}
set optking {
	frozen_dihedral = ("
		12 8 11 15
	")
}

ee = optimize('scf')
oeprop('DIPOLE', 'QUADRUPOLE', 'MULLIKEN_CHARGES')
f=open( 'psi4out.xyz', 'w' )
f.write( "22  " )
f.write( str(ee) + "\n" )
f.write( MOL.save_string_xyz() )
f.close()
--------------------------------------------------------------------------

    Molecular point group: c1
  Charge       = 0
  Multiplicity = 1
  Basis Set: 6-31G*
  Basis Set:
  @DF-RHF Final Energy:  -348.09540572442484
    Total Energy =                       -348.0954057244249498
    Molecular point group: c1
  Basis Set: 6-31G*
  Basis Set:
  Basis Set: 6-31G*
  Basis Set:
  @DF-RHF Final Energy:  -348.09572908017248
    Total Energy =                       -348.0957290801725890
  Basis Set: 6-31G*
  Basis Set:
  Basis Set: 6-31G*
  Basis Set:
  @DF-RHF Final Energy:  -348.09578269963043
    Total Energy =                       -348.0957826996303766
  Basis Set: 6-31G*
  Basis Set:
  Basis Set: 6-31G*
  Basis Set:
  @DF-RHF Final Energy:  -348.09586393000751
    Total Energy =                       -348.0958639300074537
  Basis Set: 6-31G*
  Basis Set:
  Basis Set: 6-31G*
  Basis Set:
  @DF-RHF Final Energy:  -348.09586846655174
    Total Energy =                       -348.0958684665522469
  Basis Set: 6-31G*
  Basis Set:
  Basis Set: 6-31G*
  Basis Set:
  @DF-RHF Final Energy:  -348.09586955372481
    Total Energy =                       -348.0958695537248104
  Basis Set: 6-31G*
  Basis Set:
  Charge       = 0
  Multiplicity = 1
  Basis Set: 6-31G*
  Basis Set:

    Orbital Energies (a.u.)
    -----------------------

    Doubly Occupied:

       1A    -20.547380     2A    -11.324534     3A    -11.230399
       4A    -11.229116     5A    -11.228217     6A    -11.221926
       7A    -11.220292     8A    -11.212101     9A     -1.393155
      10A     -1.094743    11A     -1.044756    12A     -1.000850
      13A     -0.938348    14A     -0.845989    15A     -0.798673
      16A     -0.732586    17A     -0.663475    18A     -0.645732
      19A     -0.630250    20A     -0.608770    21A     -0.596984
      22A     -0.582488    23A     -0.560002    24A     -0.554686
      25A     -0.528303    26A     -0.513412    27A     -0.500094
      28A     -0.486248    29A     -0.475143    30A     -0.463918
      31A     -0.458858    32A     -0.396104

  @DF-RHF Final Energy:  -348.09586996530430

   => Energetics <=

    Nuclear Repulsion Energy =            368.6856267939762688
    One-Electron Energy =               -1202.1079292254314623
    Two-Electron Energy =                 485.3264324661511182
    DFT Exchange-Correlation Energy =       0.0000000000000000
    Empirical Dispersion Energy =           0.0000000000000000
    PCM Polarization Energy =               0.0000000000000000
    EFP Energy =                            0.0000000000000000
    Total Energy =                       -348.0958699653040185
    Molecular point group: c1
  Basis Set: 6-31G*
  Basis Set:

  -Total Gradient:
     Atom            X                  Y                   Z
    ------   -----------------  -----------------  -----------------
       1        0.000016353218    -0.000003471987     0.000013571360
       2        0.000004096315    -0.000009286331    -0.000004454823
       3       -0.000000490836    -0.000008194851    -0.000011420001
       4       -0.000015276628     0.000008098661    -0.000013305869
       5        0.000007635454     0.000022844373    -0.000026643515
       6       -0.000013552880    -0.000005906637     0.000000881274
       7        0.000002639543     0.000014309602    -0.000003443037
       8       -0.002312297344    -0.000182496897     0.003584803854
       9       -0.000003308448     0.000024335699    -0.000016739213
      10        0.000002733692    -0.000007382004     0.000024959419
      11       -0.000727772759    -0.003525274784     0.002115901252
      12        0.002011135135     0.000698587121    -0.003350380590
      13       -0.000026060203    -0.000015119984     0.000006546180
      14        0.000004602843    -0.000027224581     0.000021283244
      15        0.001031541361     0.003045746254    -0.002351740727
      16        0.000010860971     0.000006250582     0.000009286655
      17       -0.000010269012    -0.000013902510    -0.000006709484
      18        0.000004547285    -0.000003498295    -0.000002258387
      19        0.000005984861    -0.000018659089     0.000005756724
      20        0.000004874843    -0.000001771688     0.000001411638
      21       -0.000001452733     0.000001132503    -0.000000611278
      22        0.000003475325     0.000000884841     0.000003305323

  **** Optimization is complete! (in 7 steps) ****
    Final optimized geometry and variables:
    Molecular point group: c1

    Geometry (in Angstrom), charge = 0, multiplicity = 1:

    O           -2.584910219443    -0.936852320415     0.824564367211
    C           -1.853901101063    -1.249262616920    -0.065500447290
    C           -0.932580592431    -0.229213845829    -0.711305196758
    C           -1.787808830434    -2.671187831077    -0.576964107438
    C            0.317148567054     0.004805606381     0.151349627061
    H           -1.485202401909     0.699054428512    -0.807470918683
    H           -0.640819295555    -0.554073806136    -1.706031509824
    C            1.257576022559     1.051634097194    -0.444689953131
    H            0.000707403803     0.317115047996     1.141809333650
    H            0.857847371216    -0.931781761433     0.277850228964
    C            2.541865932752     1.267569614086     0.379241419640
    H            0.732438664843     1.996471257271    -0.565940014487
    H            1.529821645298     0.750836762383    -1.454554163041
    C            2.998634920137     2.727639436529     0.395827011394
    H            3.345961099383     0.669281957561    -0.040309681823
    H            2.393234293860     0.929497224692     1.401162131005
    H            3.165368055955     3.096374901772    -0.612591078720
    H            3.926448989467     2.843377230252     0.947534331065
    H            2.252888952306     3.365642431468     0.861176537208
    H           -2.158889930402    -2.709656077968    -1.597756040370
    H           -2.388463388562    -3.317403253587     0.047825875868
    H           -0.761417225900    -3.025984605718    -0.595889419880

  Mulliken Charges: (a.u.)
   Center  Symbol    Alpha    Beta     Spin     Total
       1     O     4.26221  4.26221  0.00000 -0.52441
       2     C     2.73721  2.73721  0.00000  0.52558
       3     C     3.20065  3.20065  0.00000 -0.40129
       4     C     3.28956  3.28956  0.00000 -0.57911
       5     C     3.16332  3.16332  0.00000 -0.32663
       6     H     0.40100  0.40100  0.00000  0.19799
       7     H     0.41683  0.41683  0.00000  0.16634
       8     C     3.15399  3.15399  0.00000 -0.30798
       9     H     0.40567  0.40567  0.00000  0.18867
      10     H     0.42021  0.42021  0.00000  0.15958
      11     C     3.15452  3.15452  0.00000 -0.30904
      12     H     0.41835  0.41835  0.00000  0.16330
      13     H     0.42189  0.42189  0.00000  0.15623
      14     C     3.24067  3.24067  0.00000 -0.48134
      15     H     0.42032  0.42032  0.00000  0.15935
      16     H     0.41889  0.41889  0.00000  0.16223
      17     H     0.42157  0.42157  0.00000  0.15685
      18     H     0.41924  0.41924  0.00000  0.16153
      19     H     0.42024  0.42024  0.00000  0.15953
      20     H     0.40686  0.40686  0.00000  0.18629
      21     H     0.39707  0.39707  0.00000  0.20586
      22     H     0.40975  0.40975  0.00000  0.18050

   Total alpha = 32.00000, Total beta = 32.00000, Total charge =  0.00000
