  ==> Input File <==

--------------------------------------------------------------------------
set {
	reference rhf
	basis 6-31G*
}

set_num_threads( 4 )
memory 2 gb

molecule MOL {
0 1

H	 -2.646374	 -0.642757	 1.268656
C	 -2.083525	 -0.384536	 0.393091
O	 -0.807605	 -0.127164	 0.768327
F	 -2.118945	 -1.383102	 -0.486752
F	 -2.621877	 0.670592	 -0.209486
C	 0.084052	 0.273579	 -0.209957
C	 1.188767	 -0.773883	 -0.260812
Cl	 0.754708	 1.869969	 0.162836
H	 -0.373146	 0.330552	 -1.182324
F	 2.073474	 -0.464223	 -1.184687
F	 0.656199	 -1.937219	 -0.577764
F	 1.805239	 -0.898993	 0.889094

	symmetry c1
}
set optking {
	frozen_dihedral = ("
		9 6 3 2
	")
}

ee = optimize('scf')
oeprop('DIPOLE', 'QUADRUPOLE', 'MULLIKEN_CHARGES')
f=open( 'psi4out.xyz', 'w' )
f.write( "12  " )
f.write( str(ee) + "\n" )
f.write( MOL.save_string_xyz() )
f.close()
--------------------------------------------------------------------------

    Molecular point group: c1
  Charge       = 0
  Multiplicity = 1
  Basis Set: 6-31G*
  Basis Set:
  @DF-RHF Final Energy: -1146.31374234672967
    Total Energy =                      -1146.3137423467303506
    Molecular point group: c1
  Basis Set: 6-31G*
  Basis Set:
  Basis Set: 6-31G*
  Basis Set:
  @DF-RHF Final Energy: -1146.31390296343034
    Total Energy =                      -1146.3139029634303370
  Basis Set: 6-31G*
  Basis Set:
  Basis Set: 6-31G*
  Basis Set:
  @DF-RHF Final Energy: -1146.31396619090901
    Total Energy =                      -1146.3139661909099232
  Basis Set: 6-31G*
  Basis Set:
  Basis Set: 6-31G*
  Basis Set:
  @DF-RHF Final Energy: -1146.31398738400958
    Total Energy =                      -1146.3139873840100336
  Basis Set: 6-31G*
  Basis Set:
  Basis Set: 6-31G*
  Basis Set:
  @DF-RHF Final Energy: -1146.31399215141528
    Total Energy =                      -1146.3139921514148227
  Basis Set: 6-31G*
  Basis Set:
  Charge       = 0
  Multiplicity = 1
  Basis Set: 6-31G*
  Basis Set:

    Orbital Energies (a.u.)
    -----------------------

    Doubly Occupied:

       1A   -104.844695     2A    -26.359692     3A    -26.358432
       4A    -26.357268     5A    -26.346203     6A    -26.346134
       7A    -20.649175     8A    -11.526971     9A    -11.489556
      10A    -11.400936    11A    -10.579362    12A     -8.048726
      13A     -8.045178    14A     -8.045081    15A     -1.760807
      16A     -1.717700    17A     -1.657209    18A     -1.655883
      19A     -1.638285    20A     -1.485380    21A     -1.180764
      22A     -1.049663    23A     -0.987598    24A     -0.919295
      25A     -0.858740    26A     -0.852500    27A     -0.844647
      28A     -0.826494    29A     -0.811680    30A     -0.789742
      31A     -0.727948    32A     -0.724821    33A     -0.705646
      34A     -0.700866    35A     -0.676875    36A     -0.674773
      37A     -0.657942    38A     -0.656228    39A     -0.645600
      40A     -0.635176    41A     -0.596792    42A     -0.580119
      43A     -0.525044    44A     -0.477618    45A     -0.469104

  @DF-RHF Final Energy: -1146.31399267513643

   => Energetics <=

    Nuclear Repulsion Energy =            739.6447339518208537
    One-Electron Energy =               -3062.1407622920150970
    Two-Electron Energy =                1176.1820356650575832
    DFT Exchange-Correlation Energy =       0.0000000000000000
    Empirical Dispersion Energy =           0.0000000000000000
    PCM Polarization Energy =               0.0000000000000000
    EFP Energy =                            0.0000000000000000
    Total Energy =                      -1146.3139926751366602
    Molecular point group: c1
  Basis Set: 6-31G*
  Basis Set:

  -Total Gradient:
     Atom            X                  Y                   Z
    ------   -----------------  -----------------  -----------------
       1       -0.000023869199     0.000053517337     0.000007008014
       2        0.000388326202    -0.001538402390    -0.000157098146
       3       -0.000722897232     0.002575684019     0.000477582532
       4        0.000034033183     0.000043901654    -0.000032545037
       5       -0.000011026096     0.000006693664    -0.000025116790
       6        0.000789250588    -0.002822721911    -0.000588593954
       7       -0.000070366342    -0.000029933827     0.000041451195
       8       -0.000018901590    -0.000025212460     0.000002955532
       9       -0.000435758430     0.001744097189     0.000322152968
      10        0.000033854079    -0.000019783687     0.000028442724
      11        0.000007639265    -0.000026919123    -0.000032384338
      12        0.000029715538     0.000039079472    -0.000043854720

  **** Optimization is complete! (in 6 steps) ****
    Final optimized geometry and variables:
    Molecular point group: c1

    Geometry (in Angstrom), charge = 0, multiplicity = 1:

    H           -2.632606403720    -0.531256680662     1.331873801484
    C           -2.074316699818    -0.250095033575     0.460556917401
    O           -0.794869313180    -0.010134507661     0.834546650664
    F           -2.127115539583    -1.215626311907    -0.452706835185
    F           -2.608689261897     0.831520990320    -0.101119681534
    C            0.101529540518     0.375895726010    -0.148078423261
    C            1.224643235792    -0.652676126204    -0.190237007108
    CL           0.745264589556     1.982648609985     0.224023580916
    H           -0.356668365948     0.436585849870    -1.119455711970
    F            2.098848424915    -0.339898383750    -1.123255674451
    F            0.715985532930    -1.831802439707    -0.484833696846
    F            1.849554956492    -0.747151950951     0.958481690707

  Mulliken Charges: (a.u.)
   Center  Symbol    Alpha    Beta     Spin     Total
       1     H     0.40097  0.40097  0.00000  0.19806
       2     C     2.56620  2.56620  0.00000  0.86760
       3     O     4.29752  4.29752  0.00000 -0.59504
       4     F     4.68571  4.68571  0.00000 -0.37142
       5     F     4.68588  4.68588  0.00000 -0.37176
       6     C     3.04928  3.04928  0.00000 -0.09855
       7     C     2.43381  2.43381  0.00000  1.13239
       8    CL     8.49743  8.49743  0.00000  0.00513
       9     H     0.36574  0.36574  0.00000  0.26851
      10     F     4.67374  4.67374  0.00000 -0.34748
      11     F     4.67538  4.67538  0.00000 -0.35076
      12     F     4.66834  4.66834  0.00000 -0.33668

   Total alpha = 45.00000, Total beta = 45.00000, Total charge =  0.00000
