  ==> Input File <==

--------------------------------------------------------------------------
set {
	reference rhf
	basis 6-31G*
}

set_num_threads( 4 )
memory 2 gb

molecule MOL {
0 1

H	 -3.266463	 0.906731	 1.881234
O	 -2.564347	 0.335611	 1.604177
C	 -2.306886	 0.532354	 0.237577
C	 -1.177863	 -0.397191	 -0.171080
H	 -3.196563	 0.321108	 -0.354164
H	 -2.025828	 1.567023	 0.045726
C	 0.198102	 0.111031	 0.262842
H	 -1.208843	 -0.518759	 -1.250427
H	 -1.368741	 -1.376554	 0.258909
C	 1.331804	 -0.827780	 -0.158768
H	 0.361943	 1.100838	 -0.156218
H	 0.217265	 0.229072	 1.345532
C	 2.723619	 -0.410569	 0.329459
H	 1.342964	 -0.912588	 -1.244120
H	 1.116806	 -1.824343	 0.220779
C	 3.243875	 0.895854	 -0.272975
H	 3.424222	 -1.207124	 0.091250
H	 2.714788	 -0.329854	 1.414619
H	 3.251977	 0.848779	 -1.358681
H	 2.637085	 1.747371	 0.016682
H	 4.259473	 1.094070	 0.055697

	symmetry c1
}
set optking {
	frozen_dihedral = ("
		2 3 4 8
	")
}

ee = optimize('scf')
oeprop('DIPOLE', 'QUADRUPOLE', 'MULLIKEN_CHARGES')
f=open( 'psi4out.xyz', 'w' )
f.write( "21  " )
f.write( str(ee) + "\n" )
f.write( MOL.save_string_xyz() )
f.close()
--------------------------------------------------------------------------

    Molecular point group: c1
  Charge       = 0
  Multiplicity = 1
  Basis Set: 6-31G*
  Basis Set:
  @DF-RHF Final Energy:  -310.21194737406995
    Total Energy =                       -310.2119473740702915
    Molecular point group: c1
  Basis Set: 6-31G*
  Basis Set:
  Basis Set: 6-31G*
  Basis Set:
  @DF-RHF Final Energy:  -310.21214945057989
    Total Energy =                       -310.2121494505799433
  Basis Set: 6-31G*
  Basis Set:
  Basis Set: 6-31G*
  Basis Set:
  @DF-RHF Final Energy:  -310.21220122225043
    Total Energy =                       -310.2122012222503713
  Basis Set: 6-31G*
  Basis Set:
  Basis Set: 6-31G*
  Basis Set:
  @DF-RHF Final Energy:  -310.21220195221161
    Total Energy =                       -310.2122019522116716
  Basis Set: 6-31G*
  Basis Set:
  Basis Set: 6-31G*
  Basis Set:
  @DF-RHF Final Energy:  -310.21220322459681
    Total Energy =                       -310.2122032245970331
  Basis Set: 6-31G*
  Basis Set:
  Basis Set: 6-31G*
  Basis Set:
  @DF-RHF Final Energy:  -310.21220945730636
    Total Energy =                       -310.2122094573063009
  Basis Set: 6-31G*
  Basis Set:
  Charge       = 0
  Multiplicity = 1
  Basis Set: 6-31G*
  Basis Set:

    Orbital Energies (a.u.)
    -----------------------

    Doubly Occupied:

       1A    -20.552574     2A    -11.267634     3A    -11.211711
       4A    -11.211308     5A    -11.209610     6A    -11.207874
       7A    -11.205452     8A     -1.358951     9A     -1.081639
      10A     -1.030218    11A     -0.953311    12A     -0.875368
      13A     -0.803091    14A     -0.773981    15A     -0.704796
      16A     -0.639282    17A     -0.626954    18A     -0.602158
      19A     -0.583884    20A     -0.567899    21A     -0.533428
      22A     -0.524541    23A     -0.504581    24A     -0.485854
      25A     -0.480146    26A     -0.458137    27A     -0.453029
      28A     -0.444961    29A     -0.425020

  @DF-RHF Final Energy:  -310.21221009472123

   => Energetics <=

    Nuclear Repulsion Energy =            316.0882741031117007
    One-Electron Energy =               -1047.0461855782839393
    Two-Electron Energy =                 420.7457013804511803
    DFT Exchange-Correlation Energy =       0.0000000000000000
    Empirical Dispersion Energy =           0.0000000000000000
    PCM Polarization Energy =               0.0000000000000000
    EFP Energy =                            0.0000000000000000
    Total Energy =                       -310.2122100947211152
    Molecular point group: c1
  Basis Set: 6-31G*
  Basis Set:

  -Total Gradient:
     Atom            X                  Y                   Z
    ------   -----------------  -----------------  -----------------
       1        0.000003977170     0.000001495270     0.000000213394
       2       -0.001669285459    -0.001858815463    -0.000577778041
       3        0.001698729227     0.001770410107     0.000834995163
       4        0.001899242624     0.002741442914    -0.000597683827
       5        0.000000442478     0.000000649200    -0.000001686885
       6        0.000001734675    -0.000001400761    -0.000002227360
       7        0.000002301956     0.000017780695    -0.000026633806
       8       -0.001936963153    -0.002659628257     0.000349762637
       9        0.000004841444    -0.000001214223    -0.000005773629
      10        0.000002853851     0.000007559719     0.000011658482
      11        0.000002839883     0.000000843069    -0.000006890678
      12        0.000005005969     0.000009622374     0.000001737769
      13       -0.000009474830     0.000006705548     0.000002485984
      14        0.000009497813    -0.000025452322     0.000008433102
      15       -0.000007546925     0.000006755268     0.000026580404
      16       -0.000017470089     0.000012854192     0.000018807340
      17       -0.000000366548     0.000004383116    -0.000037665698
      18        0.000012780824    -0.000033161018    -0.000001134156
      19        0.000007008688    -0.000005897762     0.000001650561
      20       -0.000007507094     0.000004059051    -0.000007688054
      21       -0.000002642509     0.000001009280     0.000008837301

  **** Optimization is complete! (in 7 steps) ****
    Final optimized geometry and variables:
    Molecular point group: c1

    Geometry (in Angstrom), charge = 0, multiplicity = 1:

    H           -3.362062767383     0.841376015126     1.645476806050
    O           -2.701021256521     0.242638594931     1.328462495931
    C           -2.476697980172     0.466451227081    -0.041685139202
    C           -1.328210553149    -0.424274702936    -0.489640475791
    H           -3.373380955588     0.224579766155    -0.609349307526
    H           -2.242433083246     1.513138451854    -0.229910223868
    C            0.046907188719     0.075369242212    -0.046375067263
    H           -1.369320764965    -0.537162755503    -1.571142542164
    H           -1.510056764137    -1.413844804983    -0.078490480630
    C            1.176881439833    -0.879565027907    -0.439119463913
    H            0.221690139808     1.057257668654    -0.480056888184
    H            0.041105127543     0.207532434813     1.032248727386
    C            2.566801810691    -0.465222177440     0.057210535369
    H            1.201016919607    -0.986011654251    -1.522991873470
    H            0.950235998484    -1.867044442305    -0.042674307876
    C            3.101998506674     0.829658317939    -0.556940352488
    H            3.264766983205    -1.269331869278    -0.163286833166
    H            2.546711046107    -0.369845879190     1.140832096121
    H            3.121698054799     0.768008146781    -1.641904540348
    H            2.497400970029     1.688508057785    -0.285189318317
    H            4.115314816776     1.025944394177    -0.219924562803

  Mulliken Charges: (a.u.)
   Center  Symbol    Alpha    Beta     Spin     Total
       1     H     0.28094  0.28094  0.00000  0.43812
       2     O     4.37012  4.37012  0.00000 -0.74023
       3     C     2.99761  2.99761  0.00000  0.00479
       4     C     3.16032  3.16032  0.00000 -0.32064
       5     H     0.42934  0.42934  0.00000  0.14132
       6     H     0.43248  0.43248  0.00000  0.13504
       7     C     3.15713  3.15713  0.00000 -0.31427
       8     H     0.42345  0.42345  0.00000  0.15309
       9     H     0.41217  0.41217  0.00000  0.17565
      10     C     3.15290  3.15290  0.00000 -0.30581
      11     H     0.42481  0.42481  0.00000  0.15039
      12     H     0.41123  0.41123  0.00000  0.17755
      13     C     3.15208  3.15208  0.00000 -0.30417
      14     H     0.42606  0.42606  0.00000  0.14788
      15     H     0.42109  0.42109  0.00000  0.15781
      16     C     3.24101  3.24101  0.00000 -0.48202
      17     H     0.42173  0.42173  0.00000  0.15653
      18     H     0.42245  0.42245  0.00000  0.15511
      19     H     0.42308  0.42308  0.00000  0.15385
      20     H     0.42021  0.42021  0.00000  0.15958
      21     H     0.41979  0.41979  0.00000  0.16043

   Total alpha = 29.00000, Total beta = 29.00000, Total charge = -0.00000
