                              Psi4 1.0.54 Driver

  ==> Input File <==

--------------------------------------------------------------------------
set {
	reference rhf
	basis cc-pvtz
}

set_num_threads( 4 )
memory 2 gb

molecule MOL {
0 1

H	 2.011634	 -1.112633	 -0.313085
C	 1.948180	 -0.217873	 0.320185
C	 0.692262	 0.592428	 0.156232
O	 2.832378	 0.047862	 1.058571
C	 -0.554654	 -0.292621	 0.086567
H	 0.791858	 1.203694	 -0.731051
H	 0.617379	 1.254358	 1.016534
C	 -1.846385	 0.513195	 -0.016346
H	 -0.473986	 -0.956115	 -0.769708
H	 -0.597929	 -0.929215	 0.966651
C	 -3.089953	 -0.365049	 -0.098564
H	 -1.798267	 1.154820	 -0.891143
H	 -1.925398	 1.173265	 0.842889
H	 -3.055079	 -1.012299	 -0.968245
H	 -3.988403	 0.236438	 -0.170014
H	 -3.183055	 -0.995885	 0.779079

	symmetry c1
}
set optking {
	frozen_dihedral = ("
		4 2 3 6
	")
}

ee,wfn = optimize('scf', return_wfn=True)
oeprop( wfn, 'DIPOLE', 'QUADRUPOLE', 'MULLIKEN_CHARGES')
f=open( 'psi4out.xyz', 'w' )
f.write( "16  " )
f.write( str(ee) + "\n" )
f.write( MOL.save_string_xyz() )
f.close()
--------------------------------------------------------------------------

    Molecular point group: c1
  Charge       = 0
  Multiplicity = 1
  Basis Set: CC-PVTZ
  Basis Set:
  @DF-RHF Final Energy:  -270.11855769988796
    Total Energy =                       -270.1185576998881288
    Molecular point group: c1
  Basis Set: CC-PVTZ
  Basis Set:
  Basis Set: CC-PVTZ
  Basis Set:
  @DF-RHF Final Energy:  -270.11887527411523
    Total Energy =                       -270.1188752741153394
  Basis Set: CC-PVTZ
  Basis Set:
  Basis Set: CC-PVTZ
  Basis Set:
  @DF-RHF Final Energy:  -270.11888254598330
    Total Energy =                       -270.1188825459832969
  Basis Set: CC-PVTZ
  Basis Set:
  Basis Set: CC-PVTZ
  Basis Set:
  @DF-RHF Final Energy:  -270.11895818076471
    Total Energy =                       -270.1189581807644799
  Basis Set: CC-PVTZ
  Basis Set:
  Basis Set: CC-PVTZ
  Basis Set:
  @DF-RHF Final Energy:  -270.11898273116435
    Total Energy =                       -270.1189827311642375
  Basis Set: CC-PVTZ
  Basis Set:
  Basis Set: CC-PVTZ
  Basis Set:
  @DF-RHF Final Energy:  -270.11898475878837
    Total Energy =                       -270.1189847587883150
  Basis Set: CC-PVTZ
  Basis Set:
  Charge       = 0
  Multiplicity = 1
  Basis Set: CC-PVTZ
  Basis Set:

    Orbital Energies (a.u.)
    -----------------------

    Doubly Occupied:

       1A    -20.551812     2A    -11.321691     3A    -11.234480
       4A    -11.233684     5A    -11.227605     6A    -11.216903
       7A     -1.406892     8A     -1.098167     9A     -1.020219
      10A     -0.906677    11A     -0.812601    12A     -0.795658
      13A     -0.677223    14A     -0.651744    15A     -0.634680
      16A     -0.604450    17A     -0.586103    18A     -0.549913
      19A     -0.532838    20A     -0.505834    21A     -0.489322
      22A     -0.484981    23A     -0.479724    24A     -0.411739

  @DF-RHF Final Energy:  -270.11898526562834

   => Energetics <=

    Nuclear Repulsion Energy =            228.9139547562123198
    One-Electron Energy =                -819.1960057049068382
    Two-Electron Energy =                 320.1630656830662929
    DFT Exchange-Correlation Energy =       0.0000000000000000
    Empirical Dispersion Energy =           0.0000000000000000
    PCM Polarization Energy =               0.0000000000000000
    EFP Energy =                            0.0000000000000000
    Total Energy =                       -270.1189852656282255
    Molecular point group: c1
  Basis Set: CC-PVTZ
  Basis Set:

  -Total Gradient:
     Atom            X                  Y                   Z
    ------   -----------------  -----------------  -----------------
       1       -0.000014720104    -0.000012235216     0.000006290743
       2       -0.000380526635    -0.000562130956     0.000959849407
       3       -0.000241668260    -0.000485882360    -0.000772096875
       4        0.000329450002     0.000486702361    -0.000615544701
       5       -0.000012471905     0.000007356778    -0.000020238801
       6        0.000315777327     0.000586420967     0.000438500870
       7        0.000005961693    -0.000021753192    -0.000005321037
       8        0.000001087370    -0.000006061416    -0.000001952442
       9        0.000012943433    -0.000012336478     0.000008404961
      10       -0.000006874009     0.000015757175     0.000004280714
      11       -0.000004162132     0.000003160035    -0.000001341056
      12        0.000004525377    -0.000003620353     0.000000480367
      13       -0.000007802886     0.000005788959    -0.000001012228
      14       -0.000001287979     0.000003431101    -0.000002643363
      15       -0.000002464872    -0.000001310029     0.000004953329
      16        0.000002233578    -0.000003287374    -0.000002609887

  **** Optimization is complete! (in 7 steps) ****
    Final optimized geometry and variables:
    Molecular point group: c1

    Geometry (in Angstrom), charge = 0, multiplicity = 1:

    H            2.032007809827    -1.094594068129    -0.632878077626
    C            1.964369967773    -0.231328360913     0.042234498503
    C            0.679122000941     0.548477949292    -0.035707381925
    O            2.873260490452     0.039938207451     0.747710124651
    C           -0.556800328431    -0.343703233962    -0.137685269009
    H            0.751750006468     1.180982325327    -0.918796237376
    H            0.629584451698     1.204288806190     0.824028976178
    C           -1.852409873147     0.451023981485    -0.271875462300
    H           -0.454202964547    -1.009282355633    -0.990931620139
    H           -0.614846352279    -0.979563991533     0.741753394371
    C           -3.088434433271    -0.436670218717    -0.365217025409
    H           -1.793673029512     1.083683553055    -1.153125987889
    H           -1.951136664004     1.120045606974     0.577861528786
    H           -3.034824707003    -1.093884150985    -1.226656331827
    H           -3.989678600170     0.157570006626    -0.458533929732
    H           -3.191802174943    -1.057832151946     0.518004765455

  Mulliken Charges: (a.u.)
   Center  Symbol    Alpha    Beta     Spin     Total
       1     H     0.46573  0.46573  0.00000  0.06855
       2     C     2.90973  2.90973  0.00000  0.18055
       3     C     3.07825  3.07825  0.00000 -0.15649
       4     O     4.16356  4.16356  0.00000 -0.32711
       5     C     3.10214  3.10214  0.00000 -0.20428
       6     H     0.44772  0.44772  0.00000  0.10456
       7     H     0.44114  0.44114  0.00000  0.11771
       8     C     3.08468  3.08468  0.00000 -0.16936
       9     H     0.45224  0.45224  0.00000  0.09552
      10     H     0.44750  0.44750  0.00000  0.10501
      11     C     3.14899  3.14899  0.00000 -0.29799
      12     H     0.45304  0.45304  0.00000  0.09392
      13     H     0.45072  0.45072  0.00000  0.09856
      14     H     0.45451  0.45451  0.00000  0.09099
      15     H     0.44653  0.44653  0.00000  0.10695
      16     H     0.45353  0.45353  0.00000  0.09294

   Total alpha = 24.00000, Total beta = 24.00000, Total charge = -0.00000

*** Psi4 exiting successfully. Buy a developer a beer!
