                              Psi4 1.0.54 Driver

  ==> Input File <==

--------------------------------------------------------------------------
set {
	reference rhf
	basis cc-pvtz
}

set_num_threads( 4 )
memory 2 gb

molecule MOL {
0 1

H	 0.856038	 -5.089585	 -2.816150
C	 0.965301	 -4.338033	 -2.043273
C	 -0.223827	 -3.383810	 -2.033989
H	 1.060975	 -4.853641	 -1.093519
H	 1.894756	 -3.809301	 -2.226504
C	 -0.111018	 -2.309672	 -0.962323
H	 -1.143714	 -3.935865	 -1.876484
H	 -0.311453	 -2.908619	 -3.008203
N	 -1.264174	 -1.435622	 -0.963929
H	 -0.048379	 -2.782173	 0.013376
H	 0.824498	 -1.758897	 -1.098486
C	 -1.215959	 -0.382435	 0.027143
H	 -1.384672	 -1.038376	 -1.872222
C	 -2.451944	 0.502410	 -0.038737
H	 -1.158706	 -0.845550	 1.007666
H	 -0.320424	 0.238067	 -0.073211
C	 -3.752217	 -0.292550	 0.005776
H	 -2.407325	 1.093801	 -0.946480
H	 -2.431979	 1.206234	 0.790023
H	 -3.817783	 -0.982946	 -0.828547
H	 -4.612613	 0.364348	 -0.042306
H	 -3.830160	 -0.871666	 0.919868

	symmetry c1
}
set optking {
	frozen_dihedral = ("
		15 12 14 18
	")
}

ee,wfn = optimize('scf', return_wfn=True)
oeprop( wfn, 'DIPOLE', 'QUADRUPOLE', 'MULLIKEN_CHARGES')
f=open( 'psi4out.xyz', 'w' )
f.write( "22  " )
f.write( str(ee) + "\n" )
f.write( MOL.save_string_xyz() )
f.close()
--------------------------------------------------------------------------

    Molecular point group: c1
  Charge       = 0
  Multiplicity = 1
  Basis Set: CC-PVTZ
  Basis Set:
  @DF-RHF Final Energy:  -290.48846647819278
    Total Energy =                       -290.4884664781928905
    Molecular point group: c1
  Basis Set: CC-PVTZ
  Basis Set:
  Basis Set: CC-PVTZ
  Basis Set:
  @DF-RHF Final Energy:  -290.48879433382859
    Total Energy =                       -290.4887943338284231
  Basis Set: CC-PVTZ
  Basis Set:
  Basis Set: CC-PVTZ
  Basis Set:
  @DF-RHF Final Energy:  -290.48907424565749
    Total Energy =                       -290.4890742456576618
  Basis Set: CC-PVTZ
  Basis Set:
  Basis Set: CC-PVTZ
  Basis Set:
  @DF-RHF Final Energy:  -290.48908024545511
    Total Energy =                       -290.4890802454548293
  Basis Set: CC-PVTZ
  Basis Set:
  Charge       = 0
  Multiplicity = 1
  Basis Set: CC-PVTZ
  Basis Set:

    Orbital Energies (a.u.)
    -----------------------

    Doubly Occupied:

       1A    -15.528852     2A    -11.236810     3A    -11.236785
       4A    -11.212509     5A    -11.212295     6A    -11.207905
       7A    -11.199356     8A     -1.208269     9A     -1.059244
      10A     -1.023346    11A     -0.927212    12A     -0.877411
      13A     -0.807254    14A     -0.790431    15A     -0.662256
      16A     -0.634171    17A     -0.614725    18A     -0.610826
      19A     -0.573320    20A     -0.565612    21A     -0.536495
      22A     -0.527763    23A     -0.502870    24A     -0.488975
      25A     -0.481958    26A     -0.470747    27A     -0.466182
      28A     -0.451673    29A     -0.361037

  @DF-RHF Final Energy:  -290.48908063330475

   => Energetics <=

    Nuclear Repulsion Energy =            318.0483263382152472
    One-Electron Energy =               -1022.1222366554911787
    Two-Electron Energy =                 413.5848296839711224
    DFT Exchange-Correlation Energy =       0.0000000000000000
    Empirical Dispersion Energy =           0.0000000000000000
    PCM Polarization Energy =               0.0000000000000000
    EFP Energy =                            0.0000000000000000
    Total Energy =                       -290.4890806333048090
    Molecular point group: c1
  Basis Set: CC-PVTZ
  Basis Set:

  -Total Gradient:
     Atom            X                  Y                   Z
    ------   -----------------  -----------------  -----------------
       1       -0.000002520634     0.000003259053    -0.000000975454
       2        0.000003028526     0.000011236972     0.000000542094
       3       -0.000001221731     0.000002499286    -0.000004320248
       4       -0.000002063008    -0.000000400948     0.000000733452
       5        0.000004508912    -0.000001120554     0.000000862264
       6       -0.000000525933    -0.000019318843     0.000016248583
       7       -0.000001237636     0.000004812385     0.000006782806
       8       -0.000001033212    -0.000003468798    -0.000006815153
       9        0.000006729529     0.000003374777    -0.000011240993
      10        0.000004326913    -0.000000108354     0.000007872060
      11       -0.000006026317    -0.000001666229    -0.000006115835
      12       -0.001459257890    -0.002008199259    -0.000741067425
      13       -0.000009178757     0.000006114658    -0.000005388700
      14       -0.001265309705    -0.001834198565    -0.001377955259
      15        0.001427502170     0.001987298361     0.000854800808
      16        0.000000300671    -0.000009456139    -0.000007471190
      17       -0.000001316492     0.000007689122     0.000026852177
      18        0.001313131143     0.001865477511     0.001246426635
      19       -0.000011735633    -0.000000901191     0.000005275111
      20        0.000007267473     0.000001279076    -0.000006566215
      21        0.000004832147    -0.000003394331    -0.000002149713
      22       -0.000010200537    -0.000010807992     0.000003670195

  **** Optimization is complete! (in 5 steps) ****
    Final optimized geometry and variables:
    Molecular point group: c1

    Geometry (in Angstrom), charge = 0, multiplicity = 1:

    H            2.068017915135    -3.413809031845    -1.953357823550
    C            2.154292672595    -2.668066823156    -1.171987714476
    C            0.960444518958    -1.719848175967    -1.184635865617
    H            2.228958443836    -3.190863674713    -0.224287020920
    H            3.085227060031    -2.133219164708    -1.327860697474
    C            1.040906908400    -0.654931340062    -0.100965152399
    H            0.039853686976    -2.278034889146    -1.055383136152
    H            0.895301890405    -1.236375871019    -2.156546187862
    N           -0.114944389127     0.215014765084    -0.124294956468
    H            1.080143750373    -1.135630827190     0.871870617441
    H            1.977263704824    -0.099131641561    -0.208060422761
    C           -0.090563208800     1.261367212441     0.874319073420
    H           -0.212981796177     0.620226014858    -1.032308006384
    C           -1.317536275565     2.164548367578     0.812733717074
    H           -0.031762607849     0.802645000719     1.857046021875
    H            0.802559607180     1.886556446281     0.786025497488
    C           -2.650743079065     1.432947268657     0.920310514653
    H           -1.282466736901     2.757638620928    -0.098489611246
    H           -1.234932109456     2.881819492042     1.624391633001
    H           -2.792151440132     0.742864753528     0.100038556388
    H           -3.475242953488     2.137147831849     0.919426979953
    H           -2.703310122544     0.861336383150     1.841151084171

  Mulliken Charges: (a.u.)
   Center  Symbol    Alpha    Beta     Spin     Total
       1     H     0.44765  0.44765  0.00000  0.10470
       2     C     3.15376  3.15376  0.00000 -0.30752
       3     C     3.08083  3.08083  0.00000 -0.16165
       4     H     0.45470  0.45470  0.00000  0.09061
       5     H     0.45609  0.45609  0.00000  0.08783
       6     C     3.02034  3.02034  0.00000 -0.04068
       7     H     0.44892  0.44892  0.00000  0.10216
       8     H     0.45971  0.45971  0.00000  0.08059
       9     N     3.63914  3.63914  0.00000 -0.27828
      10     H     0.45951  0.45951  0.00000  0.08098
      11     H     0.47508  0.47508  0.00000  0.04984
      12     C     3.03802  3.03802  0.00000 -0.07604
      13     H     0.44440  0.44440  0.00000  0.11120
      14     C     3.09096  3.09096  0.00000 -0.18191
      15     H     0.45694  0.45694  0.00000  0.08612
      16     H     0.46552  0.46552  0.00000  0.06896
      17     C     3.14188  3.14188  0.00000 -0.28377
      18     H     0.45590  0.45590  0.00000  0.08821
      19     H     0.45164  0.45164  0.00000  0.09672
      20     H     0.45000  0.45000  0.00000  0.09999
      21     H     0.45189  0.45189  0.00000  0.09621
      22     H     0.45713  0.45713  0.00000  0.08574

   Total alpha = 29.00000, Total beta = 29.00000, Total charge =  0.00000

*** Psi4 exiting successfully. Buy a developer a beer!
