                              Psi4 1.0.54 Driver

  ==> Input File <==

--------------------------------------------------------------------------
set {
	reference rhf
	basis cc-pvtz
}

set_num_threads( 4 )
memory 2 gb

molecule MOL {
0 1

H	 2.712750	 -0.679841	 -0.679347
N	 2.326826	 -0.066186	 0.000000
C	 0.934676	 -0.005420	 0.000000
H	 2.732937	 -0.217364	 0.894003
C	 0.226436	 -0.001077	 -1.195129
C	 0.226436	 -0.001077	 1.195129
H	 0.759091	 -0.011439	 -2.128123
C	 -1.153391	 0.009141	 -1.189028
H	 0.759091	 -0.011439	 2.128123
C	 -1.153391	 0.009141	 1.189028
H	 -1.680905	 0.012964	 -2.124348
C	 -1.857876	 0.014675	 0.000000
H	 -1.680905	 0.012964	 2.124348
H	 -2.930222	 0.022904	 0.000000

	symmetry c1
}
set optking {
	frozen_dihedral = ("
		1 2 3 5
	")
}

ee,wfn = optimize('scf', return_wfn=True)
oeprop( wfn, 'DIPOLE', 'QUADRUPOLE', 'MULLIKEN_CHARGES')
f=open( 'psi4out.xyz', 'w' )
f.write( "14  " )
f.write( str(ee) + "\n" )
f.write( MOL.save_string_xyz() )
f.close()
--------------------------------------------------------------------------

    Molecular point group: c1
  Charge       = 0
  Multiplicity = 1
  Basis Set: CC-PVTZ
  Basis Set:
  @DF-RHF Final Energy:  -285.83259779893967
    Total Energy =                       -285.8325977989394460
    Molecular point group: c1
  Basis Set: CC-PVTZ
  Basis Set:
  Basis Set: CC-PVTZ
  Basis Set:
  @DF-RHF Final Energy:  -285.83318420998035
    Total Energy =                       -285.8331842099802316
  Basis Set: CC-PVTZ
  Basis Set:
  Basis Set: CC-PVTZ
  Basis Set:
  @DF-RHF Final Energy:  -285.83336410938961
    Total Energy =                       -285.8333641093897768
  Basis Set: CC-PVTZ
  Basis Set:
  Basis Set: CC-PVTZ
  Basis Set:
  @DF-RHF Final Energy:  -285.83337112308749
    Total Energy =                       -285.8333711230876020
  Basis Set: CC-PVTZ
  Basis Set:
  Charge       = 0
  Multiplicity = 1
  Basis Set: CC-PVTZ
  Basis Set:

    Orbital Energies (a.u.)
    -----------------------

    Doubly Occupied:

       1A    -15.555847     2A    -11.270238     3A    -11.227501
       4A    -11.227321     5A    -11.216683     6A    -11.215902
       7A    -11.212211     8A     -1.226291     9A     -1.131069
      10A     -1.013904    11A     -0.988378    12A     -0.832983
      13A     -0.813392    14A     -0.707875    15A     -0.685529
      16A     -0.654373    17A     -0.600351    18A     -0.594575
      19A     -0.582232    20A     -0.533365    21A     -0.506439
      22A     -0.487951    23A     -0.448849    24A     -0.336498
      25A     -0.296917

  @DF-RHF Final Energy:  -285.83337191116817

   => Energetics <=

    Nuclear Repulsion Energy =            273.6798206913542231
    One-Electron Energy =                -928.2930339437320981
    Two-Electron Energy =                 368.7798413412098739
    DFT Exchange-Correlation Energy =       0.0000000000000000
    Empirical Dispersion Energy =           0.0000000000000000
    PCM Polarization Energy =               0.0000000000000000
    EFP Energy =                            0.0000000000000000
    Total Energy =                       -285.8333719111679443
    Molecular point group: c1
  Basis Set: CC-PVTZ
  Basis Set:

  -Total Gradient:
     Atom            X                  Y                   Z
    ------   -----------------  -----------------  -----------------
       1        0.000074429811    -0.001345122693     0.001041056600
       2       -0.000150469641     0.002387666585    -0.001359878152
       3        0.000138898111    -0.002293525986     0.000232435137
       4        0.000035534912    -0.000032712360     0.000029318970
       5       -0.000044966141     0.001281702420     0.000037314994
       6       -0.000080797084     0.000032263604     0.000015357545
       7        0.000002755651     0.000006830634    -0.000005378194
       8       -0.000017378513    -0.000051575277     0.000017520814
       9        0.000005070663     0.000010786661     0.000002136108
      10        0.000047711118    -0.000086652167     0.000022558351
      11        0.000006187582     0.000007806810    -0.000002665940
      12       -0.000013911346     0.000056527704    -0.000037543129
      13       -0.000005546142     0.000012851550     0.000000781158
      14        0.000002481019     0.000013152515     0.000006985737

  **** Optimization is complete! (in 5 steps) ****
    Final optimized geometry and variables:
    Molecular point group: c1

    Geometry (in Angstrom), charge = 0, multiplicity = 1:

    H            2.737886621678    -0.569674514247    -0.717602531242
    N            2.330959833807    -0.008793668015    -0.003779300857
    C            0.933427780072    -0.030611558155     0.003527790012
    H            2.736550853106    -0.231147051731     0.876562630934
    C            0.229093281563    -0.011200918796    -1.194396269604
    C            0.222898461227    -0.001230534533     1.195184654432
    H            0.766913478914    -0.013654207541    -2.124202263370
    C           -1.149451464205     0.019943473957    -1.192944469215
    H            0.751823279915    -0.008485197125     2.130463127500
    C           -1.157710651135     0.040284835429     1.185623298123
    H           -1.674525190578     0.030264472674    -2.129546323725
    C           -1.857243159129     0.047905487613    -0.004883821906
    H           -1.687652271835     0.062923506272     2.119265191260
    H           -2.929261904706     0.076930463217    -0.008498095157

  Mulliken Charges: (a.u.)
   Center  Symbol    Alpha    Beta     Spin     Total
       1     H     0.42126  0.42126  0.00000  0.15749
       2     N     3.66845  3.66845  0.00000 -0.33689
       3     C     2.88994  2.88994  0.00000  0.22012
       4     H     0.42562  0.42562  0.00000  0.14877
       5     C     3.11540  3.11540  0.00000 -0.23080
       6     C     3.11784  3.11784  0.00000 -0.23567
       7     H     0.43137  0.43137  0.00000  0.13726
       8     C     3.05865  3.05865  0.00000 -0.11731
       9     H     0.43473  0.43473  0.00000  0.13055
      10     C     3.05909  3.05909  0.00000 -0.11817
      11     H     0.42457  0.42457  0.00000  0.15085
      12     C     3.10325  3.10325  0.00000 -0.20649
      13     H     0.42465  0.42465  0.00000  0.15069
      14     H     0.42519  0.42519  0.00000  0.14962

   Total alpha = 25.00000, Total beta = 25.00000, Total charge = -0.00000

*** Psi4 exiting successfully. Buy a developer a beer!
