  ==> Input File <==

--------------------------------------------------------------------------
set {
	reference rhf
	basis 6-31G*
}

set_num_threads( 4 )
memory 2 gb

molecule MOL {
0 1

H	 3.728579	 -0.929791	 -0.076400
O	 2.825471	 -1.160124	 0.118783
C	 2.077188	 -0.068475	 -0.038663
C	 0.624473	 -0.343591	 0.253101
O	 2.542043	 0.973246	 -0.369940
C	 -0.265902	 0.883932	 0.072916
H	 0.322367	 -1.164761	 -0.388603
H	 0.567099	 -0.724499	 1.269649
C	 -1.728698	 0.646073	 0.462102
H	 -0.209144	 1.219470	 -0.958188
H	 0.135059	 1.692851	 0.673903
C	 -2.482460	 -0.343073	 -0.431425
H	 -2.245265	 1.602650	 0.432430
H	 -1.779332	 0.308348	 1.496285
C	 -3.960546	 -0.461025	 -0.060175
H	 -2.395034	 -0.026811	 -1.468912
H	 -2.024850	 -1.327147	 -0.371646
H	 -4.472726	 -1.168004	 -0.705284
H	 -4.465146	 0.496508	 -0.151489
H	 -4.081218	 -0.800940	 0.964585

	symmetry c1
}
set optking {
	frozen_dihedral = ("
		7 4 6 10
	")
}

ee = optimize('scf')
oeprop('DIPOLE', 'QUADRUPOLE', 'MULLIKEN_CHARGES')
f=open( 'psi4out.xyz', 'w' )
f.write( "20  " )
f.write( str(ee) + "\n" )
f.write( MOL.save_string_xyz() )
f.close()
--------------------------------------------------------------------------

    Molecular point group: c1
  Charge       = 0
  Multiplicity = 1
  Basis Set: 6-31G*
  Basis Set:
  @DF-RHF Final Energy:  -383.94876151066205
    Total Energy =                       -383.9487615106620524
    Molecular point group: c1
  Basis Set: 6-31G*
  Basis Set:
  Charge       = 0
  Multiplicity = 1
  Basis Set: 6-31G*
  Basis Set:

    Orbital Energies (a.u.)
    -----------------------

    Doubly Occupied:

       1A    -20.612526     2A    -20.551624     3A    -11.381188
       4A    -11.240228     5A    -11.222938     6A    -11.220695
       7A    -11.220106     8A    -11.212400     9A     -1.474593
      10A     -1.365646    11A     -1.096201    12A     -1.040983
      13A     -0.961250    14A     -0.868867    15A     -0.816170
      16A     -0.776933    17A     -0.699565    18A     -0.690038
      19A     -0.663905    20A     -0.635920    21A     -0.602801
      22A     -0.593916    23A     -0.575424    24A     -0.555797
      25A     -0.540144    26A     -0.513012    27A     -0.495658
      28A     -0.479246    29A     -0.470522    30A     -0.467513
      31A     -0.457268    32A     -0.443716

  @DF-RHF Final Energy:  -383.94876133886675

   => Energetics <=

    Nuclear Repulsion Energy =            375.8976109448653347
    One-Electron Energy =               -1267.7991587417086521
    Two-Electron Energy =                 507.9527864579765719
    DFT Exchange-Correlation Energy =       0.0000000000000000
    Empirical Dispersion Energy =           0.0000000000000000
    PCM Polarization Energy =               0.0000000000000000
    EFP Energy =                            0.0000000000000000
    Total Energy =                       -383.9487613388666887
    Molecular point group: c1
  Basis Set: 6-31G*
  Basis Set:

  -Total Gradient:
     Atom            X                  Y                   Z
    ------   -----------------  -----------------  -----------------
       1        0.000000674035    -0.000000310132     0.000000385932
       2        0.000006168981     0.000003394925     0.000024908169
       3       -0.000013297523    -0.000009673467    -0.000081773057
       4        0.000036808787     0.000020851181     0.000010493023
       5        0.000007134901     0.000005656133     0.000031251330
       6       -0.000032611131    -0.000024138954    -0.000027817377
       7        0.000001278733     0.000004516262     0.000024689426
       8       -0.000006107371    -0.000003455062     0.000001595312
       9        0.000000987206    -0.000015624679     0.000013953246
      10        0.000025665472     0.000009524798     0.000002458496
      11       -0.000006988247     0.000002956914    -0.000005340443
      12       -0.000006854217     0.000002541367     0.000003267391
      13        0.000001846164     0.000000639072     0.000009102683
      14        0.000002880121    -0.000011389809    -0.000000098784
      15       -0.000001218720     0.000006857353    -0.000005061605
      16        0.000004429045    -0.000002107920    -0.000004795043
      17       -0.000021436941     0.000008053893     0.000004701209
      18        0.000000195096     0.000000969944    -0.000000658995
      19       -0.000001884048     0.000000254317     0.000000237488
      20        0.000002329642     0.000000483861    -0.000001498400

  **** Optimization is complete! (in 2 steps) ****
    Final optimized geometry and variables:
    Molecular point group: c1

    Geometry (in Angstrom), charge = 0, multiplicity = 1:

    H            3.730286657737    -0.927215262168    -0.073215343221
    O            2.827380567891    -1.158184220037     0.122138668091
    C            2.077979189462    -0.067568166387    -0.037104153436
    C            0.625561009147    -0.343648443218     0.255177762682
    O            2.541848154322     0.974211379343    -0.369591421084
    C           -0.265939113262     0.882893650531     0.073847881966
    H            0.323963361617    -1.165884690922    -0.385400792690
    H            0.568679985890    -0.723416271317     1.272177617767
    C           -1.728316067411     0.644567016805     0.464382823169
    H           -0.209910237719     1.217295306243    -0.957656242988
    H            0.134826498348     1.692854056740     0.673578738167
    C           -2.483384968906    -0.342914660557    -0.429890731725
    H           -2.244740574709     1.601278157862     0.436847162487
    H           -1.777843357548     0.305199256536     1.498086403212
    C           -3.961584589900    -0.459289792749    -0.058628641360
    H           -2.395646401231    -0.025898047805    -1.467121698628
    H           -2.027057854197    -1.327628875015    -0.370975826128
    H           -4.474658538987    -1.165263771617    -0.704121216856
    H           -4.465031818858     0.498913218242    -0.149348890433
    H           -4.082610683281    -0.799666358928     0.965935431254

  Mulliken Charges: (a.u.)
   Center  Symbol    Alpha    Beta     Spin     Total
       1     H     0.26785  0.26785  0.00000  0.46429
       2     O     4.35158  4.35158  0.00000 -0.70317
       3     C     2.62220  2.62220  0.00000  0.75559
       4     C     3.21286  3.21286  0.00000 -0.42572
       5     O     4.27927  4.27927  0.00000 -0.55855
       6     C     3.15441  3.15441  0.00000 -0.30883
       7     H     0.39685  0.39685  0.00000  0.20630
       8     H     0.39906  0.39906  0.00000  0.20188
       9     C     3.15554  3.15554  0.00000 -0.31108
      10     H     0.41219  0.41219  0.00000  0.17561
      11     H     0.40803  0.40803  0.00000  0.18393
      12     C     3.15483  3.15483  0.00000 -0.30966
      13     H     0.41787  0.41787  0.00000  0.16425
      14     H     0.42368  0.42368  0.00000  0.15265
      15     C     3.23923  3.23923  0.00000 -0.47846
      16     H     0.42146  0.42146  0.00000  0.15709
      17     H     0.42277  0.42277  0.00000  0.15446
      18     H     0.41834  0.41834  0.00000  0.16333
      19     H     0.42064  0.42064  0.00000  0.15872
      20     H     0.42132  0.42132  0.00000  0.15737

   Total alpha = 32.00000, Total beta = 32.00000, Total charge = -0.00000
