  ==> Input File <==

--------------------------------------------------------------------------
set {
	reference rhf
	basis 6-31G*
}

set_num_threads( 1 )
memory 2 gb

molecule MOL {
0 1

H	 1.136379	 0.211822	 1.465562
C	 1.135357	 0.094285	 0.374742
C	 0.065331	 0.871482	 -0.349150
O	 1.941633	 -0.601957	 -0.151457
C	 -0.780082	 -0.016796	 -1.273119
H	 0.539812	 1.676510	 -0.898432
H	 -0.578308	 1.316097	 0.408614
C	 0.007416	 -0.579762	 -2.456901
H	 -1.617563	 0.567634	 -1.640649
H	 -1.209899	 -0.832749	 -0.695955
H	 0.416421	 0.219829	 -3.066732
H	 -0.629528	 -1.189333	 -3.089390
H	 0.837434	 -1.199321	 -2.130391

	symmetry c1
}
set optking {
	frozen_dihedral = ("
		6 3 5 9
	")
}

ee = energy('scf')
oeprop('DIPOLE', 'QUADRUPOLE', 'MULLIKEN_CHARGES')
f=open( 'psi4out.xyz', 'w' )
f.write( "13  " )
f.write( str(ee) + "\n" )
f.write( MOL.save_string_xyz() )
f.close()
--------------------------------------------------------------------------

    Molecular point group: c1

    Geometry (in Angstrom), charge = 0, multiplicity = 1:

       Center              X                  Y                   Z               Mass
    ------------   -----------------  -----------------  -----------------  -----------------
           H          0.649564855972     0.273178885900     2.251025416050     1.007825032070
           C          0.648542855972     0.155641885900     1.160205416050    12.000000000000
           C         -0.421483144028     0.932838885900     0.436313416050    12.000000000000
           O          1.454818855972    -0.540600114100     0.634006416050    15.994914619560
           C         -1.266896144028     0.044560885900    -0.487655583950    12.000000000000
           H          0.052997855972     1.737866885900    -0.112968583950     1.007825032070
           H         -1.065122144028     1.377453885900     1.194077416050     1.007825032070
           C         -0.479398144028    -0.518405114100    -1.671437583950    12.000000000000
           H         -2.104377144028     0.628990885900    -0.855185583950     1.007825032070
           H         -1.696713144028    -0.771392114100     0.089508416050     1.007825032070
           H         -0.070393144028     0.281185885900    -2.281268583950     1.007825032070
           H         -1.116342144028    -1.127976114100    -2.303926583950     1.007825032070
           H          0.350619855972    -1.137964114100    -1.344927583950     1.007825032070

  Charge       = 0
  Multiplicity = 1
  Basis Set: 6-31G*
  Basis Set:

    Orbital Energies (a.u.)
    -----------------------

    Doubly Occupied:

       1A    -20.564789     2A    -11.329113     3A    -11.236406
       4A    -11.231789     5A    -11.204276     6A     -1.406283
       7A     -1.078538     8A     -0.969815     9A     -0.843381
      10A     -0.776795    11A     -0.681908    12A     -0.652194
      13A     -0.597681    14A     -0.590281    15A     -0.566790
      16A     -0.520368    17A     -0.500689    18A     -0.485344
      19A     -0.479820    20A     -0.405503

  @DF-RHF Final Energy:  -230.98092175879839

   => Energetics <=

    Nuclear Repulsion Energy =            177.2414057475086224
    One-Electron Energy =                -664.2011390482551860
    Two-Electron Energy =                 255.9788115419487724
    DFT Exchange-Correlation Energy =       0.0000000000000000
    Empirical Dispersion Energy =           0.0000000000000000
    PCM Polarization Energy =               0.0000000000000000
    EFP Energy =                            0.0000000000000000
    Total Energy =                       -230.9809217587977912

  Mulliken Charges: (a.u.)
   Center  Symbol    Alpha    Beta     Spin     Total
       1     H     0.42727  0.42727  0.00000  0.14546
       2     C     2.84369  2.84369  0.00000  0.31262
       3     C     3.20371  3.20371  0.00000 -0.40742
       4     O     4.23495  4.23495  0.00000 -0.46989
       5     C     3.15710  3.15710  0.00000 -0.31420
       6     H     0.39952  0.39952  0.00000  0.20096
       7     H     0.41508  0.41508  0.00000  0.16984
       8     C     3.24506  3.24506  0.00000 -0.49013
       9     H     0.41516  0.41516  0.00000  0.16967
      10     H     0.41783  0.41783  0.00000  0.16434
      11     H     0.42350  0.42350  0.00000  0.15301
      12     H     0.42188  0.42188  0.00000  0.15624
      13     H     0.39525  0.39525  0.00000  0.20950

   Total alpha = 20.00000, Total beta = 20.00000, Total charge =  0.00000
