  ==> Input File <==

--------------------------------------------------------------------------
set {
	reference rhf
	basis 6-31G*
}

set_num_threads( 4 )
memory 2 gb

molecule MOL {
0 1

H	 0.936550	 -1.054802	 0.287940
C	 0.861781	 -0.387668	 -0.579843
C	 0.065331	 0.871482	 -0.349150
O	 1.390934	 -0.677856	 -1.603321
C	 -1.339775	 0.583656	 0.198860
H	 0.022052	 1.424219	 -1.280558
H	 0.615762	 1.473133	 0.372795
C	 -1.808407	 -0.848507	 -0.061364
H	 -2.036183	 1.280685	 -0.256307
H	 -1.360094	 0.788874	 1.267089
H	 -1.828843	 -1.063152	 -1.125336
H	 -2.808409	 -1.004529	 0.329750
H	 -1.153967	 -1.577789	 0.406873

	symmetry c1
}
set optking {
	frozen_dihedral = ("
		6 3 5 9
	")
}

ee = optimize('scf')
oeprop('DIPOLE', 'QUADRUPOLE', 'MULLIKEN_CHARGES')
f=open( 'psi4out.xyz', 'w' )
f.write( "13  " )
f.write( str(ee) + "\n" )
f.write( MOL.save_string_xyz() )
f.close()
--------------------------------------------------------------------------

    Molecular point group: c1
  Charge       = 0
  Multiplicity = 1
  Basis Set: 6-31G*
  Basis Set:
  @DF-RHF Final Energy:  -230.97621474907777
    Total Energy =                       -230.9762147490777977
    Molecular point group: c1
  Basis Set: 6-31G*
  Basis Set:
  Basis Set: 6-31G*
  Basis Set:
  @DF-RHF Final Energy:  -230.97654477542883
    Total Energy =                       -230.9765447754287777
  Basis Set: 6-31G*
  Basis Set:
  Basis Set: 6-31G*
  Basis Set:
  @DF-RHF Final Energy:  -230.97805308961611
    Total Energy =                       -230.9780530896161110
  Basis Set: 6-31G*
  Basis Set:
  Basis Set: 6-31G*
  Basis Set:
  @DF-RHF Final Energy:  -230.97771476252490
    Total Energy =                       -230.9777147625248972
  Basis Set: 6-31G*
  Basis Set:
  Basis Set: 6-31G*
  Basis Set:
  @DF-RHF Final Energy:  -230.97805821978835
    Total Energy =                       -230.9780582197883518
  Basis Set: 6-31G*
  Basis Set:
  Basis Set: 6-31G*
  Basis Set:
  @DF-RHF Final Energy:  -230.97838489707522
    Total Energy =                       -230.9783848970751592
  Basis Set: 6-31G*
  Basis Set:
  Basis Set: 6-31G*
  Basis Set:
  @DF-RHF Final Energy:  -230.97838649903986
    Total Energy =                       -230.9783864990400559
  Basis Set: 6-31G*
  Basis Set:
  Charge       = 0
  Multiplicity = 1
  Basis Set: 6-31G*
  Basis Set:

    Orbital Energies (a.u.)
    -----------------------

    Doubly Occupied:

       1A    -20.562206     2A    -11.326907     3A    -11.239053
       4A    -11.235458     5A    -11.222798     6A     -1.402109
       7A     -1.082514     8A     -0.973058     9A     -0.855350
      10A     -0.780593    11A     -0.669450    12A     -0.638916
      13A     -0.631394    14A     -0.601231    15A     -0.556266
      16A     -0.527374    17A     -0.513983    18A     -0.487763
      19A     -0.479010    20A     -0.409795

  @DF-RHF Final Energy:  -230.97838681437995

   => Energetics <=

    Nuclear Repulsion Energy =            174.1418166138409163
    One-Electron Energy =                -657.8499454228422110
    Two-Electron Energy =                 252.7297419946212926
    DFT Exchange-Correlation Energy =       0.0000000000000000
    Empirical Dispersion Energy =           0.0000000000000000
    PCM Polarization Energy =               0.0000000000000000
    EFP Energy =                            0.0000000000000000
    Total Energy =                       -230.9783868143800305
    Molecular point group: c1
  Basis Set: 6-31G*
  Basis Set:

  -Total Gradient:
     Atom            X                  Y                   Z
    ------   -----------------  -----------------  -----------------
       1        0.000012410553     0.000018787176    -0.000003183323
       2       -0.000044860540    -0.000025348494    -0.000025639879
       3       -0.000435647057    -0.006559727014    -0.004260085454
       4        0.000027846713     0.000008399200     0.000005480358
       5        0.001218128645     0.005320150708     0.005447245538
       6        0.000183281727     0.004666398603     0.002744546630
       7        0.000008906770    -0.000008372286    -0.000002888565
       8        0.000004294724    -0.000019980845     0.000002206919
       9       -0.000933734235    -0.003433904033    -0.003906635800
      10       -0.000031801183     0.000025643793    -0.000000263811
      11        0.000013781801     0.000007103444    -0.000001396683
      12        0.000006369105     0.000002630291     0.000002798587
      13       -0.000028977022    -0.000001780543    -0.000002184514

  **** Optimization is complete! (in 8 steps) ****
    Final optimized geometry and variables:
    Molecular point group: c1

    Geometry (in Angstrom), charge = 0, multiplicity = 1:

    H            1.305105197236    -0.845891995436     0.810196152155
    C            1.099993811232    -0.249882719340    -0.085860144743
    C            0.230730866664     0.961823304421     0.126398419876
    O            1.571782016233    -0.563985233541    -1.130529130174
    C           -1.174143830711     0.671301867425     0.715564283622
    H            0.159429321589     1.513575269447    -0.802728649939
    H            0.770139822387     1.609267392433     0.816897302055
    C           -1.714570080138    -0.733994596999     0.421631382595
    H           -1.867677011396     1.374800227039     0.268433191622
    H           -1.178550384769     0.843833820798     1.786007849581
    H           -1.704150059146    -0.943788255150    -0.643583423106
    H           -2.739397051072    -0.821760469024     0.766749276244
    H           -1.139510158743    -1.509664048592     0.917269727404

  Mulliken Charges: (a.u.)
   Center  Symbol    Alpha    Beta     Spin     Total
       1     H     0.43089  0.43089  0.00000  0.13822
       2     C     2.83210  2.83210  0.00000  0.33581
       3     C     3.21247  3.21247  0.00000 -0.42494
       4     O     4.23726  4.23726  0.00000 -0.47453
       5     C     3.15953  3.15953  0.00000 -0.31905
       6     H     0.39818  0.39818  0.00000  0.20363
       7     H     0.40848  0.40848  0.00000  0.18305
       8     C     3.25162  3.25162  0.00000 -0.50324
       9     H     0.41053  0.41053  0.00000  0.17893
      10     H     0.41500  0.41500  0.00000  0.17000
      11     H     0.41110  0.41110  0.00000  0.17780
      12     H     0.41366  0.41366  0.00000  0.17269
      13     H     0.41918  0.41918  0.00000  0.16164

   Total alpha = 20.00000, Total beta = 20.00000, Total charge =  0.00000
