                              Psi4 1.0.54 Driver

  ==> Input File <==

--------------------------------------------------------------------------
set {
	reference rhf
	basis cc-pvtz
}

set_num_threads( 4 )
memory 2 gb

molecule MOL {
0 1

H	 3.721907	 -0.933076	 -0.066039
O	 2.824271	 -1.154299	 0.131461
C	 2.076458	 -0.067370	 -0.038225
C	 0.626018	 -0.337582	 0.258241
O	 2.538288	 0.965419	 -0.381593
C	 -0.267326	 0.883135	 0.076490
H	 0.325620	 -1.161483	 -0.378003
H	 0.574537	 -0.713685	 1.275261
C	 -1.726822	 0.642622	 0.463839
H	 -0.210803	 1.217591	 -0.953497
H	 0.129920	 1.693110	 0.675679
C	 -1.947413	 -0.441094	 1.517851
H	 -2.271847	 0.366769	 -0.433995
H	 -2.168592	 1.574845	 0.809159
C	 -3.424698	 -0.709397	 1.786395
H	 -1.468495	 -1.359862	 1.189923
H	 -1.466330	 -0.161179	 2.449604
H	 -3.553504	 -1.482449	 2.535049
H	 -3.933502	 -1.033355	 0.884803
H	 -3.925599	 0.184035	 2.144211

	symmetry c1
}
set optking {
	frozen_dihedral = ("
		12 9 6 10
	")
}

ee,wfn = optimize('scf', return_wfn=True)
oeprop( wfn, 'DIPOLE', 'QUADRUPOLE', 'MULLIKEN_CHARGES')
f=open( 'psi4out.xyz', 'w' )
f.write( "20  " )
f.write( str(ee) + "\n" )
f.write( MOL.save_string_xyz() )
f.close()
--------------------------------------------------------------------------

    Molecular point group: c1
  Charge       = 0
  Multiplicity = 1
  Basis Set: CC-PVTZ
  Basis Set:
  @DF-RHF Final Energy:  -384.08824069684152
    Total Energy =                       -384.0882406968409555
    Molecular point group: c1
  Basis Set: CC-PVTZ
  Basis Set:
  Basis Set: CC-PVTZ
  Basis Set:
  @DF-RHF Final Energy:  -383.47755389994927
    Total Energy =                       -383.4775538999494984
  Basis Set: CC-PVTZ
  Basis Set:
  Basis Set: CC-PVTZ
  Basis Set:
  @DF-RHF Final Energy:  -383.68118251580165
    Total Energy =                       -383.6811825158014244
  Basis Set: CC-PVTZ
  Basis Set:
  Basis Set: CC-PVTZ
  Basis Set:
  @DF-RHF Final Energy:  -383.95765461146641
    Total Energy =                       -383.9576546114664097
  Basis Set: CC-PVTZ
  Basis Set:
  @DF-RHF Final Energy:  -384.07189645385978
    Total Energy =                       -384.0718964538596083
  @DF-RHF Final Energy:  -384.05714380012239
    Total Energy =                       -384.0571438001221622
  @DF-RHF Final Energy:  -384.08868957609263
    Total Energy =                       -384.0886895760926336
  @DF-RHF Final Energy:  -384.09021362347193
    Total Energy =                       -384.0902136234719819
  Basis Set: CC-PVTZ
  Basis Set:
  @DF-RHF Final Energy:  -384.09006153149323
    Total Energy =                       -384.0900615314931770
  Basis Set: CC-PVTZ
  Basis Set:
  Basis Set: CC-PVTZ
  Basis Set:
  @DF-RHF Final Energy:  -384.09022582100141
    Total Energy =                       -384.0902258210015816
  Basis Set: CC-PVTZ
  Basis Set:
  Basis Set: CC-PVTZ
  Basis Set:
  @DF-RHF Final Energy:  -384.09026249481030
    Total Energy =                       -384.0902624948107018
  Basis Set: CC-PVTZ
  Basis Set:
  Charge       = 0
  Multiplicity = 1
  Basis Set: CC-PVTZ
  Basis Set:

    Orbital Energies (a.u.)
    -----------------------

    Doubly Occupied:

       1A    -20.603520     2A    -20.540296     3A    -11.373044
       4A    -11.238339     5A    -11.221322     6A    -11.219514
       7A    -11.218507     8A    -11.210871     9A     -1.477130
      10A     -1.368647    11A     -1.096129    12A     -1.041654
      13A     -0.961672    14A     -0.871371    15A     -0.822574
      16A     -0.770121    17A     -0.703448    18A     -0.691587
      19A     -0.670779    20A     -0.639329    21A     -0.599338
      22A     -0.596782    23A     -0.581125    24A     -0.552414
      25A     -0.539885    26A     -0.517990    27A     -0.499087
      28A     -0.484098    29A     -0.471427    30A     -0.462867
      31A     -0.456596    32A     -0.446594

  @DF-RHF Final Energy:  -384.09026291421384

   => Energetics <=

    Nuclear Repulsion Energy =            377.7150003923865711
    One-Electron Energy =               -1271.7144110389717753
    Two-Electron Energy =                 509.9091477323713661
    DFT Exchange-Correlation Energy =       0.0000000000000000
    Empirical Dispersion Energy =           0.0000000000000000
    PCM Polarization Energy =               0.0000000000000000
    EFP Energy =                            0.0000000000000000
    Total Energy =                       -384.0902629142137812
    Molecular point group: c1
  Basis Set: CC-PVTZ
  Basis Set:

  -Total Gradient:
     Atom            X                  Y                   Z
    ------   -----------------  -----------------  -----------------
       1        0.000012383127    -0.000007163677    -0.000024262826
       2        0.000050649619    -0.000023042503     0.000010809871
       3       -0.000066673969     0.000052952916     0.000007063299
       4        0.000058581675     0.000055024692     0.000028197547
       5        0.000006261105    -0.000030399608    -0.000019549953
       6       -0.002179455377     0.005350661887    -0.001379466056
       7       -0.000022011757    -0.000022913232    -0.000003300116
       8       -0.000013903450    -0.000022947266    -0.000009084136
       9        0.001713554827     0.005285536078     0.001263862972
      10        0.001422015949    -0.006048250994     0.000859649663
      11       -0.000002258587     0.000001888016    -0.000000178747
      12       -0.000951114943    -0.004596773749    -0.000760642421
      13       -0.000003581543    -0.000008942453     0.000004612312
      14       -0.000002948222     0.000002235944     0.000001504619
      15       -0.000020497368     0.000014846856     0.000023284532
      16        0.000000050913    -0.000002976138    -0.000000080907
      17        0.000011340444     0.000005299738    -0.000014535610
      18       -0.000002056287    -0.000002499234     0.000001089125
      19       -0.000005742709    -0.000000638017     0.000006130303
      20       -0.000004593450    -0.000001899257     0.000004896528

  **** Optimization is complete! (in 12 steps) ****
    Final optimized geometry and variables:
    Molecular point group: c1

    Geometry (in Angstrom), charge = 0, multiplicity = 1:

    H            2.667850433951    -1.188506860230    -2.411440505646
    O            2.222651521716    -1.216054074470    -1.577901561891
    C            1.198886777523    -0.367285542139    -1.620034022665
    C            0.433670806478    -0.355795572827    -0.323635325772
    O            0.957613549569     0.277665604950    -2.581225726100
    C           -0.734058506690     0.627263074738    -0.329089809241
    H            0.097442462125    -1.373181300653    -0.150941934759
    H            1.149610993866    -0.143052939366     0.460525999565
    C           -1.605531812418     0.602990427926     0.941346997430
    H           -1.351202079520     0.361540759069    -1.177423869845
    H           -0.350036776673     1.623145185197    -0.508947487096
    C           -0.909414624091     0.247473361665     2.255025533022
    H           -2.408264234099    -0.115415560144     0.795150696598
    H           -2.090040157488     1.568342936281     1.043146255768
    C           -1.854406181177     0.332259793393     3.449589357093
    H           -0.502149386060    -0.755817117807     2.198891868161
    H           -0.065865089753     0.912828793851     2.422226687975
    H           -1.348663723471     0.062411672182     4.369435410845
    H           -2.699087431906    -0.337743059555     3.327711005520
    H           -2.245851062327     1.336755381237     3.569058434055

  Mulliken Charges: (a.u.)
   Center  Symbol    Alpha    Beta     Spin     Total
       1     H     0.38239  0.38239  0.00000  0.23523
       2     O     4.15977  4.15977  0.00000 -0.31954
       3     C     2.80913  2.80913  0.00000  0.38173
       4     C     3.11495  3.11495  0.00000 -0.22990
       5     O     4.19078  4.19078  0.00000 -0.38156
       6     C     3.08945  3.08945  0.00000 -0.17891
       7     H     0.43702  0.43702  0.00000  0.12597
       8     H     0.43409  0.43409  0.00000  0.13182
       9     C     3.09469  3.09469  0.00000 -0.18939
      10     H     0.44177  0.44177  0.00000  0.11646
      11     H     0.44391  0.44391  0.00000  0.11218
      12     C     3.09163  3.09163  0.00000 -0.18327
      13     H     0.45282  0.45282  0.00000  0.09436
      14     H     0.44739  0.44739  0.00000  0.10523
      15     C     3.15093  3.15093  0.00000 -0.30187
      16     H     0.45095  0.45095  0.00000  0.09810
      17     H     0.45264  0.45264  0.00000  0.09473
      18     H     0.44756  0.44756  0.00000  0.10489
      19     H     0.45470  0.45470  0.00000  0.09059
      20     H     0.45343  0.45343  0.00000  0.09314

   Total alpha = 32.00000, Total beta = 32.00000, Total charge =  0.00000

*** Psi4 exiting successfully. Buy a developer a beer!
