  ==> Input File <==

--------------------------------------------------------------------------
set {
	reference rhf
	basis 6-31G*
}

set_num_threads( 4 )
memory 2 gb

molecule MOL {
0 1

O	 3.225979	 0.970355	 -0.599647
C	 2.701189	 0.057885	 -0.047330
C	 1.245376	 -0.013843	 0.345420
O	 3.347903	 -1.046386	 0.304773
C	 0.455112	 1.231400	 -0.050772
H	 0.838542	 -0.913825	 -0.103701
H	 1.208210	 -0.175333	 1.419774
C	 -0.998893	 1.219485	 0.433193
H	 0.482531	 1.345121	 -1.130325
H	 0.957290	 2.103070	 0.354729
C	 -1.883438	 0.145884	 -0.207175
H	 -1.431207	 2.195402	 0.224832
H	 -1.019646	 1.105716	 1.516076
C	 -3.347647	 0.245583	 0.225435
H	 -1.822183	 0.231698	 -1.291012
H	 -1.510341	 -0.844814	 0.042401
C	 -4.076721	 1.448575	 -0.375725
H	 -3.398892	 0.301369	 1.311481
H	 -3.869504	 -0.667482	 -0.056839
C	 -5.537262	 1.543009	 0.064278
H	 -3.555979	 2.361770	 -0.095466
H	 -4.030338	 1.392295	 -1.461294
H	 -6.026815	 2.405148	 -0.378057
H	 -5.616250	 1.635672	 1.143801
H	 -6.094016	 0.658426	 -0.232052
C	 4.728119	 -1.109107	 -0.004993
H	 4.882018	 -1.033965	 -1.071845
H	 5.068212	 -2.067527	 0.355250
H	 5.265056	 -0.311663	 0.488280

	symmetry c1
}
set optking {
	frozen_dihedral = ("
		17 14 11 15
	")
}

ee = optimize('scf')
oeprop('DIPOLE', 'QUADRUPOLE', 'MULLIKEN_CHARGES')
f=open( 'psi4out.xyz', 'w' )
f.write( "29  " )
f.write( str(ee) + "\n" )
f.write( MOL.save_string_xyz() )
f.close()
--------------------------------------------------------------------------

    Molecular point group: c1
  Charge       = 0
  Multiplicity = 1
  Basis Set: 6-31G*
  Basis Set:
  @DF-RHF Final Energy:  -501.04179246822548
    Total Energy =                       -501.0417924682261628
    Molecular point group: c1
  Basis Set: 6-31G*
  Basis Set:
  Basis Set: 6-31G*
  Basis Set:
  @DF-RHF Final Energy:  -501.04201518127513
    Total Energy =                       -501.0420151812757013
  Basis Set: 6-31G*
  Basis Set:
  Basis Set: 6-31G*
  Basis Set:
  @DF-RHF Final Energy:  -501.04218765617077
    Total Energy =                       -501.0421876561714498
  Basis Set: 6-31G*
  Basis Set:
  Basis Set: 6-31G*
  Basis Set:
  @DF-RHF Final Energy:  -501.04218150620682
    Total Energy =                       -501.0421815062074984
  Basis Set: 6-31G*
  Basis Set:
  Basis Set: 6-31G*
  Basis Set:
  @DF-RHF Final Energy:  -501.04218048492442
    Total Energy =                       -501.0421804849243017
  Basis Set: 6-31G*
  Basis Set:
  Basis Set: 6-31G*
  Basis Set:
  @DF-RHF Final Energy:  -501.04219574385945
    Total Energy =                       -501.0421957438591107
  Basis Set: 6-31G*
  Basis Set:
  Basis Set: 6-31G*
  Basis Set:
  @DF-RHF Final Energy:  -501.04219727890370
    Total Energy =                       -501.0421972789031315
  Basis Set: 6-31G*
  Basis Set:
  Charge       = 0
  Multiplicity = 1
  Basis Set: 6-31G*
  Basis Set:

    Orbital Energies (a.u.)
    -----------------------

    Doubly Occupied:

       1A    -20.603334     2A    -20.545158     3A    -11.371977
       4A    -11.280634     5A    -11.234663     6A    -11.219072
       7A    -11.217219     8A    -11.216210     9A    -11.215357
      10A    -11.214690    11A    -11.208868    12A     -1.469034
      13A     -1.362473    14A     -1.097835    15A     -1.065896
      16A     -1.017969    17A     -0.976964    18A     -0.928918
      19A     -0.862072    20A     -0.812041    21A     -0.779150
      22A     -0.762956    23A     -0.700924    24A     -0.682135
      25A     -0.671955    26A     -0.634503    27A     -0.630920
      28A     -0.616889    29A     -0.594715    30A     -0.580370
      31A     -0.563584    32A     -0.556245    33A     -0.537726
      34A     -0.526534    35A     -0.522942    36A     -0.498824
      37A     -0.494952    38A     -0.485849    39A     -0.471914
      40A     -0.461298    41A     -0.455960    42A     -0.447182
      43A     -0.442713    44A     -0.437038

  @DF-RHF Final Energy:  -501.04219775020636

   => Energetics <=

    Nuclear Repulsion Energy =            612.8929054649630643
    One-Electron Energy =               -1896.9148832629477965
    Two-Electron Energy =                 782.9797800477783767
    DFT Exchange-Correlation Energy =       0.0000000000000000
    Empirical Dispersion Energy =           0.0000000000000000
    PCM Polarization Energy =               0.0000000000000000
    EFP Energy =                            0.0000000000000000
    Total Energy =                       -501.0421977502062418
    Molecular point group: c1
  Basis Set: 6-31G*
  Basis Set:

  -Total Gradient:
     Atom            X                  Y                   Z
    ------   -----------------  -----------------  -----------------
       1        0.000001254533     0.000004783913     0.000007864713
       2       -0.000006641760    -0.000012533536    -0.000022636018
       3        0.000003418126    -0.000001218142     0.000005984230
       4        0.000001278308     0.000002892257     0.000008164701
       5        0.000002339395     0.000002135939    -0.000004676278
       6        0.000002480209     0.000000136193    -0.000000542011
       7       -0.000002146240     0.000000091102    -0.000000791587
       8        0.000004741470     0.000007337096    -0.000008803356
       9        0.000001543368    -0.000000747171     0.000003881887
      10       -0.000000453256     0.000003742961     0.000000369482
      11       -0.000120650882    -0.001026590815    -0.000237641808
      12        0.000011357452    -0.000000716856     0.000002817778
      13       -0.000008272648    -0.000005342118    -0.000004028328
      14        0.000213298019     0.000605268782     0.000625663148
      15        0.000054635288     0.000726143646     0.000068640095
      16        0.000008654523    -0.000003677140    -0.000002846801
      17       -0.000161715983    -0.000312086775    -0.000446241261
      18       -0.000001391194    -0.000010011619     0.000005804253
      19        0.000005686306     0.000011764643    -0.000004273542
      20        0.000004700721     0.000013494566     0.000012877390
      21       -0.000010054880    -0.000003539229    -0.000006196047
      22       -0.000001242132    -0.000003296014    -0.000004580176
      23        0.000001977747     0.000003930826     0.000006206472
      24       -0.000003833008    -0.000007191567     0.000002202520
      25        0.000000741517     0.000003358591    -0.000007331401
      26       -0.000001077501     0.000001584920     0.000000052209
      27       -0.000000357461     0.000000041743    -0.000000215279
      28       -0.000000611285     0.000000155319     0.000000185558
      29        0.000000341233     0.000000088486     0.000000089459

  **** Optimization is complete! (in 8 steps) ****
    Final optimized geometry and variables:
    Molecular point group: c1

    Geometry (in Angstrom), charge = 0, multiplicity = 1:

    O            3.223456811849     0.523118788740    -0.611546891863
    C            2.680754057568    -0.374815496815    -0.052743645574
    C            1.222538868447    -0.417468342762     0.335404034400
    O            3.306796514304    -1.486842765746     0.312108882683
    C            0.455771758868     0.837608868395    -0.076001398847
    H            0.802430644331    -1.315102878183    -0.105885075856
    H            1.179037657620    -0.567208148688     1.411224882681
    C           -0.999126016672     0.861648821947     0.406611266191
    H            0.486409659901     0.938522798478    -1.156775262897
    H            0.974779536025     1.703871891816     0.319742875887
    C           -1.900953023340    -0.203256283564    -0.227759725681
    H           -1.401280802039     1.847740056349     0.194308172965
    H           -1.023210035611     0.751936561415     1.490061365408
    C           -3.367902039094    -0.129236935417     0.216094609546
    H           -1.849076769354    -0.113174202702    -1.311786834122
    H           -1.520813909651    -1.191527008372     0.016399407744
    C           -4.153506733904     1.053040979641    -0.358419016699
    H           -3.415235141950    -0.102632699111     1.303665173694
    H           -3.866771408524    -1.048421147676    -0.084301175448
    C           -5.621118776419     1.047131824690     0.069179939488
    H           -3.699568021152     1.991042686201    -0.051267877297
    H           -4.094478505999     1.025617965193    -1.444543575441
    H           -6.157311899986     1.891463361764    -0.352947208646
    H           -5.714659358729     1.103260720308     1.150120621078
    H           -6.121664120355     0.140144479393    -0.258068053782
    C            4.686809479749    -1.576549611397     0.008162219528
    H            4.845860640071    -1.514181909681    -1.058762629097
    H            5.008770237945    -2.537311306996     0.378666128262
    H            5.235816751025    -0.783976464998     0.495972221128

  Mulliken Charges: (a.u.)
   Center  Symbol    Alpha    Beta     Spin     Total
       1     O     4.28598  4.28598  0.00000 -0.57195
       2     C     2.60476  2.60476  0.00000  0.79047
       3     C     3.20984  3.20984  0.00000 -0.41968
       4     O     4.30746  4.30746  0.00000 -0.61492
       5     C     3.15363  3.15363  0.00000 -0.30726
       6     H     0.39893  0.39893  0.00000  0.20214
       7     H     0.40124  0.40124  0.00000  0.19751
       8     C     3.15825  3.15825  0.00000 -0.31650
       9     H     0.41312  0.41312  0.00000  0.17377
      10     H     0.40874  0.40874  0.00000  0.18252
      11     C     3.15674  3.15674  0.00000 -0.31348
      12     H     0.41629  0.41629  0.00000  0.16741
      13     H     0.42432  0.42432  0.00000  0.15137
      14     C     3.15203  3.15203  0.00000 -0.30406
      15     H     0.42279  0.42279  0.00000  0.15441
      16     H     0.42157  0.42157  0.00000  0.15686
      17     C     3.15327  3.15327  0.00000 -0.30655
      18     H     0.42398  0.42398  0.00000  0.15204
      19     H     0.42184  0.42184  0.00000  0.15632
      20     C     3.23922  3.23922  0.00000 -0.47845
      21     H     0.42118  0.42118  0.00000  0.15764
      22     H     0.42293  0.42293  0.00000  0.15413
      23     H     0.41909  0.41909  0.00000  0.16181
      24     H     0.42176  0.42176  0.00000  0.15647
      25     H     0.42188  0.42188  0.00000  0.15624
      26     C     3.09239  3.09239  0.00000 -0.18479
      27     H     0.40909  0.40909  0.00000  0.18182
      28     H     0.40852  0.40852  0.00000  0.18297
      29     H     0.40913  0.40913  0.00000  0.18173

   Total alpha = 44.00000, Total beta = 44.00000, Total charge = -0.00000
