  ==> Input File <==

--------------------------------------------------------------------------
set {
	reference rhf
	basis 6-31G*
}

set_num_threads( 4 )
memory 2 gb

molecule MOL {
0 1

O	 2.338820	 0.399880	 -0.963030
C	 1.705091	 0.115954	 0.001797
C	 0.381791	 -0.609817	 0.001258
O	 2.093832	 0.405743	 1.237127
C	 -0.823008	 0.326187	 0.001381
H	 0.371250	 -1.265087	 -0.865474
H	 0.370908	 -1.265746	 0.867490
C	 -2.149452	 -0.435131	 -0.000098
H	 -0.770201	 0.977095	 -0.865636
H	 -0.771220	 0.975655	 0.869608
C	 -3.368779	 0.488503	 -0.000883
H	 -2.193746	 -1.087250	 -0.871175
H	 -2.195311	 -1.087803	 0.870418
C	 -4.693822	 -0.272754	 -0.001129
H	 -3.325798	 1.139422	 -0.871284
H	 -3.326423	 1.139959	 0.869145
H	 -4.781274	 -0.907928	 -0.878124
H	 -5.538651	 0.408946	 -0.001420
H	 -4.781694	 -0.907783	 0.875984
C	 3.326269	 1.088212	 1.379576
H	 4.135728	 0.500048	 0.971694
H	 3.464335	 1.229818	 2.440124
H	 3.292299	 2.043347	 0.875523

	symmetry c1
}
set optking {
	frozen_dihedral = ("
		1 2 3 6
	")
}

ee = optimize('scf')
oeprop('DIPOLE', 'QUADRUPOLE', 'MULLIKEN_CHARGES')
f=open( 'psi4out.xyz', 'w' )
f.write( "23  " )
f.write( str(ee) + "\n" )
f.write( MOL.save_string_xyz() )
f.close()
--------------------------------------------------------------------------

    Molecular point group: c1
  Charge       = 0
  Multiplicity = 1
  Basis Set: 6-31G*
  Basis Set:
  @DF-RHF Final Energy:  -422.97426391289713
    Total Energy =                       -422.9742639128975270
    Molecular point group: c1
  Basis Set: 6-31G*
  Basis Set:
  Basis Set: 6-31G*
  Basis Set:
  @DF-RHF Final Energy:  -422.97347543940981
    Total Energy =                       -422.9734754394102083
  Basis Set: 6-31G*
  Basis Set:
  Basis Set: 6-31G*
  Basis Set:
  @DF-RHF Final Energy:  -422.97483597045039
    Total Energy =                       -422.9748359704510676
  Basis Set: 6-31G*
  Basis Set:
  Basis Set: 6-31G*
  Basis Set:
  @DF-RHF Final Energy:  -422.97492847725545
    Total Energy =                       -422.9749284772549345
  Basis Set: 6-31G*
  Basis Set:
  Basis Set: 6-31G*
  Basis Set:
  @DF-RHF Final Energy:  -422.97492977799288
    Total Energy =                       -422.9749297779926565
  Basis Set: 6-31G*
  Basis Set:
  Basis Set: 6-31G*
  Basis Set:
  @DF-RHF Final Energy:  -422.97493084959643
    Total Energy =                       -422.9749308495956939
  Basis Set: 6-31G*
  Basis Set:
  Charge       = 0
  Multiplicity = 1
  Basis Set: 6-31G*
  Basis Set:

    Orbital Energies (a.u.)
    -----------------------

    Doubly Occupied:

       1A    -20.604387     2A    -20.542521     3A    -11.370444
       4A    -11.280423     5A    -11.233414     6A    -11.229745
       7A    -11.222004     8A    -11.220100     9A    -11.212133
      10A     -1.468407    11A     -1.360805    12A     -1.097234
      13A     -1.045496    14A     -0.985041    15A     -0.934486
      16A     -0.846541    17A     -0.798748    18A     -0.772850
      19A     -0.693921    20A     -0.679784    21A     -0.672589
      22A     -0.653464    23A     -0.607345    24A     -0.595502
      25A     -0.578930    26A     -0.571927    27A     -0.539035
      28A     -0.537279    29A     -0.523567    30A     -0.506256
      31A     -0.492390    32A     -0.476344    33A     -0.470720
      34A     -0.466492    35A     -0.453119    36A     -0.427790

  @DF-RHF Final Energy:  -422.97493119813441

   => Energetics <=

    Nuclear Repulsion Energy =            454.5006325813538979
    One-Electron Energy =               -1476.6086651953055480
    Two-Electron Energy =                 599.1331014158183734
    DFT Exchange-Correlation Energy =       0.0000000000000000
    Empirical Dispersion Energy =           0.0000000000000000
    PCM Polarization Energy =               0.0000000000000000
    EFP Energy =                            0.0000000000000000
    Total Energy =                       -422.9749311981332767
    Molecular point group: c1
  Basis Set: 6-31G*
  Basis Set:

  -Total Gradient:
     Atom            X                  Y                   Z
    ------   -----------------  -----------------  -----------------
       1       -0.000220067477     0.000392895863     0.000018633945
       2        0.000346387139    -0.000639072208     0.000033212764
       3       -0.000322070836     0.000540758887    -0.000268758893
       4       -0.000001224502     0.000028759724    -0.000017506731
       5       -0.000020424823    -0.000004866085     0.000012178700
       6        0.000180434094    -0.000316666941     0.000204749608
       7       -0.000005279409     0.000004951157    -0.000001460495
       8        0.000015442927     0.000000070657     0.000004829125
       9        0.000004794554    -0.000013527051    -0.000007371186
      10       -0.000012522203     0.000002362221     0.000009098707
      11        0.000001751568     0.000012270182     0.000006309694
      12        0.000011431462     0.000000477981     0.000001931599
      13        0.000013254908     0.000004541386     0.000000600436
      14        0.000003086408    -0.000000454633    -0.000007565859
      15       -0.000002097569     0.000004276342     0.000001330424
      16       -0.000003967522    -0.000000195128     0.000002737450
      17       -0.000000911073    -0.000002663123    -0.000000386001
      18        0.000002767965     0.000000414535    -0.000002426628
      19        0.000000691106     0.000002114183     0.000001206425
      20        0.000017598054    -0.000033448349     0.000007756947
      21        0.000003193679     0.000008514806     0.000003105643
      22       -0.000001142230     0.000006855920     0.000001501101
      23       -0.000011126224     0.000001629673    -0.000003706775

  **** Optimization is complete! (in 7 steps) ****
    Final optimized geometry and variables:
    Molecular point group: c1

    Geometry (in Angstrom), charge = 0, multiplicity = 1:

    O            2.383671441509     0.243595625291    -1.161286908965
    C            1.796869090083    -0.092907597855    -0.182996791224
    C            0.493053330092    -0.850028066274    -0.181231513522
    O            2.204101551107     0.200910502454     1.045133630564
    C           -0.701591369731     0.116105078939    -0.170551299059
    H            0.471268044772    -1.463674565945    -1.073269024031
    H            0.455732162119    -1.496460864307     0.687722506767
    C           -2.042662125119    -0.617987357545    -0.194787170075
    H           -0.629496428209     0.775433458630    -1.031240818261
    H           -0.645143514183     0.743933546698     0.714763930391
    C           -3.243444667952     0.329702001542    -0.188122834850
    H           -2.089744738177    -1.252141203482    -1.078135906228
    H           -2.104837397629    -1.283758997499     0.664189855428
    C           -4.582467395256    -0.406325997564    -0.214439152308
    H           -3.180561951333     0.995725553861    -1.045761442446
    H           -3.196945861061     0.963230842224     0.694949376475
    H           -4.673522423584    -1.023050286579    -1.104033324708
    H           -5.414001899857     0.291356378340    -0.209457647450
    H           -4.690283991399    -1.055639672503     0.649789746508
    C            3.394078874088     0.959440998690     1.162215655819
    H            4.226041372950     0.430668814711     0.719999435021
    H            3.555843103446     1.093759576693     2.220411695877
    H            3.283087673896     1.917631515128     0.675268933453

  Mulliken Charges: (a.u.)
   Center  Symbol    Alpha    Beta     Spin     Total
       1     O     4.28558  4.28558  0.00000 -0.57116
       2     C     2.61720  2.61720  0.00000  0.76559
       3     C     3.19330  3.19330  0.00000 -0.38660
       4     O     4.30288  4.30288  0.00000 -0.60577
       5     C     3.16633  3.16633  0.00000 -0.33267
       6     H     0.40036  0.40036  0.00000  0.19929
       7     H     0.40401  0.40401  0.00000  0.19197
       8     C     3.15186  3.15186  0.00000 -0.30372
       9     H     0.40919  0.40919  0.00000  0.18161
      10     H     0.41206  0.41206  0.00000  0.17587
      11     C     3.15254  3.15254  0.00000 -0.30509
      12     H     0.42080  0.42080  0.00000  0.15839
      13     H     0.42184  0.42184  0.00000  0.15632
      14     C     3.23987  3.23987  0.00000 -0.47974
      15     H     0.42092  0.42092  0.00000  0.15817
      16     H     0.42186  0.42186  0.00000  0.15629
      17     H     0.42086  0.42086  0.00000  0.15829
      18     H     0.41808  0.41808  0.00000  0.16385
      19     H     0.42131  0.42131  0.00000  0.15739
      20     C     3.09271  3.09271  0.00000 -0.18542
      21     H     0.40848  0.40848  0.00000  0.18304
      22     H     0.40881  0.40881  0.00000  0.18239
      23     H     0.40914  0.40914  0.00000  0.18171

   Total alpha = 36.00000, Total beta = 36.00000, Total charge =  0.00000
