  ==> Input File <==

--------------------------------------------------------------------------
set {
	reference rhf
	basis 6-31G*
}

set_num_threads( 4 )
memory 2 gb

molecule MOL {
0 1

H	 -2.439371	 -1.777225	 -0.398175
C	 -1.666636	 -1.053566	 -0.229045
C	 -1.967122	 0.332465	 -0.014221
C	 -0.378435	 -1.419151	 -0.211637
H	 -2.992453	 0.657540	 -0.022357
C	 -0.983516	 1.219085	 0.195275
H	 -0.069967	 -2.436050	 -0.363849
N	 0.640212	 -0.532897	 -0.000111
H	 -1.170184	 2.262428	 0.359426
C	 0.418181	 0.821003	 0.214215
C	 2.010177	 -1.032049	 0.000042
O	 1.331155	 1.586821	 0.399164
H	 2.187698	 -1.635381	 -0.882279
H	 2.677579	 -0.189247	 -0.001871
H	 2.188882	 -1.632203	 0.884288

	symmetry c1
}
set optking {
	frozen_dihedral = ("
		10 8 11 13
	")
}

ee = optimize('scf')
oeprop('DIPOLE', 'QUADRUPOLE', 'MULLIKEN_CHARGES')
f=open( 'psi4out.xyz', 'w' )
f.write( "15  " )
f.write( str(ee) + "\n" )
f.write( MOL.save_string_xyz() )
f.close()
--------------------------------------------------------------------------

    Molecular point group: c1
  Charge       = 0
  Multiplicity = 1
  Basis Set: 6-31G*
  Basis Set:
  @DF-RHF Final Energy:  -360.59583238719568
    Total Energy =                       -360.5958323871957987
    Molecular point group: c1
  Basis Set: 6-31G*
  Basis Set:
  Basis Set: 6-31G*
  Basis Set:
  @DF-RHF Final Energy:  -360.59585139229023
    Total Energy =                       -360.5958513922902284
  Basis Set: 6-31G*
  Basis Set:
  Basis Set: 6-31G*
  Basis Set:
  @DF-RHF Final Energy:  -360.59584883396525
    Total Energy =                       -360.5958488339650216
  Basis Set: 6-31G*
  Basis Set:
  Charge       = 0
  Multiplicity = 1
  Basis Set: 6-31G*
  Basis Set:

    Orbital Energies (a.u.)
    -----------------------

    Doubly Occupied:

       1A    -20.508684     2A    -15.621234     3A    -11.343465
       4A    -11.296596     5A    -11.264218     6A    -11.260441
       7A    -11.233779     8A    -11.229226     9A     -1.384283
      10A     -1.281030    11A     -1.114813    12A     -1.025770
      13A     -0.969942    14A     -0.872100    15A     -0.835324
      16A     -0.715402    17A     -0.698527    18A     -0.660672
      19A     -0.647942    20A     -0.621669    21A     -0.606706
      22A     -0.571984    23A     -0.553352    24A     -0.546929
      25A     -0.526070    26A     -0.476149    27A     -0.413638
      28A     -0.405982    29A     -0.305261

  @DF-RHF Final Energy:  -360.59585485781832

   => Energetics <=

    Nuclear Repulsion Energy =            357.5837286068010030
    One-Electron Energy =               -1198.3767923771195001
    Two-Electron Energy =                 480.1972089125005709
    DFT Exchange-Correlation Energy =       0.0000000000000000
    Empirical Dispersion Energy =           0.0000000000000000
    PCM Polarization Energy =               0.0000000000000000
    EFP Energy =                            0.0000000000000000
    Total Energy =                       -360.5958548578178693
    Molecular point group: c1
  Basis Set: 6-31G*
  Basis Set:

  -Total Gradient:
     Atom            X                  Y                   Z
    ------   -----------------  -----------------  -----------------
       1        0.000007311330     0.000004043602    -0.000016918643
       2        0.000010923885     0.000009714924     0.000006790744
       3        0.000007708213    -0.000003340774     0.000020192373
       4        0.000015534870    -0.000020759485     0.000041095997
       5        0.000005156882     0.000004290423    -0.000001550072
       6        0.000015809673     0.000025131856    -0.000015318397
       7       -0.000001321432     0.000004249906    -0.000006606427
       8       -0.000049342965    -0.000061898417     0.000215589346
       9       -0.000010881500     0.000008760930     0.000005904121
      10        0.000021968880     0.000002616573    -0.000206755906
      11       -0.000064593913    -0.000242173817     0.000017126518
      12       -0.000016338381     0.000087288338     0.000028527645
      13        0.000075466176     0.000191971088    -0.000113072265
      14       -0.000020478413    -0.000023878905     0.000012557601
      15        0.000003076695     0.000013983760     0.000012437364

  **** Optimization is complete! (in 4 steps) ****
    Final optimized geometry and variables:
    Molecular point group: c1

    Geometry (in Angstrom), charge = 0, multiplicity = 1:

    H           -2.439543473029    -1.772862648698    -0.440200668934
    C           -1.666048188086    -1.049281842570    -0.274573396320
    C           -1.965623745319     0.337545067174    -0.063386456552
    C           -0.377905678983    -1.415335137390    -0.261324742409
    H           -2.990873826208     0.662795127961    -0.070904214209
    C           -0.981358219985     1.224448377800     0.141584148735
    H           -0.070417294325    -2.432481698498    -0.412981301065
    N            0.641656992264    -0.528229232038    -0.058043609543
    H           -1.167139779285     2.268336116582     0.303912414902
    C            0.419758948891     0.824404002239     0.163524720870
    C            2.012195263261    -1.025927271957    -0.049285283592
    O            1.333248067206     1.587617301081     0.356667858640
    H            2.192165019974    -1.621924893378    -0.935311082344
    H            2.679354486578    -0.182813888867    -0.040885166759
    H            2.190789279505    -1.631397971590     0.831801912988

  Mulliken Charges: (a.u.)
   Center  Symbol    Alpha    Beta     Spin     Total
       1     H     0.39285  0.39285  0.00000  0.21431
       2     C     3.16152  3.16152  0.00000 -0.32303
       3     C     3.05827  3.05827  0.00000 -0.11654
       4     C     2.92084  2.92084  0.00000  0.15832
       5     H     0.39084  0.39084  0.00000  0.21831
       6     C     3.16970  3.16970  0.00000 -0.33940
       7     H     0.38790  0.38790  0.00000  0.22420
       8     N     3.86564  3.86564  0.00000 -0.73128
       9     H     0.38633  0.38633  0.00000  0.22733
      10     C     2.59396  2.59396  0.00000  0.81209
      11     C     3.15514  3.15514  0.00000 -0.31028
      12     O     4.32200  4.32200  0.00000 -0.64399
      13     H     0.41178  0.41178  0.00000  0.17644
      14     H     0.37424  0.37424  0.00000  0.25151
      15     H     0.40900  0.40900  0.00000  0.18199

   Total alpha = 29.00000, Total beta = 29.00000, Total charge =  0.00000
