                              Psi4 1.0.54 Driver

  ==> Input File <==

--------------------------------------------------------------------------
set {
	reference rhf
	basis cc-pvtz
}

set_num_threads( 4 )
memory 2 gb

molecule MOL {
0 1

H	 2.732770	 -0.221189	 0.893424
N	 2.326826	 -0.066186	 0.000000
C	 0.934676	 -0.005420	 0.000000
H	 2.772352	 0.685646	 -0.472522
C	 0.226436	 -0.001077	 -1.195129
C	 0.226436	 -0.001077	 1.195129
H	 0.759091	 -0.011439	 -2.128123
C	 -1.153391	 0.009141	 -1.189028
H	 0.759091	 -0.011439	 2.128123
C	 -1.153391	 0.009141	 1.189028
H	 -1.680905	 0.012964	 -2.124348
C	 -1.857876	 0.014675	 0.000000
H	 -1.680905	 0.012964	 2.124348
H	 -2.930222	 0.022904	 0.000000

	symmetry c1
}
set optking {
	frozen_dihedral = ("
		1 2 3 5
	")
}

ee,wfn = optimize('scf', return_wfn=True)
oeprop( wfn, 'DIPOLE', 'QUADRUPOLE', 'MULLIKEN_CHARGES')
f=open( 'psi4out.xyz', 'w' )
f.write( "14  " )
f.write( str(ee) + "\n" )
f.write( MOL.save_string_xyz() )
f.close()
--------------------------------------------------------------------------

    Molecular point group: c1
  Charge       = 0
  Multiplicity = 1
  Basis Set: CC-PVTZ
  Basis Set:
  @DF-RHF Final Energy:  -285.83112070009969
    Total Energy =                       -285.8311207000998593
    Molecular point group: c1
  Basis Set: CC-PVTZ
  Basis Set:
  Basis Set: CC-PVTZ
  Basis Set:
  @DF-RHF Final Energy:  -285.83138948103124
    Total Energy =                       -285.8313894810312377
  Basis Set: CC-PVTZ
  Basis Set:
  Basis Set: CC-PVTZ
  Basis Set:
  @DF-RHF Final Energy:  -285.83143244918375
    Total Energy =                       -285.8314324491840352
  Basis Set: CC-PVTZ
  Basis Set:
  Basis Set: CC-PVTZ
  Basis Set:
  @DF-RHF Final Energy:  -285.83143624857360
    Total Energy =                       -285.8314362485736524
  Basis Set: CC-PVTZ
  Basis Set:
  Basis Set: CC-PVTZ
  Basis Set:
  @DF-RHF Final Energy:  -285.83143756994798
    Total Energy =                       -285.8314375699480365
  Basis Set: CC-PVTZ
  Basis Set:
  Charge       = 0
  Multiplicity = 1
  Basis Set: CC-PVTZ
  Basis Set:

    Orbital Energies (a.u.)
    -----------------------

    Doubly Occupied:

       1A    -15.550573     2A    -11.267636     3A    -11.226986
       4A    -11.226501     5A    -11.217570     6A    -11.215789
       7A    -11.214246     8A     -1.220872     9A     -1.130368
      10A     -1.013551    11A     -0.988177    12A     -0.831542
      13A     -0.812681    14A     -0.707402    15A     -0.685738
      16A     -0.652977    17A     -0.609036    18A     -0.595870
      19A     -0.582781    20A     -0.521307    21A     -0.506015
      22A     -0.489333    23A     -0.438889    24A     -0.335698
      25A     -0.300857

  @DF-RHF Final Energy:  -285.83143784149405

   => Energetics <=

    Nuclear Repulsion Energy =            273.5343894826917790
    One-Electron Energy =                -928.0468679714357449
    Two-Electron Energy =                 368.6810406472498585
    DFT Exchange-Correlation Energy =       0.0000000000000000
    Empirical Dispersion Energy =           0.0000000000000000
    PCM Polarization Energy =               0.0000000000000000
    EFP Energy =                            0.0000000000000000
    Total Energy =                       -285.8314378414940506
    Molecular point group: c1
  Basis Set: CC-PVTZ
  Basis Set:

  -Total Gradient:
     Atom            X                  Y                   Z
    ------   -----------------  -----------------  -----------------
       1       -0.000225026752    -0.004159322536    -0.000581981708
       2        0.000280071810     0.003854764130     0.000785020920
       3        0.000074414859     0.003304456125    -0.000231059025
       4       -0.000020186013     0.000026075136     0.000005159687
       5       -0.000205446388    -0.003073860968     0.000054638123
       6        0.000099245695     0.000056541698    -0.000022306139
       7        0.000005091906     0.000003817058     0.000008702906
       8        0.000060196974    -0.000028712675    -0.000042672783
       9       -0.000006422693     0.000002043964    -0.000002633608
      10       -0.000060746246    -0.000001680848    -0.000034412170
      11       -0.000008619206     0.000002322347     0.000002736496
      12        0.000010004914     0.000010659069     0.000062411603
      13       -0.000002421829     0.000000322760    -0.000001061393
      14       -0.000000157034     0.000002574743    -0.000002542908

  **** Optimization is complete! (in 6 steps) ****
    Final optimized geometry and variables:
    Molecular point group: c1

    Geometry (in Angstrom), charge = 0, multiplicity = 1:

    H            2.749704864012    -0.209128368201     0.876030960440
    N            2.331759532246    -0.061241915425    -0.012135165000
    C            0.932638881345     0.005409703056     0.005384402521
    H            2.785162789006     0.656235844274    -0.528581172708
    C            0.230220869879    -0.000347735397    -1.194076144931
    C            0.220319918779    -0.001793471052     1.194677650425
    H            0.773393672804    -0.029561205712    -2.119641359280
    C           -1.148028015001     0.021228378741    -1.196129293949
    H            0.748223158416    -0.002209443614     2.130468248499
    C           -1.162451574017    -0.005213642966     1.184264857286
    H           -1.672885274062     0.024647239535    -2.132854655858
    C           -1.857392929755     0.014725678939    -0.007554082482
    H           -1.695061600871    -0.013771853878     2.116565977932
    H           -2.929960604828     0.019766130793    -0.013437966450

  Mulliken Charges: (a.u.)
   Center  Symbol    Alpha    Beta     Spin     Total
       1     H     0.42165  0.42165  0.00000  0.15669
       2     N     3.69000  3.69000  0.00000 -0.38001
       3     C     2.88110  2.88110  0.00000  0.23779
       4     H     0.41579  0.41579  0.00000  0.16843
       5     C     3.11547  3.11547  0.00000 -0.23094
       6     C     3.11942  3.11942  0.00000 -0.23884
       7     H     0.42707  0.42707  0.00000  0.14585
       8     C     3.06083  3.06083  0.00000 -0.12165
       9     H     0.43369  0.43369  0.00000  0.13263
      10     C     3.06240  3.06240  0.00000 -0.12479
      11     H     0.42445  0.42445  0.00000  0.15109
      12     C     3.09849  3.09849  0.00000 -0.19698
      13     H     0.42465  0.42465  0.00000  0.15070
      14     H     0.42499  0.42499  0.00000  0.15002

   Total alpha = 25.00000, Total beta = 25.00000, Total charge = -0.00000

*** Psi4 exiting successfully. Buy a developer a beer!
