  ==> Input File <==

--------------------------------------------------------------------------
set {
	reference rhf
	basis 6-31G*
}

set_num_threads( 4 )
memory 2 gb

molecule MOL {
0 1

H	 -3.161837	 0.500524	 -0.000234
C	 -2.367097	 -0.232926	 -0.000000
O	 -1.158440	 0.455814	 -0.000122
H	 -2.468853	 -0.861886	 -0.882833
H	 -2.468942	 -0.861421	 0.883154
C	 -0.761611	 0.919351	 1.255081
C	 0.563543	 1.647525	 1.112282
H	 -0.661722	 0.083978	 1.949397
H	 -1.519227	 1.588724	 1.664795
C	 1.077659	 2.192037	 2.444225
H	 1.288065	 0.962680	 0.682495
H	 0.436610	 2.456943	 0.399941
H	 1.234838	 1.394041	 3.164586
H	 2.023518	 2.706773	 2.312908
H	 0.376933	 2.898492	 2.880467

	symmetry c1
}
set optking {
	frozen_dihedral = ("
		6 3 2 4
	")
}

ee = optimize('scf')
oeprop('DIPOLE', 'QUADRUPOLE', 'MULLIKEN_CHARGES')
f=open( 'psi4out.xyz', 'w' )
f.write( "15  " )
f.write( str(ee) + "\n" )
f.write( MOL.save_string_xyz() )
f.close()
--------------------------------------------------------------------------

    Molecular point group: c1
  Charge       = 0
  Multiplicity = 1
  Basis Set: 6-31G*
  Basis Set:
  @DF-RHF Final Energy:  -232.13732836882642
    Total Energy =                       -232.1373283688265019
    Molecular point group: c1
  Basis Set: 6-31G*
  Basis Set:
  Basis Set: 6-31G*
  Basis Set:
  @DF-RHF Final Energy:  -232.13824602362138
    Total Energy =                       -232.1382460236215479
  Basis Set: 6-31G*
  Basis Set:
  Basis Set: 6-31G*
  Basis Set:
  @DF-RHF Final Energy:  -232.13848191765783
    Total Energy =                       -232.1384819176578276
  Basis Set: 6-31G*
  Basis Set:
  Charge       = 0
  Multiplicity = 1
  Basis Set: 6-31G*
  Basis Set:

    Orbital Energies (a.u.)
    -----------------------

    Doubly Occupied:

       1A    -20.552476     2A    -11.266388     3A    -11.263809
       4A    -11.214119     5A    -11.212865     6A     -1.377083
       7A     -1.057195     8A     -0.955304     9A     -0.877286
      10A     -0.809036    11A     -0.674111    12A     -0.653363
      13A     -0.629780    14A     -0.607943    15A     -0.564917
      16A     -0.542726    17A     -0.502557    18A     -0.488345
      19A     -0.478274    20A     -0.461182    21A     -0.412670

  @DF-RHF Final Energy:  -232.13848265937236

   => Energetics <=

    Nuclear Repulsion Energy =            189.6593861409255624
    One-Electron Energy =                -690.3928797961857526
    Two-Electron Energy =                 268.5950109958879466
    DFT Exchange-Correlation Energy =       0.0000000000000000
    Empirical Dispersion Energy =           0.0000000000000000
    PCM Polarization Energy =               0.0000000000000000
    EFP Energy =                            0.0000000000000000
    Total Energy =                       -232.1384826593722437
    Molecular point group: c1
  Basis Set: 6-31G*
  Basis Set:

  -Total Gradient:
     Atom            X                  Y                   Z
    ------   -----------------  -----------------  -----------------
       1        0.000029447629     0.000029298448    -0.000007195847
       2       -0.000966741494     0.001698401188    -0.001372655288
       3       -0.001203328040     0.002168600452    -0.000286559358
       4        0.001175900589    -0.001937589436     0.001299724815
       5        0.000040339669     0.000011197248     0.000021051314
       6        0.000985274998    -0.001959455737     0.000466954131
       7       -0.000010286062    -0.000010293426    -0.000075468888
       8       -0.000005863735    -0.000002233347     0.000032252166
       9       -0.000000684164    -0.000003428368    -0.000055486401
      10       -0.000054167035     0.000000500460     0.000002248498
      11       -0.000011098508    -0.000008659472    -0.000003031814
      12        0.000029919760     0.000020981211    -0.000008471644
      13        0.000003935840    -0.000004144499    -0.000006191141
      14       -0.000012283933    -0.000004376217    -0.000019932914
      15       -0.000000365515     0.000001201496     0.000012762371

  **** Optimization is complete! (in 4 steps) ****
    Final optimized geometry and variables:
    Molecular point group: c1

    Geometry (in Angstrom), charge = 0, multiplicity = 1:

    H           -2.660157376488    -0.515701427376    -0.953358144595
    C           -1.818594482945    -1.204987094998    -0.958231956114
    O           -0.602300493253    -0.527112615645    -0.950495143413
    H           -1.853235446569    -1.813148718466    -1.852320731006
    H           -1.910974463959    -1.866504315866    -0.098872210790
    C           -0.205361877471    -0.054704763171     0.301859125361
    C            1.124360144580     0.663703597994     0.153149361132
    H           -0.111497829248    -0.885785275376     1.001410718780
    H           -0.957396479851     0.623980998283     0.706788321017
    C            1.644296890405     1.210991116770     1.481721248466
    H            1.842974946062    -0.028604470102    -0.274697702347
    H            1.002327608899     1.470709387275    -0.562748545532
    H            1.797898979343     0.415178557707     2.205279309057
    H            2.593158704186     1.719158435884     1.346432941538
    H            0.948823911524     1.923642901065     1.916328307090

  Mulliken Charges: (a.u.)
   Center  Symbol    Alpha    Beta     Spin     Total
       1     H     0.42791  0.42791  0.00000  0.14419
       2     C     3.07818  3.07818  0.00000 -0.15636
       3     O     4.30699  4.30699  0.00000 -0.61397
       4     H     0.41340  0.41340  0.00000  0.17320
       5     H     0.43169  0.43169  0.00000  0.13662
       6     C     2.98155  2.98155  0.00000  0.03691
       7     C     3.15989  3.15989  0.00000 -0.31979
       8     H     0.43282  0.43282  0.00000  0.13436
       9     H     0.43379  0.43379  0.00000  0.13242
      10     C     3.24792  3.24792  0.00000 -0.49585
      11     H     0.41434  0.41434  0.00000  0.17133
      12     H     0.41434  0.41434  0.00000  0.17133
      13     H     0.42091  0.42091  0.00000  0.15818
      14     H     0.41542  0.41542  0.00000  0.16915
      15     H     0.42086  0.42086  0.00000  0.15828

   Total alpha = 21.00000, Total beta = 21.00000, Total charge =  0.00000
