  ==> Input File <==

--------------------------------------------------------------------------
set {
	reference rhf
	basis 6-31G*
}

set_num_threads( 4 )
memory 2 gb

molecule MOL {
0 1

O	 0.749854	 1.307668	 -0.000040
C	 0.576249	 0.131685	 -0.000108
C	 -0.766779	 -0.556801	 -0.000461
O	 1.568443	 -0.749345	 -0.000005
C	 -1.945214	 0.412366	 0.000161
H	 -0.796911	 -1.211249	 -0.867467
H	 -0.796854	 -1.212390	 0.865687
C	 -2.595608	 0.525473	 -1.377795
H	 -1.605979	 1.388243	 0.330594
H	 -2.678075	 0.084300	 0.729449
H	 -1.888458	 0.883138	 -2.121077
H	 -3.429963	 1.218859	 -1.356171
H	 -2.973428	 -0.434978	 -1.717296
C	 2.886820	 -0.232538	 0.000322
H	 3.059106	 0.369571	 -0.880203
H	 3.540187	 -1.091012	 0.000050
H	 3.059019	 0.368956	 0.881266

	symmetry c1
}
set optking {
	frozen_dihedral = ("
		9 5 3 6
	")
}

ee = optimize('scf')
oeprop('DIPOLE', 'QUADRUPOLE', 'MULLIKEN_CHARGES')
f=open( 'psi4out.xyz', 'w' )
f.write( "17  " )
f.write( str(ee) + "\n" )
f.write( MOL.save_string_xyz() )
f.close()
--------------------------------------------------------------------------

    Molecular point group: c1
  Charge       = 0
  Multiplicity = 1
  Basis Set: 6-31G*
  Basis Set:
  @DF-RHF Final Energy:  -344.90281547647561
    Total Energy =                       -344.9028154764756096
    Molecular point group: c1
  Basis Set: 6-31G*
  Basis Set:
  Basis Set: 6-31G*
  Basis Set:
  @DF-RHF Final Energy:  -344.90320472567936
    Total Energy =                       -344.9032047256796432
  Basis Set: 6-31G*
  Basis Set:
  Basis Set: 6-31G*
  Basis Set:
  @DF-RHF Final Energy:  -344.90301936291144
    Total Energy =                       -344.9030193629117207
  Basis Set: 6-31G*
  Basis Set:
  Basis Set: 6-31G*
  Basis Set:
  @DF-RHF Final Energy:  -344.90330500677999
    Total Energy =                       -344.9033050067798740
  Basis Set: 6-31G*
  Basis Set:
  Basis Set: 6-31G*
  Basis Set:
  @DF-RHF Final Energy:  -344.90330986346964
    Total Energy =                       -344.9033098634698717
  Basis Set: 6-31G*
  Basis Set:
  Basis Set: 6-31G*
  Basis Set:
  @DF-RHF Final Energy:  -344.90331340898882
    Total Energy =                       -344.9033134089889927
  Basis Set: 6-31G*
  Basis Set:
  Basis Set: 6-31G*
  Basis Set:
  @DF-RHF Final Energy:  -344.90331503506565
    Total Energy =                       -344.9033150350659866
  Basis Set: 6-31G*
  Basis Set:
  Charge       = 0
  Multiplicity = 1
  Basis Set: 6-31G*
  Basis Set:

    Orbital Energies (a.u.)
    -----------------------

    Doubly Occupied:

       1A    -20.604506     2A    -20.546694     3A    -11.373357
       4A    -11.281474     5A    -11.236006     6A    -11.220393
       7A    -11.210833     8A     -1.470434     9A     -1.363782
      10A     -1.077804    11A     -1.000549    12A     -0.938150
      13A     -0.828389    14A     -0.766426    15A     -0.701973
      16A     -0.681989    17A     -0.672560    18A     -0.622661
      19A     -0.608858    20A     -0.569997    21A     -0.568085
      22A     -0.532413    23A     -0.524371    24A     -0.486681
      25A     -0.482818    26A     -0.479419    27A     -0.457513
      28A     -0.439418

  @DF-RHF Final Energy:  -344.90331531140993

   => Energetics <=

    Nuclear Repulsion Energy =            315.4062539211760736
    One-Electron Energy =               -1095.1240336104776816
    Two-Electron Energy =                 434.8144643778919090
    DFT Exchange-Correlation Energy =       0.0000000000000000
    Empirical Dispersion Energy =           0.0000000000000000
    PCM Polarization Energy =               0.0000000000000000
    EFP Energy =                            0.0000000000000000
    Total Energy =                       -344.9033153114096422
    Molecular point group: c1
  Basis Set: 6-31G*
  Basis Set:

  -Total Gradient:
     Atom            X                  Y                   Z
    ------   -----------------  -----------------  -----------------
       1        0.000020849130    -0.000054158698     0.000001351725
       2       -0.000006091502     0.000075803025    -0.000000490729
       3       -0.002317212778    -0.002864994611     0.001520200041
       4       -0.000002349761     0.000005026035    -0.000000033790
       5       -0.000418480027    -0.000529623135     0.003701933442
       6        0.001956778158     0.002452955453    -0.001825995874
       7        0.000002417574    -0.000002538009    -0.000000968559
       8       -0.000006945974     0.000000930315    -0.000029768770
       9        0.000766774508     0.000937430902    -0.003380433393
      10       -0.000012406990    -0.000006560721     0.000010544857
      11        0.000001784504     0.000004440247     0.000000497889
      12        0.000010654742    -0.000005997558     0.000006199130
      13       -0.000005047746    -0.000007392320    -0.000000884385
      14       -0.000007676981    -0.000013270675    -0.000004669871
      15        0.000002915194     0.000001442229     0.000001682874
      16        0.000013735370     0.000005203590     0.000000434551
      17        0.000000302569     0.000001303931     0.000000400862

  **** Optimization is complete! (in 8 steps) ****
    Final optimized geometry and variables:
    Molecular point group: c1

    Geometry (in Angstrom), charge = 0, multiplicity = 1:

    O            0.645784092562     1.179691003866     0.105144459850
    C            0.472799266809     0.006700432995     0.191791880019
    C           -0.866972131653    -0.695130963133     0.230452819267
    O            1.467546074270    -0.869202602961     0.252672922309
    C           -2.066217967906     0.263618860657     0.226322394288
    H           -0.876276139772    -1.341852315529    -0.642815442966
    H           -0.862539578598    -1.348482502279     1.095975413658
    C           -2.682265496260     0.431561009027    -1.163891688280
    H           -1.740625017221     1.236792425691     0.570305305962
    H           -2.821333671111    -0.097453511653     0.916666982921
    H           -1.948574551678     0.814429160958    -1.867007683067
    H           -3.511776079753     1.130947943742    -1.139357365986
    H           -3.055704929638    -0.513212458419    -1.549536463430
    C            2.784798113115    -0.351192566118     0.208164671519
    H            2.952103530370     0.182600820920    -0.716264308170
    H            3.440167728680    -1.205912252652     0.270316591070
    H            2.959089192292     0.315692941042     1.040196037346

  Mulliken Charges: (a.u.)
   Center  Symbol    Alpha    Beta     Spin     Total
       1     O     4.28554  4.28554  0.00000 -0.57109
       2     C     2.61229  2.61229  0.00000  0.77543
       3     C     3.20744  3.20744  0.00000 -0.41488
       4     O     4.30557  4.30557  0.00000 -0.61115
       5     C     3.16004  3.16004  0.00000 -0.32007
       6     H     0.39885  0.39885  0.00000  0.20229
       7     H     0.39722  0.39722  0.00000  0.20556
       8     C     3.24285  3.24285  0.00000 -0.48570
       9     H     0.39740  0.39740  0.00000  0.20521
      10     H     0.41810  0.41810  0.00000  0.16380
      11     H     0.41565  0.41565  0.00000  0.16871
      12     H     0.41730  0.41730  0.00000  0.16541
      13     H     0.42325  0.42325  0.00000  0.15351
      14     C     3.09220  3.09220  0.00000 -0.18440
      15     H     0.40909  0.40909  0.00000  0.18181
      16     H     0.40837  0.40837  0.00000  0.18326
      17     H     0.40885  0.40885  0.00000  0.18231

   Total alpha = 28.00000, Total beta = 28.00000, Total charge = -0.00000
