  ==> Input File <==

--------------------------------------------------------------------------
set {
	reference rhf
	basis 6-31G*
}

set_num_threads( 4 )
memory 2 gb

molecule MOL {
0 1

O	 2.862325	 1.357334	 0.000267
C	 2.843464	 0.164689	 -0.000222
C	 1.546494	 -0.624492	 -0.000609
C	 4.124123	 -0.644674	 -0.000428
C	 0.291004	 0.242674	 0.000989
H	 1.557904	 -1.283758	 -0.867573
H	 1.558622	 -1.285963	 0.864672
C	 0.279571	 1.259855	 -1.141366
H	 0.214959	 0.756755	 0.953914
H	 -0.583326	 -0.397073	 -0.065486
C	 -0.974238	 2.136004	 -1.148940
H	 1.160809	 1.895832	 -1.070643
H	 0.357744	 0.737703	 -2.093896
C	 -0.993029	 3.156165	 -2.288647
H	 -1.053022	 2.659000	 -0.197474
H	 -1.855769	 1.501353	 -1.220483
C	 -2.248432	 4.027741	 -2.289401
H	 -0.112927	 3.791917	 -2.217491
H	 -0.915853	 2.634463	 -3.240345
H	 -2.336482	 4.588993	 -1.363445
H	 -2.232311	 4.740797	 -3.107932
H	 -3.145038	 3.423464	 -2.394714
H	 4.165367	 -1.288615	 -0.874074
H	 4.976217	 0.020734	 -0.001915
H	 4.166763	 -1.286207	 0.874930

	symmetry c1
}
set optking {
	frozen_dihedral = ("
		9 5 3 6
	")
}

ee = optimize('scf')
oeprop('DIPOLE', 'QUADRUPOLE', 'MULLIKEN_CHARGES')
f=open( 'psi4out.xyz', 'w' )
f.write( "25  " )
f.write( str(ee) + "\n" )
f.write( MOL.save_string_xyz() )
f.close()
--------------------------------------------------------------------------

    Molecular point group: c1
  Charge       = 0
  Multiplicity = 1
  Basis Set: 6-31G*
  Basis Set:
  @DF-RHF Final Energy:  -387.13010720956390
    Total Energy =                       -387.1301072095631071
    Molecular point group: c1
  Basis Set: 6-31G*
  Basis Set:
  Basis Set: 6-31G*
  Basis Set:
  @DF-RHF Final Energy:  -387.13409395573535
    Total Energy =                       -387.1340939557355796
  Basis Set: 6-31G*
  Basis Set:
  Basis Set: 6-31G*
  Basis Set:
  @DF-RHF Final Energy:  -387.13434685005319
    Total Energy =                       -387.1343468500533618
  Basis Set: 6-31G*
  Basis Set:
  Basis Set: 6-31G*
  Basis Set:
  @DF-RHF Final Energy:  -387.13396722677453
    Total Energy =                       -387.1339672267739616
  Basis Set: 6-31G*
  Basis Set:
  @DF-RHF Final Energy:  -387.13509490249862
    Total Energy =                       -387.1350949024985084
  @DF-RHF Final Energy:  -387.13518309291874
    Total Energy =                       -387.1351830929189646
  @DF-RHF Final Energy:  -387.13520914274932
    Total Energy =                       -387.1352091427487494
  Basis Set: 6-31G*
  Basis Set:
  @DF-RHF Final Energy:  -387.13522079289703
    Total Energy =                       -387.1352207928969165
  Basis Set: 6-31G*
  Basis Set:
  Basis Set: 6-31G*
  Basis Set:
  @DF-RHF Final Energy:  -387.13522873285552
    Total Energy =                       -387.1352287328556940
  Basis Set: 6-31G*
  Basis Set:
  Basis Set: 6-31G*
  Basis Set:
  @DF-RHF Final Energy:  -387.13523030260592
    Total Energy =                       -387.1352303026056916
  Basis Set: 6-31G*
  Basis Set:
  Charge       = 0
  Multiplicity = 1
  Basis Set: 6-31G*
  Basis Set:

    Orbital Energies (a.u.)
    -----------------------

    Doubly Occupied:

       1A    -20.550199     2A    -11.327298     3A    -11.232426
       4A    -11.228892     5A    -11.219267     6A    -11.211841
       7A    -11.210389     8A    -11.209744     9A    -11.205772
      10A     -1.395966    11A     -1.090619    12A     -1.054742
      13A     -1.013593    14A     -0.967865    15A     -0.889158
      16A     -0.816063    17A     -0.787947    18A     -0.726766
      19A     -0.667171    20A     -0.638044    21A     -0.630572
      22A     -0.623045    23A     -0.593399    24A     -0.584858
      25A     -0.570840    26A     -0.558124    27A     -0.534500
      28A     -0.526832    29A     -0.515280    30A     -0.495819
      31A     -0.481771    32A     -0.474459    33A     -0.460456
      34A     -0.458549    35A     -0.439952    36A     -0.399842

  @DF-RHF Final Energy:  -387.13523058693954

   => Energetics <=

    Nuclear Repulsion Energy =            448.3996725249133988
    One-Electron Energy =               -1413.4856810062692603
    Two-Electron Energy =                 577.9507778944155234
    DFT Exchange-Correlation Energy =       0.0000000000000000
    Empirical Dispersion Energy =           0.0000000000000000
    PCM Polarization Energy =               0.0000000000000000
    EFP Energy =                            0.0000000000000000
    Total Energy =                       -387.1352305869403381
    Molecular point group: c1
  Basis Set: 6-31G*
  Basis Set:

  -Total Gradient:
     Atom            X                  Y                   Z
    ------   -----------------  -----------------  -----------------
       1       -0.000011149930    -0.000019583546     0.000016929673
       2       -0.000053935402     0.000045586484    -0.000041592876
       3        0.001810858584     0.002310003873    -0.001930315035
       4       -0.000018639461    -0.000048096572     0.000029474288
       5        0.001977061224     0.002499151851    -0.001133472287
       6       -0.001754885224    -0.002298293969     0.001796380063
       7       -0.000026786501     0.000005272343    -0.000030139215
       8       -0.000037772547    -0.000042307718    -0.000014703561
       9       -0.001927340280    -0.002473951331     0.001295571814
      10       -0.000011187730    -0.000003226750     0.000024540540
      11       -0.000000748095     0.000002200510     0.000014793517
      12        0.000018249486     0.000031542736     0.000000358844
      13        0.000015085162     0.000004562294     0.000020301814
      14       -0.000005610832    -0.000009395592    -0.000007598305
      15        0.000002956957    -0.000010725425    -0.000007538661
      16        0.000012599223    -0.000007065799    -0.000009676705
      17        0.000006412355     0.000007900694     0.000007590265
      18        0.000000540296    -0.000003594339    -0.000000163061
      19       -0.000005525896    -0.000003198877     0.000002517240
      20       -0.000003551290    -0.000002235904     0.000001396250
      21        0.000001894619     0.000003770483     0.000001234115
      22        0.000004085564    -0.000000665232    -0.000002776156
      23        0.000009282939    -0.000004012353    -0.000019952797
      24       -0.000006736791     0.000003729954    -0.000004033031
      25        0.000004843567     0.000012632186    -0.000009126736

  **** Optimization is complete! (in 11 steps) ****
    Final optimized geometry and variables:
    Molecular point group: c1

    Geometry (in Angstrom), charge = 0, multiplicity = 1:

    O            2.122638632011    -0.000497006201     1.313818797183
    C            2.019195894252    -1.119027171180     0.911213836354
    C            0.674244299168    -1.810534943897     0.786173893130
    C            3.234877504339    -1.938292909431     0.534051643851
    C           -0.544376384140    -0.887111547743     0.749977377404
    H            0.674632077949    -2.488919960159    -0.063909961643
    H            0.602083206978    -2.462527190068     1.657862314423
    C           -0.574945919374     0.083456312087    -0.431907809367
    H           -0.614090885141    -0.349515580152     1.689901059274
    H           -1.427614587304    -1.521474789993     0.705658314239
    C           -1.855567686076     0.919093935845    -0.475130049559
    H            0.283243016452     0.744434306007    -0.382349445083
    H           -0.485349897881    -0.481223160657    -1.359834564839
    C           -1.898930782272     1.895918561230    -1.651523333068
    H           -1.951118931318     1.475333135249     0.455651570158
    H           -2.719626515356     0.258069506154    -0.526006996492
    C           -3.177450424824     2.732479710509    -1.686696725769
    H           -1.036562758255     2.556849456671    -1.601099851675
    H           -1.804919955263     1.342029913001    -2.583433226297
    H           -3.282956457676     3.324751662094    -0.782142196245
    H           -3.178285376092     3.415399838586    -2.530728404295
    H           -4.057452618587     2.100897371850    -1.771541044958
    H            3.252406650558    -2.087484690004    -0.542288307902
    H            4.134943837209    -1.421276324144     0.836451661591
    H            3.200497357982    -2.920793939595     0.994891612794

  Mulliken Charges: (a.u.)
   Center  Symbol    Alpha    Beta     Spin     Total
       1     O     4.26412  4.26412  0.00000 -0.52825
       2     C     2.73290  2.73290  0.00000  0.53419
       3     C     3.21325  3.21325  0.00000 -0.42651
       4     C     3.28765  3.28765  0.00000 -0.57530
       5     C     3.14802  3.14802  0.00000 -0.29604
       6     H     0.41230  0.41230  0.00000  0.17539
       7     H     0.40425  0.40425  0.00000  0.19149
       8     C     3.15879  3.15879  0.00000 -0.31759
       9     H     0.41003  0.41003  0.00000  0.17995
      10     H     0.42164  0.42164  0.00000  0.15673
      11     C     3.15153  3.15153  0.00000 -0.30307
      12     H     0.40578  0.40578  0.00000  0.18845
      13     H     0.42894  0.42894  0.00000  0.14211
      14     C     3.15155  3.15155  0.00000 -0.30309
      15     H     0.42147  0.42147  0.00000  0.15707
      16     H     0.42610  0.42610  0.00000  0.14779
      17     C     3.23928  3.23928  0.00000 -0.47856
      18     H     0.42108  0.42108  0.00000  0.15784
      19     H     0.42450  0.42450  0.00000  0.15100
      20     H     0.42127  0.42127  0.00000  0.15747
      21     H     0.41976  0.41976  0.00000  0.16047
      22     H     0.42268  0.42268  0.00000  0.15463
      23     H     0.40623  0.40623  0.00000  0.18753
      24     H     0.39683  0.39683  0.00000  0.20634
      25     H     0.41003  0.41003  0.00000  0.17993

   Total alpha = 36.00000, Total beta = 36.00000, Total charge =  0.00000
