  ==> Input File <==

--------------------------------------------------------------------------
set {
	reference rhf
	basis 6-31G*
}

set_num_threads( 1 )
memory 2 gb

molecule MOL {
0 1

H	 -3.420663	 1.227371	 -1.044276
O	 -3.452007	 0.283848	 -0.965577
C	 -3.181085	 -0.079926	 0.364119
C	 -1.765924	 0.277073	 0.805136
H	 -3.327791	 -1.152017	 0.410903
H	 -3.905698	 0.375695	 1.036898
C	 -0.677594	 -0.417312	 -0.014550
H	 -1.637766	 1.358238	 0.744969
H	 -1.659588	 0.017670	 1.857098
C	 0.738335	 -0.034840	 0.421385
H	 -0.814977	 -0.178223	 -1.064632
H	 -0.802730	 -1.495410	 0.071702
C	 1.822265	 -0.738362	 -0.399735
H	 0.853533	 1.043532	 0.342250
H	 0.871597	 -0.279636	 1.474438
C	 2.998490	 -1.280041	 0.420773
H	 2.199435	 -0.054336	 -1.158383
H	 1.367443	 -1.566806	 -0.938840
C	 3.853180	 -0.204406	 1.093766
H	 3.634053	 -1.869007	 -0.236090
H	 2.623556	 -1.968139	 1.175855
H	 4.231893	 0.506070	 0.363739
H	 4.707712	 -0.648726	 1.594958
H	 3.293808	 0.352523	 1.838143

	symmetry c1
}
set optking {
	frozen_dihedral = ("
		20 16 13 17,
		13 10 7 11,
		11 7 4 3,
		1 2 3 5,
		7 4 3 2
	")
}

ee = energy('scf')
oeprop('DIPOLE', 'QUADRUPOLE', 'MULLIKEN_CHARGES')
f=open( 'psi4out.xyz', 'w' )
f.write( "24  " )
f.write( str(ee) + "\n" )
f.write( MOL.save_string_xyz() )
f.close()
--------------------------------------------------------------------------

    Molecular point group: c1

    Geometry (in Angstrom), charge = 0, multiplicity = 1:

       Center              X                  Y                   Z               Mass
    ------------   -----------------  -----------------  -----------------  -----------------
           H         -3.407879143835     1.481924108460    -1.245496575221     1.007825032070
           O         -3.439223143835     0.538401108460    -1.166797575221    15.994914619560
           C         -3.168301143835     0.174627108460     0.162898424779    12.000000000000
           C         -1.753140143835     0.531626108460     0.603915424779    12.000000000000
           H         -3.315007143835    -0.897463891540     0.209682424779     1.007825032070
           H         -3.892914143835     0.630248108460     0.835677424779     1.007825032070
           C         -0.664810143835    -0.162758891540    -0.215770575221    12.000000000000
           H         -1.624982143835     1.612791108460     0.543748424779     1.007825032070
           H         -1.646804143835     0.272223108460     1.655877424779     1.007825032070
           C          0.751118856165     0.219713108460     0.220164424779    12.000000000000
           H         -0.802193143835     0.076330108460    -1.265852575221     1.007825032070
           H         -0.789946143835    -1.240856891540    -0.129518575221     1.007825032070
           C          1.835048856165    -0.483808891540    -0.600955575221    12.000000000000
           H          0.866316856165     1.298085108460     0.141029424779     1.007825032070
           H          0.884380856165    -0.025082891540     1.273217424779     1.007825032070
           C          3.011273856165    -1.025487891540     0.219552424779    12.000000000000
           H          2.212218856165     0.200217108460    -1.359603575221     1.007825032070
           H          1.380226856165    -1.312252891540    -1.140060575221     1.007825032070
           C          3.865963856165     0.050147108460     0.892545424779    12.000000000000
           H          3.646836856165    -1.614453891540    -0.437310575221     1.007825032070
           H          2.636339856165    -1.713585891540     0.974634424779     1.007825032070
           H          4.244676856165     0.760623108460     0.162518424779     1.007825032070
           H          4.720495856165    -0.394172891540     1.393737424779     1.007825032070
           H          3.306591856165     0.607076108460     1.636922424779     1.007825032070

  Charge       = 0
  Multiplicity = 1
  Basis Set: 6-31G*
  Basis Set:

    Orbital Energies (a.u.)
    -----------------------

    Doubly Occupied:

       1A    -20.553530     2A    -11.267673     3A    -11.217116
       4A    -11.214135     5A    -11.211791     6A    -11.211200
       7A    -11.210260     8A    -11.207393     9A     -1.360127
      10A     -1.088694    11A     -1.048054    12A     -0.985523
      13A     -0.914521    14A     -0.850647    15A     -0.802483
      16A     -0.774920    17A     -0.679695    18A     -0.651569
      19A     -0.626878    20A     -0.618108    21A     -0.595000
      22A     -0.588679    23A     -0.552262    24A     -0.545097
      25A     -0.517260    26A     -0.503628    27A     -0.501704
      28A     -0.475347    29A     -0.467736    30A     -0.458284
      31A     -0.452273    32A     -0.449727    33A     -0.418843

  @DF-RHF Final Energy:  -349.24363667280176

   => Energetics <=

    Nuclear Repulsion Energy =            384.5783107667162426
    One-Electron Energy =               -1235.6034750251842524
    Two-Electron Energy =                 501.7815275856652306
    DFT Exchange-Correlation Energy =       0.0000000000000000
    Empirical Dispersion Energy =           0.0000000000000000
    PCM Polarization Energy =               0.0000000000000000
    EFP Energy =                            0.0000000000000000
    Total Energy =                       -349.2436366728028361

  Mulliken Charges: (a.u.)
   Center  Symbol    Alpha    Beta     Spin     Total
       1     H     0.28338  0.28338  0.00000  0.43323
       2     O     4.36832  4.36832  0.00000 -0.73664
       3     C     2.99617  2.99617  0.00000  0.00766
       4     C     3.16943  3.16943  0.00000 -0.33885
       5     H     0.41643  0.41643  0.00000  0.16714
       6     H     0.42821  0.42821  0.00000  0.14358
       7     C     3.15449  3.15449  0.00000 -0.30899
       8     H     0.42829  0.42829  0.00000  0.14341
       9     H     0.42235  0.42235  0.00000  0.15531
      10     C     3.15384  3.15384  0.00000 -0.30768
      11     H     0.41159  0.41159  0.00000  0.17683
      12     H     0.42328  0.42328  0.00000  0.15345
      13     C     3.15493  3.15493  0.00000 -0.30986
      14     H     0.42230  0.42230  0.00000  0.15539
      15     H     0.42346  0.42346  0.00000  0.15308
      16     C     3.15366  3.15366  0.00000 -0.30733
      17     H     0.42237  0.42237  0.00000  0.15525
      18     H     0.41902  0.41902  0.00000  0.16195
      19     C     3.24053  3.24053  0.00000 -0.48105
      20     H     0.42179  0.42179  0.00000  0.15643
      21     H     0.42381  0.42381  0.00000  0.15238
      22     H     0.42236  0.42236  0.00000  0.15528
      23     H     0.41967  0.41967  0.00000  0.16066
      24     H     0.42031  0.42031  0.00000  0.15938

   Total alpha = 33.00000, Total beta = 33.00000, Total charge =  0.00000
