  ==> Input File <==

--------------------------------------------------------------------------
set {
	reference rhf
	basis 6-31G*
}

set_num_threads( 4 )
memory 2 gb

molecule MOL {
0 1

H	 -2.394686	 -2.405655	 -2.352791
O	 -2.415330	 -1.786392	 -1.637256
C	 -1.106530	 -1.388107	 -1.319446
C	 -1.177863	 -0.397191	 -0.171080
H	 -0.503241	 -2.248423	 -1.032732
H	 -0.626717	 -0.926095	 -2.181226
C	 0.198102	 0.111031	 0.262842
H	 -1.680137	 -0.877513	 0.664228
H	 -1.806062	 0.435113	 -0.476223
C	 1.331804	 -0.827780	 -0.158768
H	 0.361943	 1.100838	 -0.156218
H	 0.217265	 0.229072	 1.345532
C	 2.723619	 -0.410569	 0.329459
H	 1.342964	 -0.912588	 -1.244120
H	 1.116806	 -1.824343	 0.220779
C	 3.243875	 0.895854	 -0.272975
H	 3.424222	 -1.207124	 0.091250
H	 2.714788	 -0.329854	 1.414619
H	 3.251977	 0.848779	 -1.358681
H	 2.637085	 1.747371	 0.016682
H	 4.259473	 1.094070	 0.055697

	symmetry c1
}
set optking {
	frozen_dihedral = ("
		8 4 7 10
	")
}

ee = optimize('scf')
oeprop('DIPOLE', 'QUADRUPOLE', 'MULLIKEN_CHARGES')
f=open( 'psi4out.xyz', 'w' )
f.write( "21  " )
f.write( str(ee) + "\n" )
f.write( MOL.save_string_xyz() )
f.close()
--------------------------------------------------------------------------

    Molecular point group: c1
  Charge       = 0
  Multiplicity = 1
  Basis Set: 6-31G*
  Basis Set:
  @DF-RHF Final Energy:  -310.20150596695174
    Total Energy =                       -310.2015059669514585
    Molecular point group: c1
  Basis Set: 6-31G*
  Basis Set:
  Basis Set: 6-31G*
  Basis Set:
  @DF-RHF Final Energy:  -310.20221446848853
    Total Energy =                       -310.2022144684884779
  Basis Set: 6-31G*
  Basis Set:
  Basis Set: 6-31G*
  Basis Set:
  @DF-RHF Final Energy:  -310.20498099997752
    Total Energy =                       -310.2049809999775789
  Basis Set: 6-31G*
  Basis Set:
  Basis Set: 6-31G*
  Basis Set:
  @DF-RHF Final Energy:  -310.20534934622077
    Total Energy =                       -310.2053493462207712
  Basis Set: 6-31G*
  Basis Set:
  Basis Set: 6-31G*
  Basis Set:
  @DF-RHF Final Energy:  -310.20537817246253
    Total Energy =                       -310.2053781724628152
  Basis Set: 6-31G*
  Basis Set:
  Basis Set: 6-31G*
  Basis Set:
  @DF-RHF Final Energy:  -310.20540213946771
    Total Energy =                       -310.2054021394675374
  Basis Set: 6-31G*
  Basis Set:
  Basis Set: 6-31G*
  Basis Set:
  @DF-RHF Final Energy:  -310.20540579308533
    Total Energy =                       -310.2054057930851059
  Basis Set: 6-31G*
  Basis Set:
  Charge       = 0
  Multiplicity = 1
  Basis Set: 6-31G*
  Basis Set:

    Orbital Energies (a.u.)
    -----------------------

    Doubly Occupied:

       1A    -20.551462     2A    -11.266878     3A    -11.216871
       4A    -11.216221     5A    -11.215575     6A    -11.210489
       7A    -11.209168     8A     -1.358292     9A     -1.085165
      10A     -1.030064    11A     -0.951138    12A     -0.886652
      13A     -0.815906    14A     -0.763693    15A     -0.695123
      16A     -0.658346    17A     -0.619866    18A     -0.607735
      19A     -0.591392    20A     -0.562726    21A     -0.544266
      22A     -0.519614    23A     -0.514378    24A     -0.491577
      25A     -0.479734    26A     -0.458186    27A     -0.451355
      28A     -0.444891    29A     -0.428436

  @DF-RHF Final Energy:  -310.20540637475955

   => Energetics <=

    Nuclear Repulsion Energy =            316.9135004041915522
    One-Electron Energy =               -1048.5474142324158038
    Two-Electron Energy =                 421.4285074534649311
    DFT Exchange-Correlation Energy =       0.0000000000000000
    Empirical Dispersion Energy =           0.0000000000000000
    PCM Polarization Energy =               0.0000000000000000
    EFP Energy =                            0.0000000000000000
    Total Energy =                       -310.2054063747592636
    Molecular point group: c1
  Basis Set: 6-31G*
  Basis Set:

  -Total Gradient:
     Atom            X                  Y                   Z
    ------   -----------------  -----------------  -----------------
       1       -0.000015978991    -0.000003489561    -0.000006545328
       2       -0.000003870436    -0.000017591771    -0.000014012353
       3       -0.000012965130     0.000003666645     0.000019495725
       4        0.003115259812    -0.005777833371    -0.003476762497
       5       -0.000001933555     0.000005446552    -0.000003921064
       6       -0.000000529682     0.000000364342    -0.000000364093
       7       -0.001126623050    -0.001658012145     0.005992631520
       8       -0.002355737746     0.005361747004     0.001387664423
       9        0.000005034167    -0.000003318465    -0.000005267608
      10        0.000389464337     0.002085267575    -0.003902633947
      11        0.000010878133     0.000012482362     0.000005748035
      12        0.000013195848     0.000000459135     0.000007074092
      13       -0.000011971472     0.000022813044    -0.000016913628
      14        0.000005108119    -0.000006184418     0.000000766753
      15       -0.000003327331    -0.000000787120     0.000015066060
      16       -0.000003254090    -0.000012110788     0.000012276156
      17        0.000007841226    -0.000007270564    -0.000013166619
      18        0.000003296325    -0.000007851680    -0.000007848930
      19        0.000001050284    -0.000003431711     0.000003488863
      20       -0.000017473254     0.000006524517    -0.000003000317
      21        0.000002536476    -0.000000889585     0.000006224756

  **** Optimization is complete! (in 8 steps) ****
    Final optimized geometry and variables:
    Molecular point group: c1

    Geometry (in Angstrom), charge = 0, multiplicity = 1:

    H           -2.997883040048    -1.727366435381    -1.884530265425
    O           -2.920978419316    -1.118654966220    -1.163778350397
    C           -1.563242020012    -0.859789534815    -0.909057146369
    C           -1.501704434365     0.099143002172     0.268044413192
    H           -1.037310536113    -1.784881818279    -0.687917981062
    H           -1.091187488070    -0.414441170657    -1.783464542116
    C           -0.100173809299     0.607281658756     0.679239107778
    H           -2.009908221615    -0.345393421255     1.118422128708
    H           -2.115723755970     0.955371947981     0.004126060276
    C            1.084395650213    -0.300368830726     0.322599359200
    H            0.062499715819     1.573601834626     0.211215433896
    H           -0.096602503834     0.790926372418     1.750082501493
    C            2.434399410630     0.205276205693     0.846369271374
    H            1.149331858517    -0.419125819835    -0.756476213317
    H            0.914713810190    -1.294508514937     0.731112516396
    C            2.912670391912     1.517016720246     0.220777771143
    H            3.182604905351    -0.561299361215     0.659837147958
    H            2.380240132461     0.318874516471     1.927089209414
    H            2.958935015448     1.438952079391    -0.862293219069
    H            2.259476624100     2.347775119183     0.465214618259
    H            3.907048111960     1.770863449852     0.574962345925

  Mulliken Charges: (a.u.)
   Center  Symbol    Alpha    Beta     Spin     Total
       1     H     0.28127  0.28127  0.00000  0.43746
       2     O     4.37252  4.37252  0.00000 -0.74504
       3     C     2.99341  2.99341  0.00000  0.01319
       4     C     3.16308  3.16308  0.00000 -0.32615
       5     H     0.43006  0.43006  0.00000  0.13987
       6     H     0.43234  0.43234  0.00000  0.13532
       7     C     3.16090  3.16090  0.00000 -0.32179
       8     H     0.41364  0.41364  0.00000  0.17272
       9     H     0.41239  0.41239  0.00000  0.17521
      10     C     3.15917  3.15917  0.00000 -0.31834
      11     H     0.41926  0.41926  0.00000  0.16148
      12     H     0.41894  0.41894  0.00000  0.16212
      13     C     3.15181  3.15181  0.00000 -0.30361
      14     H     0.42394  0.42394  0.00000  0.15212
      15     H     0.42131  0.42131  0.00000  0.15739
      16     C     3.24161  3.24161  0.00000 -0.48322
      17     H     0.42096  0.42096  0.00000  0.15809
      18     H     0.42263  0.42263  0.00000  0.15474
      19     H     0.42271  0.42271  0.00000  0.15458
      20     H     0.41917  0.41917  0.00000  0.16166
      21     H     0.41889  0.41889  0.00000  0.16221

   Total alpha = 29.00000, Total beta = 29.00000, Total charge =  0.00000
