  ==> Input File <==

--------------------------------------------------------------------------
set {
	reference rhf
	basis cc-pvtz
}

set_num_threads( 4 )
memory 2 gb

molecule MOL {
0 1

H	 -2.437173	 -0.159173	 0.905935
O	 -2.313989	 -0.142475	 -0.025864
C	 -0.943808	 -0.065018	 -0.330000
H	 -0.812293	 -0.225641	 -1.398673
C	 -0.231030	 -1.182113	 0.407592
C	 -0.353797	 1.300461	 0.050970
H	 -0.312800	 -0.992012	 1.473041
H	 -0.738841	 -2.119564	 0.220514
C	 1.246176	 -1.268044	 -0.015480
H	 -0.539537	 2.008579	 -0.751815
H	 -0.889989	 1.662858	 0.920677
C	 1.153605	 1.231851	 0.356834
H	 1.823096	 -1.684665	 0.802361
H	 1.352335	 -1.958223	 -0.845114
C	 1.826409	 0.100723	 -0.416008
H	 1.622968	 2.181508	 0.128734
H	 1.301983	 1.066493	 1.419367
H	 2.897299	 0.112407	 -0.249665
H	 1.683458	 0.265621	 -1.480024

	symmetry c1
}
set optking {
	frozen_dihedral = ("
		1 2 3 4
	")
}

ee = optimize('scf')
oeprop('DIPOLE', 'QUADRUPOLE', 'MULLIKEN_CHARGES')
f=open( 'psi4out.xyz', 'w' )
f.write( "19  " )
f.write( str(ee) + "\n" )
f.write( MOL.save_string_xyz() )
f.close()
--------------------------------------------------------------------------

    Molecular point group: c1
  Charge       = 0
  Multiplicity = 1
  Basis Set: CC-PVTZ
  Basis Set:
  @DF-RHF Final Energy:  -309.16134591390153
    Total Energy =                       -309.1613459139011297
    Molecular point group: c1
  Basis Set: CC-PVTZ
  Basis Set:
  Basis Set: CC-PVTZ
  Basis Set:
  @DF-RHF Final Energy:  -309.16284504230288
    Total Energy =                       -309.1628450423027061
  Basis Set: CC-PVTZ
  Basis Set:
  Basis Set: CC-PVTZ
  Basis Set:
  @DF-RHF Final Energy:  -309.16317611396238
    Total Energy =                       -309.1631761139622085
  Basis Set: CC-PVTZ
  Basis Set:
  Basis Set: CC-PVTZ
  Basis Set:
  @DF-RHF Final Energy:  -309.16318038150627
    Total Energy =                       -309.1631803815063790
  Basis Set: CC-PVTZ
  Basis Set:
  Charge       = 0
  Multiplicity = 1
  Basis Set: CC-PVTZ
  Basis Set:

    Orbital Energies (a.u.)
    -----------------------

    Doubly Occupied:

       1A    -20.542865     2A    -11.267289     3A    -11.217139
       4A    -11.215731     5A    -11.215006     6A    -11.213290
       7A    -11.211331     8A     -1.363325     9A     -1.111459
      10A     -1.005207    11A     -0.989653    12A     -0.849567
      13A     -0.839496    14A     -0.753270    15A     -0.673763
      16A     -0.666471    17A     -0.620470    18A     -0.596153
      19A     -0.582104    20A     -0.563536    21A     -0.532741
      22A     -0.521392    23A     -0.502418    24A     -0.493500
      25A     -0.465993    26A     -0.450631    27A     -0.432323
      28A     -0.409845

  @DF-RHF Final Energy:  -309.16318082796784

   => Energetics <=

    Nuclear Repulsion Energy =            331.8243337198551899
    One-Electron Energy =               -1077.3630936272684266
    Two-Electron Energy =                 436.3755790794454015
    DFT Exchange-Correlation Energy =       0.0000000000000000
    Empirical Dispersion Energy =           0.0000000000000000
    PCM Polarization Energy =               0.0000000000000000
    EFP Energy =                            0.0000000000000000
    Total Energy =                       -309.1631808279678353
    Molecular point group: c1
  Basis Set: CC-PVTZ
  Basis Set:

  -Total Gradient:
     Atom            X                  Y                   Z
    ------   -----------------  -----------------  -----------------
       1        0.000042752216    -0.000857940481    -0.000033902006
       2       -0.000035146698     0.000892646720     0.000044259124
       3       -0.000047439506     0.000656809649    -0.000090552106
       4        0.000051375464    -0.000717810644     0.000117084847
       5       -0.000016290878    -0.000004757921    -0.000019310711
       6        0.000039934926    -0.000010361196     0.000013717142
       7        0.000000484005    -0.000003154673    -0.000021816491
       8       -0.000000111341    -0.000010031335     0.000009095246
       9       -0.000021838673    -0.000013657850     0.000047849704
      10        0.000015467939     0.000023677753    -0.000007089220
      11        0.000009861191    -0.000010007846    -0.000010007547
      12       -0.000015496329     0.000034028990    -0.000031572575
      13        0.000012112890    -0.000024347609    -0.000002390522
      14       -0.000011663480     0.000004957732    -0.000000907533
      15       -0.000008662831     0.000022551267    -0.000023352103
      16        0.000000328510     0.000013642532     0.000014254688
      17       -0.000010299293     0.000000329496    -0.000001857835
      18       -0.000011705111    -0.000003884811     0.000002031901
      19        0.000006336993     0.000007310226    -0.000005534005

  **** Optimization is complete! (in 5 steps) ****
    Final optimized geometry and variables:
    Molecular point group: c1

    Geometry (in Angstrom), charge = 0, multiplicity = 1:

    H           -2.520051578093    -0.121165907209     0.817443983990
    O           -2.336701877434    -0.100555720456    -0.105008004606
    C           -0.948295933357    -0.066203146287    -0.314513732930
    H           -0.833537119169    -0.226863836935    -1.379675685512
    C           -0.220941038852    -1.187676043227     0.412699966288
    C           -0.356171302736     1.298328634146     0.062978287627
    H           -0.286396515339    -1.007675759855     1.484246063856
    H           -0.724192407094    -2.127910661993     0.223974619234
    C            1.254970998782    -1.265594928776    -0.019522111228
    H           -0.565571398367     2.004366228957    -0.732442703707
    H           -0.878179052102     1.665470686889     0.941367952274
    C            1.155621112146     1.234208865702     0.347015447221
    H            1.842718403902    -1.671345635148     0.796146845899
    H            1.357712276915    -1.961565954588    -0.844466395352
    C            1.819368197221     0.104644927596    -0.435798480149
    H            1.618742664440     2.184974153442     0.111173014624
    H            1.323932196650     1.069722929710     1.407225368995
    H            2.893245797615     0.121124025129    -0.290805948969
    H            1.654093502796     0.265229314971    -1.497021424035

  Mulliken Charges: (a.u.)
   Center  Symbol    Alpha    Beta     Spin     Total
       1     H     0.39529  0.39529  0.00000  0.20942
       2     O     4.20763  4.20763  0.00000 -0.41527
       3     C     2.93691  2.93691  0.00000  0.12618
       4     H     0.44168  0.44168  0.00000  0.11665
       5     C     3.10814  3.10814  0.00000 -0.21629
       6     C     3.11005  3.11005  0.00000 -0.22009
       7     H     0.46037  0.46037  0.00000  0.07925
       8     H     0.43919  0.43919  0.00000  0.12162
       9     C     3.11256  3.11256  0.00000 -0.22511
      10     H     0.44646  0.44646  0.00000  0.10708
      11     H     0.45330  0.45330  0.00000  0.09340
      12     C     3.10073  3.10073  0.00000 -0.20146
      13     H     0.44767  0.44767  0.00000  0.10467
      14     H     0.44564  0.44564  0.00000  0.10871
      15     C     3.10208  3.10208  0.00000 -0.20417
      16     H     0.44185  0.44185  0.00000  0.11631
      17     H     0.45468  0.45468  0.00000  0.09064
      18     H     0.44271  0.44271  0.00000  0.11458
      19     H     0.45306  0.45306  0.00000  0.09388

   Total alpha = 28.00000, Total beta = 28.00000, Total charge = -0.00000
