  ==> Input File <==

--------------------------------------------------------------------------
set {
	reference rhf
	basis cc-pvtz
}

set_num_threads( 4 )
memory 2 gb

molecule MOL {
0 1

H	 -3.162190	 0.493205	 -0.000107
C	 -2.363908	 -0.234727	 0.000005
O	 -1.158738	 0.454634	 -0.000087
H	 -2.464314	 -0.863616	 -0.882153
H	 -2.464327	 -0.863359	 0.882345
C	 -0.028611	 -0.359694	 0.000037
C	 1.212847	 0.509314	 -0.000053
H	 -0.034155	 -1.007047	 -0.877198
H	 -0.034195	 -1.006836	 0.877430
C	 2.279427	 0.001138	 0.963541
H	 1.608275	 0.546649	 -1.009096
H	 0.925654	 1.521920	 0.260908
H	 2.599159	 -1.003024	 0.705632
H	 3.154094	 0.639547	 0.943214
H	 1.912084	 -0.020953	 1.984148

	symmetry c1
}
set optking {
	frozen_dihedral = ("
		11 7 6 8
	")
}

ee = optimize('scf')
oeprop('DIPOLE', 'QUADRUPOLE', 'MULLIKEN_CHARGES')
f=open( 'psi4out.xyz', 'w' )
f.write( "15  " )
f.write( str(ee) + "\n" )
f.write( MOL.save_string_xyz() )
f.close()
--------------------------------------------------------------------------

    Molecular point group: c1
  Charge       = 0
  Multiplicity = 1
  Basis Set: CC-PVTZ
  Basis Set:
  @DF-RHF Final Energy:  -232.22314641064057
    Total Energy =                       -232.2231464106405383
    Molecular point group: c1
  Basis Set: CC-PVTZ
  Basis Set:
  Basis Set: CC-PVTZ
  Basis Set:
  @DF-RHF Final Energy:  -232.22351596835253
    Total Energy =                       -232.2235159683525580
  Basis Set: CC-PVTZ
  Basis Set:
  Basis Set: CC-PVTZ
  Basis Set:
  @DF-RHF Final Energy:  -232.22361624375608
    Total Energy =                       -232.2236162437558278
  Basis Set: CC-PVTZ
  Basis Set:
  Basis Set: CC-PVTZ
  Basis Set:
  @DF-RHF Final Energy:  -232.22361888058285
    Total Energy =                       -232.2236188805828760
  Basis Set: CC-PVTZ
  Basis Set:
  Charge       = 0
  Multiplicity = 1
  Basis Set: CC-PVTZ
  Basis Set:

    Orbital Energies (a.u.)
    -----------------------

    Doubly Occupied:

       1A    -20.547084     2A    -11.264784     3A    -11.261261
       4A    -11.212732     5A    -11.209635     6A     -1.380548
       7A     -1.055513     8A     -0.955079     9A     -0.877541
      10A     -0.809405    11A     -0.674662    12A     -0.656475
      13A     -0.633113    14A     -0.601043    15A     -0.568920
      16A     -0.545243    17A     -0.496219    18A     -0.489708
      19A     -0.479906    20A     -0.462488    21A     -0.414979

  @DF-RHF Final Energy:  -232.22361950463164

   => Energetics <=

    Nuclear Repulsion Energy =            189.9661316568125358
    One-Electron Energy =                -691.1868258303361472
    Two-Electron Energy =                 268.9970746688918553
    DFT Exchange-Correlation Energy =       0.0000000000000000
    Empirical Dispersion Energy =           0.0000000000000000
    PCM Polarization Energy =               0.0000000000000000
    EFP Energy =                            0.0000000000000000
    Total Energy =                       -232.2236195046317562
    Molecular point group: c1
  Basis Set: CC-PVTZ
  Basis Set:

  -Total Gradient:
     Atom            X                  Y                   Z
    ------   -----------------  -----------------  -----------------
       1       -0.000004454058    -0.000005242129     0.000003581744
       2       -0.000045472666    -0.000005355275    -0.000005252622
       3        0.000073259915    -0.000047018469    -0.000003565831
       4       -0.000003039642     0.000000849428     0.000003445030
       5       -0.000004158048     0.000001763685    -0.000001602582
       6        0.002867181884    -0.004033834774     0.002581348597
       7       -0.003102743416     0.004485071972    -0.001370156174
       8       -0.001914463109     0.002681015668    -0.001946985816
       9        0.000006679340     0.000014733354    -0.000006048866
      10       -0.000013422801     0.000008737988     0.000014470987
      11        0.002133462850    -0.003083231872     0.000724613466
      12       -0.000004219969    -0.000013885639     0.000008631796
      13       -0.000006173065    -0.000002463007    -0.000001997128
      14        0.000002254735     0.000001739649    -0.000003065873
      15        0.000015308053    -0.000002880580     0.000002583272

  **** Optimization is complete! (in 5 steps) ****
    Final optimized geometry and variables:
    Molecular point group: c1

    Geometry (in Angstrom), charge = 0, multiplicity = 1:

    H           -3.130575060905     0.421728966751    -0.235887505380
    C           -2.329241576031    -0.303011794482    -0.226072760980
    O           -1.127370280502     0.390069265401    -0.188574859314
    H           -2.406727531259    -0.921457767333    -1.118080191804
    H           -2.448779085200    -0.943752722265     0.645422468188
    C            0.006790697632    -0.425703546101    -0.161824849477
    C            1.257282940965     0.453236047607    -0.180366223794
    H           -0.014451979131    -1.079477786721    -1.031957299813
    H           -0.013290343461    -1.050628581874     0.729344726384
    C            2.355865645414    -0.060058692779     0.747352860750
    H            1.655549208568     0.498084026222    -1.187661896861
    H            0.967391857958     1.455439908127     0.105468486567
    H            2.648580516486    -1.073245714148     0.490182834583
    H            3.240732565884     0.562122300342     0.683139901702
    H            2.025637823734    -0.064301624048     1.780465981515

  Mulliken Charges: (a.u.)
   Center  Symbol    Alpha    Beta     Spin     Total
       1     H     0.44701  0.44701  0.00000  0.10598
       2     C     3.02945  3.02945  0.00000 -0.05891
       3     O     4.17218  4.17218  0.00000 -0.34435
       4     H     0.47230  0.47230  0.00000  0.05540
       5     H     0.47351  0.47351  0.00000  0.05297
       6     C     2.96137  2.96137  0.00000  0.07727
       7     C     3.08511  3.08511  0.00000 -0.17023
       8     H     0.47405  0.47405  0.00000  0.05189
       9     H     0.47421  0.47421  0.00000  0.05159
      10     C     3.15358  3.15358  0.00000 -0.30716
      11     H     0.45361  0.45361  0.00000  0.09278
      12     H     0.44483  0.44483  0.00000  0.11034
      13     H     0.45639  0.45639  0.00000  0.08721
      14     H     0.44832  0.44832  0.00000  0.10337
      15     H     0.45407  0.45407  0.00000  0.09186

   Total alpha = 21.00000, Total beta = 21.00000, Total charge = -0.00000
