                              Psi4 1.0.54 Driver

  ==> Input File <==

--------------------------------------------------------------------------
set {
	reference rhf
	basis cc-pvtz
}

set_num_threads( 4 )
memory 2 gb

molecule MOL {
0 1

O	 2.868453	 1.353349	 -0.000734
C	 2.841259	 0.166180	 -0.000295
C	 1.542794	 -0.614730	 -0.000853
C	 4.113372	 -0.651103	 0.000743
C	 0.288398	 0.247429	 0.000314
H	 1.557171	 -1.273139	 -0.866508
H	 1.557484	 -1.274998	 0.863344
C	 -0.544156	 0.070091	 1.267009
H	 -0.309916	 0.005676	 -0.870714
H	 0.571961	 1.287718	 -0.111596
C	 -1.805222	 0.929077	 1.280658
H	 -0.822868	 -0.975923	 1.374007
H	 0.062882	 0.312354	 2.136535
C	 -2.643531	 0.757061	 2.544139
H	 -2.412789	 0.687461	 0.411982
H	 -1.527607	 1.974925	 1.174546
C	 -3.901966	 1.618509	 2.550388
H	 -2.922483	 -0.287848	 2.650389
H	 -2.037405	 0.999593	 3.412879
H	 -4.546458	 1.375648	 1.712122
H	 -4.473663	 1.472770	 3.459752
H	 -3.654840	 2.672591	 2.480512
H	 4.145311	 -1.294584	 -0.871587
H	 4.970080	 0.004978	 -0.000091
H	 4.145223	 -1.291980	 0.874988

	symmetry c1
}
set optking {
	frozen_dihedral = ("
		9 5 3 6
	")
}

ee,wfn = optimize('scf', return_wfn=True)
oeprop( wfn, 'DIPOLE', 'QUADRUPOLE', 'MULLIKEN_CHARGES')
f=open( 'psi4out.xyz', 'w' )
f.write( "25  " )
f.write( str(ee) + "\n" )
f.write( MOL.save_string_xyz() )
f.close()
--------------------------------------------------------------------------

    Molecular point group: c1
  Charge       = 0
  Multiplicity = 1
  Basis Set: CC-PVTZ
  Basis Set:
  @DF-RHF Final Energy:  -387.26996192498439
    Total Energy =                       -387.2699619249846137
    Molecular point group: c1
  Basis Set: CC-PVTZ
  Basis Set:
  Basis Set: CC-PVTZ
  Basis Set:
  @DF-RHF Final Energy:  -387.27025411838008
    Total Energy =                       -387.2702541183800804
  Basis Set: CC-PVTZ
  Basis Set:
  Basis Set: CC-PVTZ
  Basis Set:
  @DF-RHF Final Energy:  -387.27017001931779
    Total Energy =                       -387.2701700193173338
  Basis Set: CC-PVTZ
  Basis Set:
  Basis Set: CC-PVTZ
  Basis Set:
  @DF-RHF Final Energy:  -387.27035974453315
    Total Energy =                       -387.2703597445329251
  Basis Set: CC-PVTZ
  Basis Set:
  @DF-RHF Final Energy:  -387.27036452608382
    Total Energy =                       -387.2703645260837675
  @DF-RHF Final Energy:  -387.27036746197257
    Total Energy =                       -387.2703674619726826
  @DF-RHF Final Energy:  -387.27037586114409
    Total Energy =                       -387.2703758611443163
  @DF-RHF Final Energy:  -387.27038208638101
    Total Energy =                       -387.2703820863810051
  Basis Set: CC-PVTZ
  Basis Set:
  @DF-RHF Final Energy:  -387.27038629923175
    Total Energy =                       -387.2703862992319728
  Basis Set: CC-PVTZ
  Basis Set:
  Basis Set: CC-PVTZ
  Basis Set:
  @DF-RHF Final Energy:  -387.27039592596725
    Total Energy =                       -387.2703959259670228
  Basis Set: CC-PVTZ
  Basis Set:
  Basis Set: CC-PVTZ
  Basis Set:
  @DF-RHF Final Energy:  -387.27039902624307
    Total Energy =                       -387.2703990262432399
  Basis Set: CC-PVTZ
  Basis Set:
  Charge       = 0
  Multiplicity = 1
  Basis Set: CC-PVTZ
  Basis Set:

    Orbital Energies (a.u.)
    -----------------------

    Doubly Occupied:

       1A    -20.539710     2A    -11.321909     3A    -11.230340
       4A    -11.227121     5A    -11.213528     6A    -11.212828
       7A    -11.211842     8A    -11.209590     9A    -11.205095
      10A     -1.400104    11A     -1.092703    12A     -1.056157
      13A     -1.015434    14A     -0.968675    15A     -0.891143
      16A     -0.815401    17A     -0.789950    18A     -0.730808
      19A     -0.669041    20A     -0.642880    21A     -0.634816
      22A     -0.623459    23A     -0.595225    24A     -0.584071
      25A     -0.574404    26A     -0.559608    27A     -0.534174
      28A     -0.526846    29A     -0.516621    30A     -0.498438
      31A     -0.483305    32A     -0.472224    33A     -0.462583
      34A     -0.460176    35A     -0.445665    36A     -0.403751

  @DF-RHF Final Energy:  -387.27039959533460

   => Energetics <=

    Nuclear Repulsion Energy =            442.2066184780498475
    One-Electron Energy =               -1401.3147805367493675
    Two-Electron Energy =                 571.8377624633654932
    DFT Exchange-Correlation Energy =       0.0000000000000000
    Empirical Dispersion Energy =           0.0000000000000000
    PCM Polarization Energy =               0.0000000000000000
    EFP Energy =                            0.0000000000000000
    Total Energy =                       -387.2703995953339700
    Molecular point group: c1
  Basis Set: CC-PVTZ
  Basis Set:

  -Total Gradient:
     Atom            X                  Y                   Z
    ------   -----------------  -----------------  -----------------
       1        0.000004564048    -0.000013705461     0.000036785462
       2        0.000045753362    -0.000033519582    -0.000011089593
       3        0.000884304272     0.001296253909    -0.001083320144
       4       -0.000012338055     0.000029682171    -0.000010613642
       5       -0.000868808224    -0.001293008669     0.001046960359
       6       -0.000582911171    -0.000880959962     0.000707232226
       7       -0.000003920027     0.000015153176     0.000000863170
       8       -0.000006954252     0.000015979956    -0.000002611264
       9        0.000570415706     0.000861706099    -0.000693896318
      10       -0.000008780063    -0.000001703260    -0.000002351095
      11       -0.000002218066    -0.000002071921     0.000007504479
      12       -0.000001282670    -0.000002330951    -0.000002539427
      13        0.000000991609     0.000000261210    -0.000000735380
      14        0.000003368682     0.000000229600    -0.000002494089
      15       -0.000001144197     0.000000038992    -0.000000021893
      16        0.000000003634     0.000001164502    -0.000000260873
      17        0.000000224197    -0.000001363544    -0.000000587740
      18       -0.000001123692     0.000001260805     0.000000237337
      19        0.000000519270    -0.000000837675    -0.000000837160
      20       -0.000000201097     0.000000524622     0.000000450848
      21        0.000000278732     0.000000148973    -0.000000175082
      22        0.000000374883    -0.000001631489    -0.000000000490
      23       -0.000014291045    -0.000009025344     0.000033971479
      24       -0.000013053001    -0.000010420249    -0.000013747099
      25        0.000006227166     0.000028174092    -0.000008724069

  **** Optimization is complete! (in 12 steps) ****
    Final optimized geometry and variables:
    Molecular point group: c1

    Geometry (in Angstrom), charge = 0, multiplicity = 1:

    O            2.595413447297     0.897245353555    -0.690627979739
    C            2.558121443429    -0.282711255272    -0.815072996515
    C            1.260608811878    -1.070148704712    -0.831243251249
    C            3.823906816390    -1.097126089408    -0.958862659883
    C           -0.024086705510    -0.231399465076    -0.855234815743
    H            1.302043097579    -1.762557969871    -1.666060778188
    H            1.289081849706    -1.704623315633     0.052003540245
    C           -0.860459504435    -0.362584887153     0.415431221833
    H           -0.622464520762    -0.515816888654    -1.714231653356
    H            0.242168836298     0.806829212335    -0.998497440418
    C           -2.127564471458     0.485788843594     0.389839312843
    H           -1.129366535216    -1.405665103933     0.567950253502
    H           -0.252585702849    -0.074661909476     1.269751756243
    C           -2.965865790586     0.363108373085     1.659123973670
    H           -2.733241118735     0.201228533901    -0.467656273235
    H           -1.856967898705     1.527651170150     0.238275652552
    C           -4.230572593448     1.214698067744     1.626816560139
    H           -3.237280162867    -0.678167545277     1.811337212317
    H           -2.362042571583     0.648466400206     2.516183119155
    H           -4.872966142721     0.930283319150     0.799936226044
    H           -4.801781130591     1.105239246163     2.541603335690
    H           -3.990878901864     2.266356381733     1.510491621609
    H            3.870467698558    -1.519186936705    -1.957177193165
    H            4.685345667609    -0.468086415200    -0.795703689305
    H            3.831247209301    -1.924064488449    -0.258234397017

  Mulliken Charges: (a.u.)
   Center  Symbol    Alpha    Beta     Spin     Total
       1     O     4.17130  4.17130  0.00000 -0.34260
       2     C     2.85823  2.85823  0.00000  0.28353
       3     C     3.12403  3.12403  0.00000 -0.24805
       4     C     3.15103  3.15103  0.00000 -0.30207
       5     C     3.09727  3.09727  0.00000 -0.19453
       6     H     0.43681  0.43681  0.00000  0.12638
       7     H     0.44305  0.44305  0.00000  0.11389
       8     C     3.09057  3.09057  0.00000 -0.18114
       9     H     0.44892  0.44892  0.00000  0.10216
      10     H     0.43742  0.43742  0.00000  0.12516
      11     C     3.08827  3.08827  0.00000 -0.17653
      12     H     0.45591  0.45591  0.00000  0.08818
      13     H     0.45175  0.45175  0.00000  0.09649
      14     C     3.08376  3.08376  0.00000 -0.16751
      15     H     0.45608  0.45608  0.00000  0.08783
      16     H     0.45151  0.45151  0.00000  0.09699
      17     C     3.15054  3.15054  0.00000 -0.30109
      18     H     0.45582  0.45582  0.00000  0.08836
      19     H     0.45424  0.45424  0.00000  0.09152
      20     H     0.45562  0.45562  0.00000  0.08877
      21     H     0.44871  0.44871  0.00000  0.10257
      22     H     0.45435  0.45435  0.00000  0.09130
      23     H     0.44905  0.44905  0.00000  0.10191
      24     H     0.43544  0.43544  0.00000  0.12912
      25     H     0.45032  0.45032  0.00000  0.09936

   Total alpha = 36.00000, Total beta = 36.00000, Total charge =  0.00000

*** Psi4 exiting successfully. Buy a developer a beer!
