                              Psi4 1.0.54 Driver

  ==> Input File <==

--------------------------------------------------------------------------
set {
	reference rhf
	basis cc-pvtz
}

set_num_threads( 4 )
memory 2 gb

molecule MOL {
0 1

H	 0.013707	 2.222143	 4.844801
C	 0.265746	 1.842065	 3.873106
C	 -0.171963	 2.502348	 2.739052
C	 1.026809	 0.694163	 3.758698
H	 -0.762654	 3.393281	 2.828624
C	 0.152311	 2.013339	 1.490768
H	 1.365765	 0.182848	 4.638776
C	 1.352332	 0.203268	 2.509477
H	 -0.178219	 2.511943	 0.602397
C	 0.915519	 0.862202	 1.371271
H	 1.941567	 -0.685468	 2.417377
C	 1.238974	 0.374429	 0.000004
O	 1.968286	 -0.725612	 -0.000027
O	 0.881389	 0.913793	 -0.993173
C	 3.373556	 -0.568203	 0.000011
H	 3.695416	 -0.031588	 -0.879663
H	 3.782700	 -1.565294	 -0.000152
H	 3.695405	 -0.031851	 0.879862

	symmetry c1
}
set optking {
	frozen_dihedral = ("
		10 12 13 15
	")
}

ee,wfn = optimize('scf', return_wfn=True)
oeprop( wfn, 'DIPOLE', 'QUADRUPOLE', 'MULLIKEN_CHARGES')
f=open( 'psi4out.xyz', 'w' )
f.write( "18  " )
f.write( str(ee) + "\n" )
f.write( MOL.save_string_xyz() )
f.close()
--------------------------------------------------------------------------

    Molecular point group: c1
  Charge       = 0
  Multiplicity = 1
  Basis Set: CC-PVTZ
  Basis Set:
  @DF-RHF Final Energy:  -457.48962397047376
    Total Energy =                       -457.4896239704734171
    Molecular point group: c1
  Basis Set: CC-PVTZ
  Basis Set:
  Basis Set: CC-PVTZ
  Basis Set:
  @DF-RHF Final Energy:  -457.48973858897529
    Total Energy =                       -457.4897385889751149
  Basis Set: CC-PVTZ
  Basis Set:
  Basis Set: CC-PVTZ
  Basis Set:
  @DF-RHF Final Energy:  -457.49132390082434
    Total Energy =                       -457.4913239008235450
  Basis Set: CC-PVTZ
  Basis Set:
  Basis Set: CC-PVTZ
  Basis Set:
  @DF-RHF Final Energy:  -457.49125193043000
    Total Energy =                       -457.4912519304299394
  Basis Set: CC-PVTZ
  Basis Set:
  Basis Set: CC-PVTZ
  Basis Set:
  @DF-RHF Final Energy:  -457.49140199529290
    Total Energy =                       -457.4914019952929038
  Basis Set: CC-PVTZ
  Basis Set:
  Basis Set: CC-PVTZ
  Basis Set:
  @DF-RHF Final Energy:  -457.49141855025141
    Total Energy =                       -457.4914185502518649
  Basis Set: CC-PVTZ
  Basis Set:
  Charge       = 0
  Multiplicity = 1
  Basis Set: CC-PVTZ
  Basis Set:

    Orbital Energies (a.u.)
    -----------------------

    Doubly Occupied:

       1A    -20.581236     2A    -20.545600     3A    -11.373866
       4A    -11.289118     5A    -11.249256     6A    -11.248322
       7A    -11.247963     8A    -11.244781     9A    -11.241036
      10A    -11.239993    11A     -1.464895    12A     -1.371665
      13A     -1.174975    14A     -1.050201    15A     -1.033843
      16A     -0.975456    17A     -0.874682    18A     -0.844167
      19A     -0.782781    20A     -0.742191    21A     -0.689552
      22A     -0.680162    23A     -0.665490    24A     -0.641967
      25A     -0.633457    26A     -0.612232    27A     -0.601519
      28A     -0.562671    29A     -0.532229    30A     -0.525926
      31A     -0.508434    32A     -0.499155    33A     -0.465967
      34A     -0.447238    35A     -0.354832    36A     -0.351063

  @DF-RHF Final Energy:  -457.49141887247993

   => Energetics <=

    Nuclear Repulsion Energy =            496.9533077420072686
    One-Electron Energy =               -1608.1936042041634209
    Two-Electron Energy =                 653.7488775896759989
    DFT Exchange-Correlation Energy =       0.0000000000000000
    Empirical Dispersion Energy =           0.0000000000000000
    PCM Polarization Energy =               0.0000000000000000
    EFP Energy =                            0.0000000000000000
    Total Energy =                       -457.4914188724800397
    Molecular point group: c1
  Basis Set: CC-PVTZ
  Basis Set:

  -Total Gradient:
     Atom            X                  Y                   Z
    ------   -----------------  -----------------  -----------------
       1       -0.000005387594     0.000003043398    -0.000001649123
       2        0.000001108629     0.000026193465    -0.000020113104
       3       -0.000023843665    -0.000014135100     0.000025464809
       4        0.000026219450    -0.000005203730    -0.000025831914
       5        0.000005002395     0.000004834807     0.000002799229
       6        0.000014991076    -0.000003896315    -0.000005340385
       7        0.000000095364    -0.000002258368    -0.000004505458
       8       -0.000032598304    -0.000005131904     0.000017187366
       9       -0.000005513848     0.000003232921     0.000000492282
      10        0.001895342836     0.001286328625     0.000102909482
      11        0.000000357853    -0.000003962685    -0.000006970253
      12       -0.002740815100    -0.002015268990     0.000996033344
      13        0.000949943378     0.000747204647    -0.003521022291
      14       -0.000043037270     0.000042153890    -0.000008621217
      15       -0.000004896695    -0.000052021981     0.002457739369
      16       -0.000024509179    -0.000011134540     0.000004439968
      17       -0.000011319844     0.000003020612    -0.000005243629
      18       -0.000001139480    -0.000002998754    -0.000007768480

  **** Optimization is complete! (in 7 steps) ****
    Final optimized geometry and variables:
    Molecular point group: c1

    Geometry (in Angstrom), charge = 0, multiplicity = 1:

    H           -1.351963923873     1.443059451898     3.403213941185
    C           -1.042297059737     1.067776184153     2.446453864119
    C           -1.240865426607     1.831336034541     1.308614433563
    C           -0.450456045524    -0.176620779231     2.353610197437
    H           -1.702916256329     2.796653559690     1.382280015581
    C           -0.847395555571     1.348115112269     0.079353182782
    H           -0.303982597048    -0.771124920477     3.234466415072
    C           -0.049063259474    -0.658854618412     1.122095209689
    H           -1.000900130270     1.923388488039    -0.811107042179
    C           -0.243171488107     0.102231970746    -0.018994836662
    H            0.400687001496    -1.627701973194     1.045493755009
    C            0.167625009362    -0.386694222841    -1.367657199555
    O            0.919232691643    -1.503772273385    -1.369065477107
    O           -0.134319304188     0.151727423471    -2.371004260507
    C            2.317850521458    -1.317190246883    -1.306028155596
    H            2.664311078429    -0.765013698739    -2.169807393094
    H            2.760294506433    -2.299999038096    -1.305437077723
    H            2.601304249555    -0.793872811376    -0.400628538904

  Mulliken Charges: (a.u.)
   Center  Symbol    Alpha    Beta     Spin     Total
       1     H     0.41958  0.41958  0.00000  0.16084
       2     C     3.06999  3.06999  0.00000 -0.13998
       3     C     3.07409  3.07409  0.00000 -0.14817
       4     C     3.07530  3.07530  0.00000 -0.15060
       5     H     0.41988  0.41988  0.00000  0.16025
       6     C     3.07938  3.07938  0.00000 -0.15876
       7     H     0.42082  0.42082  0.00000  0.15835
       8     C     3.08973  3.08973  0.00000 -0.17947
       9     H     0.40671  0.40671  0.00000  0.18659
      10     C     3.03228  3.03228  0.00000 -0.06455
      11     H     0.40722  0.40722  0.00000  0.18555
      12     C     2.76037  2.76037  0.00000  0.47926
      13     O     4.17096  4.17096  0.00000 -0.34192
      14     O     4.18049  4.18049  0.00000 -0.36097
      15     C     3.04481  3.04481  0.00000 -0.08962
      16     H     0.44700  0.44700  0.00000  0.10599
      17     H     0.44181  0.44181  0.00000  0.11638
      18     H     0.45957  0.45957  0.00000  0.08085

   Total alpha = 36.00000, Total beta = 36.00000, Total charge =  0.00000

*** Psi4 exiting successfully. Buy a developer a beer!
