  ==> Input File <==

--------------------------------------------------------------------------
set {
	reference rhf
	basis cc-pvtz
}

set_num_threads( 4 )
memory 2 gb

molecule MOL {
0 1

O	 0.074770	 1.259872	 0.000487
C	 0.029490	 0.077183	 0.000078
C	 -1.232113	 -0.748027	 0.000015
O	 1.106773	 -0.690081	 -0.000204
C	 -2.501422	 0.088592	 -0.000052
H	 -1.188777	 -1.400384	 -0.865133
H	 -1.188857	 -1.400312	 0.865225
H	 -2.548170	 0.725504	 -0.873205
H	 -3.371613	 -0.556398	 -0.000040
H	 -2.548215	 0.725571	 0.873047
C	 1.004426	 -1.952093	 -0.628291
H	 0.247299	 -2.555638	 -0.150037
H	 1.971574	 -2.416260	 -0.523411
H	 0.756595	 -1.838727	 -1.673267

	symmetry c1
}
set optking {
	frozen_dihedral = ("
		11 4 2 3
	")
}

ee = optimize('scf')
oeprop('DIPOLE', 'QUADRUPOLE', 'MULLIKEN_CHARGES')
f=open( 'psi4out.xyz', 'w' )
f.write( "14  " )
f.write( str(ee) + "\n" )
f.write( MOL.save_string_xyz() )
f.close()
--------------------------------------------------------------------------

    Molecular point group: c1
  Charge       = 0
  Multiplicity = 1
  Basis Set: CC-PVTZ
  Basis Set:
  @DF-RHF Final Energy:  -305.96347929700607
    Total Energy =                       -305.9634792970060175
    Molecular point group: c1
  Basis Set: CC-PVTZ
  Basis Set:
  Basis Set: CC-PVTZ
  Basis Set:
  @DF-RHF Final Energy:  -305.96431287603900
    Total Energy =                       -305.9643128760392869
  Basis Set: CC-PVTZ
  Basis Set:
  Basis Set: CC-PVTZ
  Basis Set:
  @DF-RHF Final Energy:  -305.97033790975217
    Total Energy =                       -305.9703379097522316
  Basis Set: CC-PVTZ
  Basis Set:
  Basis Set: CC-PVTZ
  Basis Set:
  @DF-RHF Final Energy:  -305.97185079349822
    Total Energy =                       -305.9718507934981631
  Basis Set: CC-PVTZ
  Basis Set:
  @DF-RHF Final Energy:  -305.97198450114320
    Total Energy =                       -305.9719845011429697
  Basis Set: CC-PVTZ
  Basis Set:
  @DF-RHF Final Energy:  -305.97153369476297
    Total Energy =                       -305.9715336947630249
  Basis Set: CC-PVTZ
  Basis Set:
  Basis Set: CC-PVTZ
  Basis Set:
  @DF-RHF Final Energy:  -305.97211376430289
    Total Energy =                       -305.9721137643030033
  Basis Set: CC-PVTZ
  Basis Set:
  Basis Set: CC-PVTZ
  Basis Set:
  @DF-RHF Final Energy:  -305.97211740983801
    Total Energy =                       -305.9721174098384040
  Basis Set: CC-PVTZ
  Basis Set:
  Charge       = 0
  Multiplicity = 1
  Basis Set: CC-PVTZ
  Basis Set:

    Orbital Energies (a.u.)
    -----------------------

    Doubly Occupied:

       1A    -20.592733     2A    -20.532329     3A    -11.367018
       4A    -11.293747     5A    -11.246347     6A    -11.218991
       7A     -1.465850     8A     -1.369506     9A     -1.064064
      10A     -0.985770    11A     -0.899906    12A     -0.769335
      13A     -0.706585    14A     -0.688672    15A     -0.676173
      16A     -0.627381    17A     -0.608669    18A     -0.560413
      19A     -0.552213    20A     -0.526882    21A     -0.512743
      22A     -0.501147    23A     -0.454593    24A     -0.436814

  @DF-RHF Final Energy:  -305.97211771749215

   => Energetics <=

    Nuclear Repulsion Energy =            247.9380528057227480
    One-Electron Energy =                -908.5045781879723563
    Two-Electron Energy =                 354.5944076647571706
    DFT Exchange-Correlation Energy =       0.0000000000000000
    Empirical Dispersion Energy =           0.0000000000000000
    PCM Polarization Energy =               0.0000000000000000
    EFP Energy =                            0.0000000000000000
    Total Energy =                       -305.9721177174924946
    Molecular point group: c1
  Basis Set: CC-PVTZ
  Basis Set:

  -Total Gradient:
     Atom            X                  Y                   Z
    ------   -----------------  -----------------  -----------------
       1       -0.000006231609     0.000038847920    -0.000001099508
       2        0.000457079085     0.000412536813    -0.004534227107
       3       -0.000035668729     0.000052218122     0.002229723367
       4       -0.001114545962    -0.001491236501     0.004512759347
       5       -0.000002619185     0.000007097377    -0.000006868328
       6       -0.000002138966    -0.000003563208    -0.000015036930
       7       -0.000006490856     0.000009196856    -0.000018995523
       8       -0.000000294402     0.000000314980     0.000003359974
       9        0.000002262694    -0.000001942721     0.000003450035
      10       -0.000000783877     0.000000028492     0.000002055551
      11        0.000697307454     0.000978406530    -0.002168360838
      12        0.000010800281     0.000010533356    -0.000005221769
      13       -0.000001598023    -0.000000154516     0.000008505972
      14        0.000002922096    -0.000012283499    -0.000010044241

  **** Optimization is complete! (in 9 steps) ****
    Final optimized geometry and variables:
    Molecular point group: c1

    Geometry (in Angstrom), charge = 0, multiplicity = 1:

    O            0.302394852694     1.546239058824     0.110748347156
    C            0.228191409843     0.371547348154     0.063781483962
    C           -1.084842318789    -0.381598217160     0.072239075333
    O            1.347725713742    -0.354773594624     0.087799847315
    C           -2.291072349512     0.538879631940     0.176026263283
    H           -1.149449755251    -0.988616453643    -0.824296525945
    H           -1.055569771703    -1.076924666304     0.904841877024
    H           -2.329188259010     1.223290198369    -0.660126664527
    H           -3.203016413576    -0.045733820746     0.184669616806
    H           -2.251794218698     1.129027498592     1.081009451998
    C            1.418588336448    -1.639895988544    -0.477488123245
    H            0.799917857101    -2.352241072884     0.052144254852
    H            2.449220475920    -1.944362682689    -0.395896254559
    H            1.139782520258    -1.624573431333    -1.523568460519

  Mulliken Charges: (a.u.)
   Center  Symbol    Alpha    Beta     Spin     Total
       1     O     4.17641  4.17641  0.00000 -0.35283
       2     C     2.80649  2.80649  0.00000  0.38703
       3     C     3.12099  3.12099  0.00000 -0.24199
       4     O     4.13353  4.13353  0.00000 -0.26706
       5     C     3.13921  3.13921  0.00000 -0.27842
       6     H     0.44369  0.44369  0.00000  0.11262
       7     H     0.43831  0.43831  0.00000  0.12338
       8     H     0.44614  0.44614  0.00000  0.10772
       9     H     0.45137  0.45137  0.00000  0.09726
      10     H     0.44510  0.44510  0.00000  0.10981
      11     C     3.04565  3.04565  0.00000 -0.09130
      12     H     0.46062  0.46062  0.00000  0.07875
      13     H     0.43419  0.43419  0.00000  0.13162
      14     H     0.45830  0.45830  0.00000  0.08341

   Total alpha = 24.00000, Total beta = 24.00000, Total charge = -0.00000
