                              Psi4 1.0.54 Driver

  ==> Input File <==

--------------------------------------------------------------------------
set {
	reference rhf
	basis cc-pvtz
}

set_num_threads( 4 )
memory 2 gb

molecule MOL {
0 1

H	 0.692444	 -4.861363	 3.318336
C	 0.847985	 -4.163320	 2.504302
C	 -0.349204	 -3.233052	 2.343081
H	 1.752531	 -3.603841	 2.718352
H	 1.023327	 -4.741413	 1.603147
C	 -0.173181	 -2.234891	 1.208330
H	 -0.522655	 -2.685700	 3.262910
H	 -1.243246	 -3.825206	 2.162476
N	 -1.314408	 -1.352394	 1.096367
H	 0.705383	 -1.626071	 1.399729
H	 0.023421	 -2.775417	 0.277598
C	 -1.215959	 -0.382435	 0.027143
H	 -2.147831	 -1.891536	 0.986590
C	 -2.451944	 0.502410	 -0.038737
H	 -0.342474	 0.235413	 0.212790
H	 -1.057081	 -0.855930	 -0.946323
C	 -3.752217	 -0.292550	 0.005776
H	 -2.407325	 1.093801	 -0.946480
H	 -2.431979	 1.206234	 0.790023
H	 -3.817783	 -0.982946	 -0.828547
H	 -4.612613	 0.364348	 -0.042306
H	 -3.830160	 -0.871666	 0.919868

	symmetry c1
}
set optking {
	frozen_dihedral = ("
		15 12 14 18
	")
}

ee,wfn = optimize('scf', return_wfn=True)
oeprop( wfn, 'DIPOLE', 'QUADRUPOLE', 'MULLIKEN_CHARGES')
f=open( 'psi4out.xyz', 'w' )
f.write( "22  " )
f.write( str(ee) + "\n" )
f.write( MOL.save_string_xyz() )
f.close()
--------------------------------------------------------------------------

    Molecular point group: c1
  Charge       = 0
  Multiplicity = 1
  Basis Set: CC-PVTZ
  Basis Set:
  @DF-RHF Final Energy:  -290.48647665097275
    Total Energy =                       -290.4864766509726905
    Molecular point group: c1
  Basis Set: CC-PVTZ
  Basis Set:
  Basis Set: CC-PVTZ
  Basis Set:
  @DF-RHF Final Energy:  -290.48640932804778
    Total Energy =                       -290.4864093280480120
  Basis Set: CC-PVTZ
  Basis Set:
  Basis Set: CC-PVTZ
  Basis Set:
  @DF-RHF Final Energy:  -290.48785371086001
    Total Energy =                       -290.4878537108601790
  Basis Set: CC-PVTZ
  Basis Set:
  Basis Set: CC-PVTZ
  Basis Set:
  @DF-RHF Final Energy:  -290.48793065118082
    Total Energy =                       -290.4879306511809318
  Basis Set: CC-PVTZ
  Basis Set:
  Basis Set: CC-PVTZ
  Basis Set:
  @DF-RHF Final Energy:  -290.48793718265006
    Total Energy =                       -290.4879371826499437
  Basis Set: CC-PVTZ
  Basis Set:
  Charge       = 0
  Multiplicity = 1
  Basis Set: CC-PVTZ
  Basis Set:

    Orbital Energies (a.u.)
    -----------------------

    Doubly Occupied:

       1A    -15.527754     2A    -11.236650     3A    -11.236192
       4A    -11.211923     5A    -11.211826     6A    -11.207635
       7A    -11.206979     8A     -1.207370     9A     -1.059481
      10A     -1.024026    11A     -0.928960    12A     -0.881131
      13A     -0.805464    14A     -0.787324    15A     -0.670553
      16A     -0.634336    17A     -0.624928    18A     -0.589424
      19A     -0.574966    20A     -0.572052    21A     -0.542466
      22A     -0.529716    23A     -0.505639    24A     -0.486548
      25A     -0.481468    26A     -0.472858    27A     -0.466988
      28A     -0.451837    29A     -0.361079

  @DF-RHF Final Energy:  -290.48793751281170

   => Energetics <=

    Nuclear Repulsion Energy =            318.3053617963442434
    One-Electron Energy =               -1022.5914545441173686
    Two-Electron Energy =                 413.7981552349612002
    DFT Exchange-Correlation Energy =       0.0000000000000000
    Empirical Dispersion Energy =           0.0000000000000000
    PCM Polarization Energy =               0.0000000000000000
    EFP Energy =                            0.0000000000000000
    Total Energy =                       -290.4879375128119818
    Molecular point group: c1
  Basis Set: CC-PVTZ
  Basis Set:

  -Total Gradient:
     Atom            X                  Y                   Z
    ------   -----------------  -----------------  -----------------
       1        0.000003351821    -0.000001215944     0.000000707363
       2       -0.000000543723    -0.000002215287     0.000004758270
       3        0.000005836154    -0.000000229010    -0.000005553833
       4       -0.000000555137    -0.000001297373    -0.000000922610
       5       -0.000001959195     0.000002909023     0.000002327087
       6       -0.000027974629     0.000007433928     0.000006316242
       7        0.000000693068    -0.000002508667    -0.000002308670
       8        0.000000838905     0.000002670581    -0.000000590657
       9        0.000016276591    -0.000003673578    -0.000031012588
      10        0.000000094923    -0.000001076173    -0.000002525757
      11        0.000001648780    -0.000001310406     0.000000589370
      12        0.000058926064    -0.000314053654    -0.004721715842
      13        0.000004288406     0.000007477699     0.000004595098
      14        0.002360745193     0.003015813441     0.002771129558
      15       -0.000396083937    -0.000192939048     0.003606222592
      16       -0.000004350882     0.000005539241    -0.000003628171
      17        0.000009081895     0.000021911240    -0.000004995638
      18       -0.002041337059    -0.002531440796    -0.001610347338
      19        0.000005541441    -0.000005653962    -0.000003376962
      20       -0.000009906490     0.000004579730     0.000009899538
      21        0.000010531921    -0.000021015573     0.000007141544
      22        0.000004855890     0.000010294587    -0.000026708596

  **** Optimization is complete! (in 6 steps) ****
    Final optimized geometry and variables:
    Molecular point group: c1

    Geometry (in Angstrom), charge = 0, multiplicity = 1:

    H            1.909513642678    -3.138326641722     2.499631232674
    C            2.066217859560    -2.482209005594     1.651636506422
    C            0.852169925844    -1.590413788514     1.416318935798
    H            2.953411580392    -1.890835292663     1.852074790305
    H            2.272842601744    -3.104236004991     0.787121777021
    C            1.030072193025    -0.650820723097     0.232864197601
    H            0.647370232740    -0.998510778940     2.301498394900
    H           -0.024236798142    -2.212499389379     1.250446880782
    N           -0.126836604486     0.200417853881     0.053345193408
    H            1.893370720734    -0.015677934734     0.406732544904
    H            1.254117725621    -1.236867908482    -0.663595731749
    C           -0.027087124796     1.098816396519    -1.079634455483
    H           -0.942940519173    -0.366828560938    -0.028847653734
    C           -1.191545541853     2.083040082883    -1.154053245310
    H            0.889868767330     1.662703991680    -0.947105933985
    H            0.057993561246     0.558167055741    -2.026217351983
    C           -2.573585597387     1.433577672446    -1.104289225366
    H           -1.111549964576     2.619151863235    -2.095058119490
    H           -1.103438287892     2.805744520563    -0.351045268664
    H           -2.681133456996     0.675391028570    -1.874713057048
    H           -3.348250262056     2.174015713368    -1.265323200438
    H           -2.764970660586     0.969981486385    -0.144370663064

  Mulliken Charges: (a.u.)
   Center  Symbol    Alpha    Beta     Spin     Total
       1     H     0.44770  0.44770  0.00000  0.10460
       2     C     3.15350  3.15350  0.00000 -0.30701
       3     C     3.08126  3.08126  0.00000 -0.16252
       4     H     0.45465  0.45465  0.00000  0.09070
       5     H     0.45607  0.45607  0.00000  0.08787
       6     C     3.02136  3.02136  0.00000 -0.04272
       7     H     0.44908  0.44908  0.00000  0.10183
       8     H     0.45989  0.45989  0.00000  0.08022
       9     N     3.64338  3.64338  0.00000 -0.28675
      10     H     0.45921  0.45921  0.00000  0.08158
      11     H     0.47497  0.47497  0.00000  0.05007
      12     C     3.03602  3.03602  0.00000 -0.07205
      13     H     0.44059  0.44059  0.00000  0.11881
      14     C     3.07616  3.07616  0.00000 -0.15232
      15     H     0.45478  0.45478  0.00000  0.09044
      16     H     0.46901  0.46901  0.00000  0.06197
      17     C     3.16190  3.16190  0.00000 -0.32381
      18     H     0.45575  0.45575  0.00000  0.08849
      19     H     0.45263  0.45263  0.00000  0.09473
      20     H     0.45468  0.45468  0.00000  0.09064
      21     H     0.44544  0.44544  0.00000  0.10913
      22     H     0.45196  0.45196  0.00000  0.09608

   Total alpha = 29.00000, Total beta = 29.00000, Total charge = -0.00000

*** Psi4 exiting successfully. Buy a developer a beer!
