  ==> Input File <==

--------------------------------------------------------------------------
set {
	reference rhf
	basis 6-31G*
}

set_num_threads( 4 )
memory 2 gb

molecule MOL {
0 1

O	 0.572374	 1.290832	 -0.384299
C	 0.486307	 0.169203	 0.000779
C	 1.608116	 -0.841643	 0.000302
O	 -0.630760	 -0.351449	 0.489336
C	 2.990107	 -0.200498	 -0.000684
H	 1.468623	 -1.481519	 -0.865924
H	 1.469683	 -1.481289	 0.866878
H	 3.129736	 0.423364	 -0.875135
H	 3.757882	 -0.966877	 -0.001197
H	 3.130964	 0.423383	 0.873533
C	 -1.777440	 0.490490	 0.549878
C	 -2.909742	 -0.326286	 1.135607
H	 -2.010800	 0.840461	 -0.446439
H	 -1.549423	 1.353466	 1.160509
H	 -3.122196	 -1.189670	 0.515454
H	 -3.807639	 0.279768	 1.199868
H	 -2.658417	 -0.673863	 2.131239

	symmetry c1
}
set optking {
	frozen_dihedral = ("
		4 2 3 6
	")
}

ee = optimize('scf')
oeprop('DIPOLE', 'QUADRUPOLE', 'MULLIKEN_CHARGES')
f=open( 'psi4out.xyz', 'w' )
f.write( "17  " )
f.write( str(ee) + "\n" )
f.write( MOL.save_string_xyz() )
f.close()
--------------------------------------------------------------------------

    Molecular point group: c1
  Charge       = 0
  Multiplicity = 1
  Basis Set: 6-31G*
  Basis Set:
  @DF-RHF Final Energy:  -344.91137982876467
    Total Energy =                       -344.9113798287646659
    Molecular point group: c1
  Basis Set: 6-31G*
  Basis Set:
  Basis Set: 6-31G*
  Basis Set:
  @DF-RHF Final Energy:  -344.91143475895478
    Total Energy =                       -344.9114347589550675
  Basis Set: 6-31G*
  Basis Set:
  Basis Set: 6-31G*
  Basis Set:
  @DF-RHF Final Energy:  -344.91148498283832
    Total Energy =                       -344.9114849828381466
  Basis Set: 6-31G*
  Basis Set:
  Basis Set: 6-31G*
  Basis Set:
  @DF-RHF Final Energy:  -344.91154063271767
    Total Energy =                       -344.9115406327176743
  Basis Set: 6-31G*
  Basis Set:
  Basis Set: 6-31G*
  Basis Set:
  @DF-RHF Final Energy:  -344.91155613145150
    Total Energy =                       -344.9115561314515617
  Basis Set: 6-31G*
  Basis Set:
  Charge       = 0
  Multiplicity = 1
  Basis Set: 6-31G*
  Basis Set:

    Orbital Energies (a.u.)
    -----------------------

    Doubly Occupied:

       1A    -20.601715     2A    -20.543437     3A    -11.371319
       4A    -11.284809     5A    -11.237285     6A    -11.222392
       7A    -11.216718     8A     -1.467781     9A     -1.361617
      10A     -1.069828    11A     -1.031972    12A     -0.910416
      13A     -0.848009    14A     -0.773473    15A     -0.694973
      16A     -0.689072    17A     -0.665014    18A     -0.628293
      19A     -0.583641    20A     -0.573574    21A     -0.557803
      22A     -0.524138    23A     -0.521674    24A     -0.512516
      25A     -0.504088    26A     -0.492215    27A     -0.452631
      28A     -0.435401

  @DF-RHF Final Energy:  -344.91155669364412

   => Energetics <=

    Nuclear Repulsion Energy =            314.7114898786596768
    One-Electron Energy =               -1093.6944846596320531
    Two-Electron Energy =                 434.0714380873282607
    DFT Exchange-Correlation Energy =       0.0000000000000000
    Empirical Dispersion Energy =           0.0000000000000000
    PCM Polarization Energy =               0.0000000000000000
    EFP Energy =                            0.0000000000000000
    Total Energy =                       -344.9115566936441155
    Molecular point group: c1
  Basis Set: 6-31G*
  Basis Set:

  -Total Gradient:
     Atom            X                  Y                   Z
    ------   -----------------  -----------------  -----------------
       1       -0.000011548684    -0.000031805893    -0.000002476584
       2       -0.000110999349    -0.000079791019    -0.000876912924
       3       -0.000536197702    -0.000591573408     0.000511812642
       4        0.000222446083     0.000219840194     0.000862200551
       5        0.000017671308     0.000007115877     0.000144656566
       6        0.000503008802     0.000510550350    -0.000431017102
       7       -0.000044362420     0.000026498950    -0.000004393368
       8       -0.000006165183    -0.000002950422    -0.000013454773
       9       -0.000010531410    -0.000010284984     0.000000259685
      10        0.000008382076     0.000014228248    -0.000012004318
      11       -0.000133320086    -0.000193460360    -0.000552906647
      12        0.000040703326     0.000047865811     0.000144569728
      13       -0.000041095366     0.000042592919     0.000124162639
      14        0.000095848066     0.000035260205     0.000087008705
      15        0.000039767648     0.000034709397    -0.000020826971
      16        0.000005739839     0.000006131390     0.000014381636
      17       -0.000039346952    -0.000034927259     0.000024940536

  **** Optimization is complete! (in 6 steps) ****
    Final optimized geometry and variables:
    Molecular point group: c1

    Geometry (in Angstrom), charge = 0, multiplicity = 1:

    O            0.548401758496     1.253468393713    -0.610978110152
    C            0.454865416500     0.129342445273    -0.233993704823
    C            1.573997446339    -0.885239765835    -0.250998231945
    O           -0.668780335350    -0.390341638174     0.238477562206
    C            2.955641250379    -0.240231014372    -0.286065375974
    H            1.422582732998    -1.499395302021    -1.135688346668
    H            1.457960578108    -1.541756415150     0.602903867388
    H            3.057987029486     0.407814718889    -1.146803361220
    H            3.724140915946    -1.004151112705    -0.335507526935
    H            3.130679280211     0.357762212579     0.601387697803
    C           -1.820010824711     0.447277753069     0.265818480303
    C           -2.955361161001    -0.361149349908     0.857231726073
    H           -2.043214548990     0.774242308021    -0.740556327379
    H           -1.602185802936     1.324390219613     0.859689500128
    H           -3.157640665602    -1.238804905277     0.253917540585
    H           -3.856250699080     0.242460734296     0.898458036044
    H           -2.713663863339    -0.685797134520     1.862933850768

  Mulliken Charges: (a.u.)
   Center  Symbol    Alpha    Beta     Spin     Total
       1     O     4.28670  4.28670  0.00000 -0.57340
       2     C     2.60441  2.60441  0.00000  0.79118
       3     C     3.20603  3.20603  0.00000 -0.41206
       4     O     4.31290  4.31290  0.00000 -0.62580
       5     C     3.24094  3.24094  0.00000 -0.48189
       6     H     0.40025  0.40025  0.00000  0.19949
       7     H     0.40090  0.40090  0.00000  0.19821
       8     H     0.40496  0.40496  0.00000  0.19009
       9     H     0.41753  0.41753  0.00000  0.16495
      10     H     0.41408  0.41408  0.00000  0.17185
      11     C     3.00264  3.00264  0.00000 -0.00528
      12     C     3.24848  3.24848  0.00000 -0.49696
      13     H     0.41069  0.41069  0.00000  0.17861
      14     H     0.40955  0.40955  0.00000  0.18090
      15     H     0.41189  0.41189  0.00000  0.17622
      16     H     0.41626  0.41626  0.00000  0.16747
      17     H     0.41179  0.41179  0.00000  0.17642

   Total alpha = 28.00000, Total beta = 28.00000, Total charge = -0.00000
