  ==> Input File <==

--------------------------------------------------------------------------
set {
	reference rhf
	basis 6-31G*
}

set_num_threads( 4 )
memory 2 gb

molecule MOL {
0 1

H	 -0.918544	 3.057112	 -1.808981
C	 -0.137482	 3.060990	 -1.038559
C	 -0.565689	 2.529807	 0.305723
O	 0.950535	 3.464891	 -1.293183
C	 -1.220012	 1.144545	 0.209990
H	 0.298329	 2.518147	 0.959974
H	 -1.284987	 3.238076	 0.715139
C	 -0.252658	 0.041456	 -0.226725
H	 -1.638441	 0.894072	 1.180281
H	 -2.061361	 1.189316	 -0.479854
C	 1.180775	 0.282413	 0.250794
H	 -0.266029	 -0.034465	 -1.312038
H	 -0.597733	 -0.921000	 0.146291
C	 2.148627	 -0.814315	 -0.201312
H	 1.516199	 1.249228	 -0.115937
H	 1.192670	 0.346017	 1.338083
C	 3.580890	 -0.659131	 0.322722
H	 2.166869	 -0.852443	 -1.289387
H	 1.762857	 -1.776509	 0.128956
C	 4.324889	 0.564933	 -0.213704
H	 4.142010	 -1.551473	 0.056605
H	 3.564836	 -0.624694	 1.410140
H	 4.342616	 0.565491	 -1.300421
H	 3.866655	 1.493402	 0.110242
H	 5.353900	 0.572371	 0.132816

	symmetry c1
}
set optking {
	frozen_dihedral = ("
		3 5 8 12
	")
}

ee = optimize('scf')
oeprop('DIPOLE', 'QUADRUPOLE', 'MULLIKEN_CHARGES')
f=open( 'psi4out.xyz', 'w' )
f.write( "25  " )
f.write( str(ee) + "\n" )
f.write( MOL.save_string_xyz() )
f.close()
--------------------------------------------------------------------------

    Molecular point group: c1
  Charge       = 0
  Multiplicity = 1
  Basis Set: 6-31G*
  Basis Set:
  @DF-RHF Final Energy:  -387.11439858253249
    Total Energy =                       -387.1143985825319760
    Molecular point group: c1
  Basis Set: 6-31G*
  Basis Set:
  Basis Set: 6-31G*
  Basis Set:
  @DF-RHF Final Energy:  -387.11639345503551
    Total Energy =                       -387.1163934550352224
  Basis Set: 6-31G*
  Basis Set:
  Basis Set: 6-31G*
  Basis Set:
  @DF-RHF Final Energy:  -387.11734973734650
    Total Energy =                       -387.1173497373471264
  Basis Set: 6-31G*
  Basis Set:
  Basis Set: 6-31G*
  Basis Set:
  @DF-RHF Final Energy:  -387.11762163717765
    Total Energy =                       -387.1176216371778764
  Basis Set: 6-31G*
  Basis Set:
  @DF-RHF Final Energy:  -387.11595467192308
    Total Energy =                       -387.1159546719239870
  @DF-RHF Final Energy:  -387.11767807857950
    Total Energy =                       -387.1176780785793881
  Basis Set: 6-31G*
  Basis Set:
  @DF-RHF Final Energy:  -387.11768239353938
    Total Energy =                       -387.1176823935400080
  Basis Set: 6-31G*
  Basis Set:
  Basis Set: 6-31G*
  Basis Set:
  @DF-RHF Final Energy:  -387.11769496620411
    Total Energy =                       -387.1176949662038851
  Basis Set: 6-31G*
  Basis Set:
  Basis Set: 6-31G*
  Basis Set:
  @DF-RHF Final Energy:  -387.11769846115510
    Total Energy =                       -387.1176984611544185
  Basis Set: 6-31G*
  Basis Set:
  Charge       = 0
  Multiplicity = 1
  Basis Set: 6-31G*
  Basis Set:

    Orbital Energies (a.u.)
    -----------------------

    Doubly Occupied:

       1A    -20.563420     2A    -11.326976     3A    -11.236026
       4A    -11.234562     5A    -11.222801     6A    -11.214289
       7A    -11.213470     8A    -11.212904     9A    -11.203397
      10A     -1.402773    11A     -1.100765    12A     -1.064847
      13A     -1.007435    14A     -0.942224    15A     -0.877948
      16A     -0.819015    17A     -0.785797    18A     -0.769635
      19A     -0.667568    20A     -0.657573    21A     -0.633837
      22A     -0.617867    23A     -0.602674    24A     -0.596075
      25A     -0.565482    26A     -0.547107    27A     -0.536193
      28A     -0.521351    29A     -0.512519    30A     -0.498526
      31A     -0.476078    32A     -0.473529    33A     -0.459607
      34A     -0.451021    35A     -0.441660    36A     -0.409125

  @DF-RHF Final Energy:  -387.11769874602805

   => Energetics <=

    Nuclear Repulsion Energy =            456.1856705365935341
    One-Electron Energy =               -1428.8745849868605546
    Two-Electron Energy =                 585.5712157042394210
    DFT Exchange-Correlation Energy =       0.0000000000000000
    Empirical Dispersion Energy =           0.0000000000000000
    PCM Polarization Energy =               0.0000000000000000
    EFP Energy =                            0.0000000000000000
    Total Energy =                       -387.1176987460275996
    Molecular point group: c1
  Basis Set: 6-31G*
  Basis Set:

  -Total Gradient:
     Atom            X                  Y                   Z
    ------   -----------------  -----------------  -----------------
       1        0.000001717638     0.000004887025    -0.000002763895
       2        0.000010924142    -0.000003202009     0.000009794390
       3        0.001165019753    -0.000722062135     0.004235127403
       4        0.000000416987    -0.000030282736     0.000001446320
       5       -0.002662733048     0.000022689918    -0.006020869421
       6       -0.000001779879    -0.000005489420     0.000011269074
       7       -0.000004912101    -0.000007906236    -0.000012865222
       8        0.005635097767     0.005054264505     0.001415637330
       9        0.000008176789    -0.000006935778     0.000006570722
      10       -0.000001364242     0.000000939565     0.000009363452
      11       -0.000020728499     0.000031873573    -0.000012384077
      12       -0.004127607889    -0.004339270896     0.000370422279
      13       -0.000003826693    -0.000002258074    -0.000000688715
      14       -0.000004553912    -0.000005919496    -0.000014454508
      15       -0.000003233510    -0.000005123269    -0.000005600569
      16       -0.000002077159     0.000006036885    -0.000000132436
      17        0.000001612720    -0.000000028380     0.000013829376
      18       -0.000000806461    -0.000000133436    -0.000004990811
      19       -0.000005092806     0.000005591268    -0.000005448564
      20        0.000007878673    -0.000003270386    -0.000000818403
      21        0.000005078321     0.000006966447     0.000004147674
      22        0.000000897186    -0.000001409270     0.000006901812
      23       -0.000002892386     0.000007424822    -0.000002552117
      24        0.000003602724    -0.000005891525     0.000005398163
      25        0.000001185883    -0.000001490960    -0.000006339253

  **** Optimization is complete! (in 10 steps) ****
    Final optimized geometry and variables:
    Molecular point group: c1

    Geometry (in Angstrom), charge = 0, multiplicity = 1:

    H           -2.246789133054     2.086222219638    -1.552072379153
    C           -1.448734260236     2.084926104501    -0.799370295001
    C           -1.829639432417     1.491683339392     0.532429508820
    O           -0.378465086550     2.529297874583    -1.065674369611
    C           -2.318671283031     0.038081071692     0.410531531938
    H           -0.989056670366     1.581113250820     1.207234187839
    H           -2.644035781471     2.094142009111     0.932022656797
    C           -1.275425658680    -0.996324001814    -0.058215022559
    H           -2.680016814417    -0.252249283778     1.392856339326
    H           -3.182845682123    -0.000504392972    -0.247818236306
    C            0.155354065285    -0.794633656499     0.444920542852
    H           -1.292679198638    -1.072665582693    -1.143817179544
    H           -1.624169782838    -1.969973473485     0.280454635069
    C            1.074892619219    -1.951441150870     0.043162340674
    H            0.552101190267     0.139115976560     0.063895998572
    H            0.146053116238    -0.709364304479     1.531173140651
    C            2.508442779778    -1.838620296100     0.574733672812
    H            1.101446442262    -2.028801724019    -1.042649565906
    H            0.644314433729    -2.883460546606     0.403815922956
    C            3.313050888549    -0.676104971915    -0.009706937100
    H            3.029382906343    -2.767797937366     0.356719798675
    H            2.483640592647    -1.753255320187     1.659406571759
    H            3.348151454757    -0.732978552994    -1.094228811680
    H            2.890765683372     0.286957410860     0.255729989356
    H            4.335718986244    -0.695288758120     0.354552586876

  Mulliken Charges: (a.u.)
   Center  Symbol    Alpha    Beta     Spin     Total
       1     H     0.43102  0.43102  0.00000  0.13795
       2     C     2.83004  2.83004  0.00000  0.33991
       3     C     3.21240  3.21240  0.00000 -0.42481
       4     O     4.23932  4.23932  0.00000 -0.47863
       5     C     3.16518  3.16518  0.00000 -0.33037
       6     H     0.39722  0.39722  0.00000  0.20555
       7     H     0.40752  0.40752  0.00000  0.18497
       8     C     3.15808  3.15808  0.00000 -0.31617
       9     H     0.41283  0.41283  0.00000  0.17434
      10     H     0.41688  0.41688  0.00000  0.16624
      11     C     3.16389  3.16389  0.00000 -0.32778
      12     H     0.41985  0.41985  0.00000  0.16029
      13     H     0.41899  0.41899  0.00000  0.16203
      14     C     3.15237  3.15237  0.00000 -0.30474
      15     H     0.40530  0.40530  0.00000  0.18940
      16     H     0.42519  0.42519  0.00000  0.14963
      17     C     3.15251  3.15251  0.00000 -0.30503
      18     H     0.42298  0.42298  0.00000  0.15405
      19     H     0.42352  0.42352  0.00000  0.15296
      20     C     3.24206  3.24206  0.00000 -0.48412
      21     H     0.42142  0.42142  0.00000  0.15716
      22     H     0.42420  0.42420  0.00000  0.15159
      23     H     0.42127  0.42127  0.00000  0.15746
      24     H     0.41584  0.41584  0.00000  0.16832
      25     H     0.42011  0.42011  0.00000  0.15979

   Total alpha = 36.00000, Total beta = 36.00000, Total charge =  0.00000
