  ==> Input File <==

--------------------------------------------------------------------------
set {
	reference rhf
	basis 6-31G*
}

set_num_threads( 4 )
memory 2 gb

molecule MOL {
0 1

O	 -1.276010	 1.052711	 -0.768302
C	 -1.204840	 0.067374	 -0.106123
C	 -2.388195	 -0.672128	 0.458071
O	 -0.067104	 -0.527208	 0.221609
H	 -2.388023	 -1.694060	 0.097175
H	 -3.300579	 -0.174919	 0.164318
H	 -2.315377	 -0.706351	 1.539059
C	 1.170111	 0.034140	 -0.238951
C	 1.805728	 -1.025417	 -1.121515
C	 2.036007	 0.415416	 0.951635
H	 0.938955	 0.915009	 -0.819591
H	 1.150701	 -1.279347	 -1.947170
H	 2.743386	 -0.660350	 -1.527538
H	 2.005810	 -1.927804	 -0.553783
H	 2.983449	 0.819706	 0.609699
H	 1.546690	 1.167817	 1.556975
H	 2.238147	 -0.455027	 1.567652

	symmetry c1
}
set optking {
	frozen_dihedral = ("
		11 8 4 2
	")
}

ee = optimize('scf')
oeprop('DIPOLE', 'QUADRUPOLE', 'MULLIKEN_CHARGES')
f=open( 'psi4out.xyz', 'w' )
f.write( "17  " )
f.write( str(ee) + "\n" )
f.write( MOL.save_string_xyz() )
f.close()
--------------------------------------------------------------------------

    Molecular point group: c1
  Charge       = 0
  Multiplicity = 1
  Basis Set: 6-31G*
  Basis Set:
  @DF-RHF Final Energy:  -344.91306383278396
    Total Energy =                       -344.9130638327840188
    Molecular point group: c1
  Basis Set: 6-31G*
  Basis Set:
  Basis Set: 6-31G*
  Basis Set:
  @DF-RHF Final Energy:  -344.91330162658261
    Total Energy =                       -344.9133016265825518
  Basis Set: 6-31G*
  Basis Set:
  Basis Set: 6-31G*
  Basis Set:
  @DF-RHF Final Energy:  -344.91203915432294
    Total Energy =                       -344.9120391543227697
  Basis Set: 6-31G*
  Basis Set:
  Basis Set: 6-31G*
  Basis Set:
  @DF-RHF Final Energy:  -344.91355057488664
    Total Energy =                       -344.9135505748865853
  Basis Set: 6-31G*
  Basis Set:
  Basis Set: 6-31G*
  Basis Set:
  @DF-RHF Final Energy:  -344.91356894747020
    Total Energy =                       -344.9135689474700257
  Basis Set: 6-31G*
  Basis Set:
  Charge       = 0
  Multiplicity = 1
  Basis Set: 6-31G*
  Basis Set:

    Orbital Energies (a.u.)
    -----------------------

    Doubly Occupied:

       1A    -20.598252     2A    -20.542496     3A    -11.375285
       4A    -11.288557     5A    -11.232033     6A    -11.219273
       7A    -11.219233     8A     -1.463982     9A     -1.361756
      10A     -1.079035    11A     -1.004869    12A     -0.948834
      13A     -0.848067    14A     -0.768701    15A     -0.692231
      16A     -0.663211    17A     -0.661251    18A     -0.613136
      19A     -0.586779    20A     -0.578636    21A     -0.566643
      22A     -0.551725    23A     -0.533902    24A     -0.523215
      25A     -0.502615    26A     -0.482528    27A     -0.442934
      28A     -0.437262

  @DF-RHF Final Energy:  -344.91356939416050

   => Energetics <=

    Nuclear Repulsion Energy =            321.6193447174954372
    One-Electron Energy =               -1107.4929438117305835
    Two-Electron Energy =                 440.9600297000744717
    DFT Exchange-Correlation Energy =       0.0000000000000000
    Empirical Dispersion Energy =           0.0000000000000000
    PCM Polarization Energy =               0.0000000000000000
    EFP Energy =                            0.0000000000000000
    Total Energy =                       -344.9135693941606746
    Molecular point group: c1
  Basis Set: 6-31G*
  Basis Set:

  -Total Gradient:
     Atom            X                  Y                   Z
    ------   -----------------  -----------------  -----------------
       1       -0.000033219078     0.000011377136    -0.000019063051
       2        0.000014858105    -0.000013683588     0.000059169290
       3       -0.000022114139    -0.000008844280    -0.000036898538
       4       -0.000051204573    -0.000063597864    -0.000060701310
       5        0.000000317424     0.000004526757     0.000010113885
       6       -0.000012530777    -0.000003533953     0.000007844560
       7        0.000002789099     0.000010570876     0.000000047650
       8       -0.000016221227     0.000033705162     0.000047300160
       9       -0.000007825899     0.000005454152     0.000024371284
      10        0.000071348352     0.000010933365    -0.000048715729
      11        0.000045232034    -0.000000352853     0.000006102476
      12        0.000000985999     0.000008128381     0.000003344271
      13       -0.000010761483     0.000004844117     0.000008372142
      14       -0.000000751195    -0.000008256899     0.000000788432
      15        0.000034166515     0.000011100508     0.000024171010
      16       -0.000008457487    -0.000004301881    -0.000019836377
      17       -0.000006611672     0.000001930862    -0.000006410153

  **** Optimization is complete! (in 6 steps) ****
    Final optimized geometry and variables:
    Molecular point group: c1

    Geometry (in Angstrom), charge = 0, multiplicity = 1:

    O           -1.313411612370     1.150810363209    -0.685467727927
    C           -1.220390672242     0.169995310116    -0.020296674429
    C           -2.387323721326    -0.568539548318     0.579026239421
    O           -0.074882542037    -0.419722309870     0.293318179766
    H           -2.394253808111    -1.592282732424     0.223246451180
    H           -3.308041672164    -0.074738845424     0.306362542408
    H           -2.286140872913    -0.597064845346     1.657831545928
    C            1.168085926778     0.121957023997    -0.175681122126
    C            1.828900523558    -0.934974751706    -1.045045158691
    C            1.994455308871     0.496047667513     1.043700751171
    H            0.951712434605     1.000925940504    -0.760647940817
    H            1.200773931031    -1.177579529454    -1.894993464898
    H            2.781476601598    -0.573475656676    -1.418776253449
    H            2.004397286623    -1.843042184498    -0.477931515430
    H            2.952531400493     0.904668707215     0.738806452310
    H            1.480622948085     1.243081530193     1.638456071107
    H            2.174352753832    -0.373884156369     1.666459460146

  Mulliken Charges: (a.u.)
   Center  Symbol    Alpha    Beta     Spin     Total
       1     O     4.28398  4.28398  0.00000 -0.56796
       2     C     2.61819  2.61819  0.00000  0.76362
       3     C     3.28244  3.28244  0.00000 -0.56489
       4     O     4.31389  4.31389  0.00000 -0.62777
       5     H     0.40094  0.40094  0.00000  0.19812
       6     H     0.39741  0.39741  0.00000  0.20518
       7     H     0.40092  0.40092  0.00000  0.19816
       8     C     2.93656  2.93656  0.00000  0.12688
       9     C     3.24173  3.24173  0.00000 -0.48346
      10     C     3.24175  3.24175  0.00000 -0.48351
      11     H     0.39201  0.39201  0.00000  0.21599
      12     H     0.41219  0.41219  0.00000  0.17562
      13     H     0.41812  0.41812  0.00000  0.16376
      14     H     0.41479  0.41479  0.00000  0.17042
      15     H     0.41809  0.41809  0.00000  0.16381
      16     H     0.41220  0.41220  0.00000  0.17560
      17     H     0.41479  0.41479  0.00000  0.17043

   Total alpha = 28.00000, Total beta = 28.00000, Total charge =  0.00000
