  ==> Input File <==

--------------------------------------------------------------------------
set {
	reference rhf
	basis cc-pvtz
}

set_num_threads( 4 )
memory 2 gb

molecule MOL {
0 1

H	 -3.821619	 -2.262248	 -0.312669
C	 -2.751601	 -2.178095	 -0.325164
C	 -1.979754	 -3.251241	 -0.732904
C	 -2.148968	 -0.997587	 0.066266
H	 -2.448205	 -4.167227	 -1.036591
C	 -0.604841	 -3.142346	 -0.748692
H	 -2.748430	 -0.165938	 0.382302
C	 -0.772366	 -0.886999	 0.051008
H	 0.007843	 -3.963231	 -1.061462
C	 0.003934	 -1.960076	 -0.356884
H	 -0.302509	 0.025825	 0.353528
C	 1.492955	 -1.892891	 -0.391824
O	 1.968286	 -0.725612	 -0.000027
O	 2.185719	 -2.791481	 -0.735036
C	 3.373556	 -0.568203	 0.000011
H	 3.695416	 -0.031588	 -0.879663
H	 3.782700	 -1.565294	 -0.000152
H	 3.695405	 -0.031851	 0.879862

	symmetry c1
}
set optking {
	frozen_dihedral = ("
		12 13 15 16
	")
}

ee = optimize('scf')
oeprop('DIPOLE', 'QUADRUPOLE', 'MULLIKEN_CHARGES')
f=open( 'psi4out.xyz', 'w' )
f.write( "18  " )
f.write( str(ee) + "\n" )
f.write( MOL.save_string_xyz() )
f.close()
--------------------------------------------------------------------------

    Molecular point group: c1
  Charge       = 0
  Multiplicity = 1
  Basis Set: CC-PVTZ
  Basis Set:
  @DF-RHF Final Energy:  -457.50662889164886
    Total Energy =                       -457.5066288916489157
    Molecular point group: c1
  Basis Set: CC-PVTZ
  Basis Set:
  Basis Set: CC-PVTZ
  Basis Set:
  @DF-RHF Final Energy:  -457.50777761441049
    Total Energy =                       -457.5077776144106565
  Basis Set: CC-PVTZ
  Basis Set:
  Basis Set: CC-PVTZ
  Basis Set:
  @DF-RHF Final Energy:  -457.50846914018513
    Total Energy =                       -457.5084691401855252
  Basis Set: CC-PVTZ
  Basis Set:
  Basis Set: CC-PVTZ
  Basis Set:
  @DF-RHF Final Energy:  -457.50835327569234
    Total Energy =                       -457.5083532756926843
  Basis Set: CC-PVTZ
  Basis Set:
  Basis Set: CC-PVTZ
  Basis Set:
  @DF-RHF Final Energy:  -457.50861635191018
    Total Energy =                       -457.5086163519099500
  Basis Set: CC-PVTZ
  Basis Set:
  Charge       = 0
  Multiplicity = 1
  Basis Set: CC-PVTZ
  Basis Set:

    Orbital Energies (a.u.)
    -----------------------

    Doubly Occupied:

       1A    -20.600226     2A    -20.533816     3A    -11.372865
       4A    -11.280284     5A    -11.244688     6A    -11.243258
       7A    -11.242372     8A    -11.239730     9A    -11.235787
      10A    -11.235020    11A     -1.475104    12A     -1.368958
      13A     -1.170446    14A     -1.051620    15A     -1.028753
      16A     -0.981458    17A     -0.862864    18A     -0.838145
      19A     -0.780581    20A     -0.745060    21A     -0.688279
      22A     -0.679816    23A     -0.676185    24A     -0.634255
      25A     -0.629823    26A     -0.600995    27A     -0.587738
      28A     -0.569568    29A     -0.527841    30A     -0.520110
      31A     -0.509933    32A     -0.501708    33A     -0.461346
      34A     -0.449540    35A     -0.350055    36A     -0.345955

  @DF-RHF Final Energy:  -457.50862230191598

   => Energetics <=

    Nuclear Repulsion Energy =            493.6840386331907098
    One-Electron Energy =               -1601.8569589904720942
    Two-Electron Energy =                 650.6642980553649522
    DFT Exchange-Correlation Energy =       0.0000000000000000
    Empirical Dispersion Energy =           0.0000000000000000
    PCM Polarization Energy =               0.0000000000000000
    EFP Energy =                            0.0000000000000000
    Total Energy =                       -457.5086223019163754
    Molecular point group: c1
  Basis Set: CC-PVTZ
  Basis Set:

  -Total Gradient:
     Atom            X                  Y                   Z
    ------   -----------------  -----------------  -----------------
       1       -0.000000091247     0.000000591485     0.000001390273
       2       -0.000002874438    -0.000008225055    -0.000003522473
       3       -0.000016773809     0.000004282947     0.000002090792
       4        0.000001682668    -0.000001216531    -0.000004405417
       5       -0.000002248010     0.000000281638     0.000000002352
       6        0.000006344603     0.000005616374     0.000007313031
       7       -0.000003268213    -0.000000290046    -0.000001102625
       8       -0.000015224960     0.000006326050     0.000007053393
       9       -0.000001920903     0.000003138405    -0.000000414576
      10       -0.000037360923    -0.000002786467    -0.000017764961
      11       -0.000008134219    -0.000010109310    -0.000003531107
      12        0.000041849304    -0.000429654343     0.001211327963
      13        0.000029611306     0.000947361527    -0.001564885245
      14        0.000037869991     0.000069499788     0.000000573156
      15        0.000155130450    -0.001758278712    -0.000304014666
      16       -0.000226090687     0.001208892137     0.000678731654
      17        0.000053947352    -0.000034503762     0.000001695142
      18       -0.000012448262    -0.000000926124    -0.000010536684

  **** Optimization is complete! (in 6 steps) ****
    Final optimized geometry and variables:
    Molecular point group: c1

    Geometry (in Angstrom), charge = 0, multiplicity = 1:

    H           -4.026808985927    -0.416848003503     0.026068209217
    C           -2.956190567517    -0.341864405286     0.005669330546
    C           -2.196633646143    -1.420488194260    -0.410770265323
    C           -2.340221817162     0.832236636363     0.395400815326
    H           -2.675180901839    -2.331667787028    -0.713383177588
    C           -0.820994709902    -1.323299384967    -0.436864538740
    H           -2.929834728664     1.668407256431     0.718101614110
    C           -0.962716432399     0.931002112316     0.369992940150
    H           -0.218104296651    -2.148672444850    -0.756769271847
    C           -0.198675649046    -0.147492108738    -0.046449999406
    H           -0.483131762506     1.839160423238     0.671093059948
    C            1.291849159176    -0.094899494044    -0.092986459533
    O            1.774019453309     1.071392887101     0.295197052021
    O            1.968110225440    -1.002927906999    -0.442911781453
    C            3.176253210942     1.257186098113     0.330468138416
    H            3.486116670164     1.794540695859    -0.554827201441
    H            3.690882764721     0.313924224308     0.389102792961
    H            3.387173497588     1.857330360563     1.202098772702

  Mulliken Charges: (a.u.)
   Center  Symbol    Alpha    Beta     Spin     Total
       1     H     0.42033  0.42033  0.00000  0.15934
       2     C     3.06974  3.06974  0.00000 -0.13947
       3     C     3.07555  3.07555  0.00000 -0.15111
       4     C     3.07489  3.07489  0.00000 -0.14978
       5     H     0.42046  0.42046  0.00000  0.15908
       6     C     3.07591  3.07591  0.00000 -0.15181
       7     H     0.42196  0.42196  0.00000  0.15608
       8     C     3.08197  3.08197  0.00000 -0.16393
       9     H     0.40642  0.40642  0.00000  0.18716
      10     C     3.01762  3.01762  0.00000 -0.03524
      11     H     0.41120  0.41120  0.00000  0.17760
      12     C     2.77593  2.77593  0.00000  0.44813
      13     O     4.14971  4.14971  0.00000 -0.29942
      14     O     4.21150  4.21150  0.00000 -0.42300
      15     C     3.04046  3.04046  0.00000 -0.08093
      16     H     0.45493  0.45493  0.00000  0.09014
      17     H     0.44218  0.44218  0.00000  0.11564
      18     H     0.44923  0.44923  0.00000  0.10153

   Total alpha = 36.00000, Total beta = 36.00000, Total charge = -0.00000
