  ==> Input File <==

--------------------------------------------------------------------------
set {
	reference rhf
	basis 6-31G*
}

set_num_threads( 1 )
memory 2 gb

molecule MOL {
0 1

H	 -3.135461	 -1.215070	 0.001379
O	 -2.310168	 -0.871793	 -0.309793
C	 -2.026376	 0.340750	 0.341611
C	 -0.673256	 0.843270	 -0.132153
H	 -2.792215	 1.080697	 0.115987
H	 -2.013526	 0.200402	 1.421792
C	 0.486613	 -0.083066	 0.235839
H	 -0.715586	 0.970948	 -1.210718
H	 -0.508072	 1.829858	 0.297090
C	 1.084097	 0.226881	 1.609433
H	 1.258070	 -0.005809	 -0.523371
H	 0.139336	 -1.115545	 0.220783
C	 2.239372	 -0.702591	 1.979693
H	 1.432099	 1.257585	 1.625593
H	 0.307082	 0.155694	 2.368132
H	 3.047719	 -0.628219	 1.257936
H	 2.644524	 -0.458118	 2.956949
H	 1.915540	 -1.739393	 2.005902

	symmetry c1
}
set optking {
	frozen_dihedral = ("
		14 10 7 11,
		2 3 4 8,
		1 2 3 4
	")
}

ee = energy('scf')
oeprop('DIPOLE', 'QUADRUPOLE', 'MULLIKEN_CHARGES')
f=open( 'psi4out.xyz', 'w' )
f.write( "18  " )
f.write( str(ee) + "\n" )
f.write( MOL.save_string_xyz() )
f.close()
--------------------------------------------------------------------------

    Molecular point group: c1

    Geometry (in Angstrom), charge = 0, multiplicity = 1:

       Center              X                  Y                   Z               Mass
    ------------   -----------------  -----------------  -----------------  -----------------
           H         -2.885330830814    -1.145757106755    -0.612522700551     1.007825032070
           O         -2.060037830814    -0.802480106755    -0.923694700551    15.994914619560
           C         -1.776245830814     0.410062893245    -0.272290700551    12.000000000000
           C         -0.423125830814     0.912582893245    -0.746054700551    12.000000000000
           H         -2.542084830814     1.150009893245    -0.497914700551     1.007825032070
           H         -1.763395830814     0.269714893245     0.807890299449     1.007825032070
           C          0.736743169186    -0.013753106755    -0.378062700551    12.000000000000
           H         -0.465455830814     1.040260893245    -1.824619700551     1.007825032070
           H         -0.257941830814     1.899170893245    -0.316811700551     1.007825032070
           C          1.334227169186     0.296193893245     0.995531299449    12.000000000000
           H          1.508200169186     0.063503893245    -1.137272700551     1.007825032070
           H          0.389466169186    -1.046232106755    -0.393118700551     1.007825032070
           C          2.489502169186    -0.633278106755     1.365791299449    12.000000000000
           H          1.682229169186     1.326897893245     1.011691299449     1.007825032070
           H          0.557212169186     0.225006893245     1.754230299449     1.007825032070
           H          3.297849169186    -0.558906106755     0.644034299449     1.007825032070
           H          2.894654169186    -0.388805106755     2.343047299449     1.007825032070
           H          2.165670169186    -1.670080106755     1.392000299449     1.007825032070

  Charge       = 0
  Multiplicity = 1
  Basis Set: 6-31G*
  Basis Set:

    Orbital Energies (a.u.)
    -----------------------

    Doubly Occupied:

       1A    -20.553417     2A    -11.267978     3A    -11.211687
       4A    -11.211213     5A    -11.205209     6A    -11.205166
       7A     -1.360196     8A     -1.075874     9A     -1.007452
      10A     -0.912998    11A     -0.826194    12A     -0.776707
      13A     -0.702755    14A     -0.651002    15A     -0.618858
      16A     -0.582485    17A     -0.566507    18A     -0.557270
      19A     -0.529723    20A     -0.504430    21A     -0.485482
      22A     -0.468125    23A     -0.452938    24A     -0.450082
      25A     -0.427845

  @DF-RHF Final Energy:  -271.17698244973997

   => Energetics <=

    Nuclear Repulsion Energy =            251.9358067456381320
    One-Electron Energy =                -867.0023375259418117
    Two-Electron Energy =                 343.8895483305634002
    DFT Exchange-Correlation Energy =       0.0000000000000000
    Empirical Dispersion Energy =           0.0000000000000000
    PCM Polarization Energy =               0.0000000000000000
    EFP Energy =                            0.0000000000000000
    Total Energy =                       -271.1769824497402510

  Mulliken Charges: (a.u.)
   Center  Symbol    Alpha    Beta     Spin     Total
       1     H     0.28058  0.28058  0.00000  0.43884
       2     O     4.36931  4.36931  0.00000 -0.73862
       3     C     2.99866  2.99866  0.00000  0.00269
       4     C     3.16221  3.16221  0.00000 -0.32441
       5     H     0.42901  0.42901  0.00000  0.14197
       6     H     0.43230  0.43230  0.00000  0.13540
       7     C     3.15804  3.15804  0.00000 -0.31607
       8     H     0.41273  0.41273  0.00000  0.17453
       9     H     0.42322  0.42322  0.00000  0.15356
      10     C     3.15340  3.15340  0.00000 -0.30680
      11     H     0.42130  0.42130  0.00000  0.15740
      12     H     0.40701  0.40701  0.00000  0.18599
      13     C     3.23880  3.23880  0.00000 -0.47759
      14     H     0.42463  0.42463  0.00000  0.15074
      15     H     0.42513  0.42513  0.00000  0.14973
      16     H     0.42169  0.42169  0.00000  0.15663
      17     H     0.42076  0.42076  0.00000  0.15848
      18     H     0.42123  0.42123  0.00000  0.15755

   Total alpha = 25.00000, Total beta = 25.00000, Total charge = -0.00000
