  ==> Input File <==

--------------------------------------------------------------------------
set {
	reference rhf
	basis 6-31G*
}

set_num_threads( 1 )
memory 2 gb

molecule MOL {
0 1

H	 0.241020	 -0.546311	 2.210375
O	 0.871610	 -0.435388	 1.511873
C	 0.532008	 0.697573	 0.766868
C	 -0.793441	 0.596080	 0.058728
H	 1.324517	 0.829631	 0.039067
H	 0.534426	 1.588313	 1.394245
C	 -1.530462	 -0.493172	 -0.025500
H	 -1.131408	 1.508729	 -0.407461
H	 -1.092586	 -1.461565	 -0.186463
H	 -2.602122	 -0.450675	 0.050101

	symmetry c1
}
set optking {
	frozen_dihedral = ("
		5 3 2 1,
		5 3 4 7
	")
}

ee = energy('scf')
oeprop('DIPOLE', 'QUADRUPOLE', 'MULLIKEN_CHARGES')
f=open( 'psi4out.xyz', 'w' )
f.write( "10  " )
f.write( str(ee) + "\n" )
f.write( MOL.save_string_xyz() )
f.close()
--------------------------------------------------------------------------

    Molecular point group: c1

    Geometry (in Angstrom), charge = 0, multiplicity = 1:

       Center              X                  Y                   Z               Mass
    ------------   -----------------  -----------------  -----------------  -----------------
           H          0.418631414390    -0.617318164031     1.574496876418     1.007825032070
           O          1.049221414390    -0.506395164031     0.875994876418    15.994914619560
           C          0.709619414390     0.626565835969     0.130989876418    12.000000000000
           C         -0.615829585610     0.525072835969    -0.577150123582    12.000000000000
           H          1.502128414390     0.758623835969    -0.596811123582     1.007825032070
           H          0.712037414390     1.517305835969     0.758366876418     1.007825032070
           C         -1.352850585610    -0.564179164031    -0.661378123582    12.000000000000
           H         -0.953796585610     1.437721835969    -1.043339123582     1.007825032070
           H         -0.914974585610    -1.532572164031    -0.822341123582     1.007825032070
           H         -2.424510585610    -0.521682164031    -0.585777123582     1.007825032070

  Charge       = 0
  Multiplicity = 1
  Basis Set: 6-31G*
  Basis Set:

    Orbital Energies (a.u.)
    -----------------------

    Doubly Occupied:

       1A    -20.557845     2A    -11.278059     3A    -11.233579
       4A    -11.218895     5A     -1.366670     6A     -1.058562
       7A     -0.927827     8A     -0.769127     9A     -0.685901
      10A     -0.653238    11A     -0.616632    12A     -0.572533
      13A     -0.544915    14A     -0.502731    15A     -0.446747
      16A     -0.332495

  @DF-RHF Final Energy:  -191.88091318267720

   => Energetics <=

    Nuclear Repulsion Energy =            119.2527467355565705
    One-Electron Energy =                -496.7358132245382194
    Two-Electron Energy =                 185.6021533063046434
    DFT Exchange-Correlation Energy =       0.0000000000000000
    Empirical Dispersion Energy =           0.0000000000000000
    PCM Polarization Energy =               0.0000000000000000
    EFP Energy =                            0.0000000000000000
    Total Energy =                       -191.8809131826770056

  Mulliken Charges: (a.u.)
   Center  Symbol    Alpha    Beta     Spin     Total
       1     H     0.28199  0.28199  0.00000  0.43601
       2     O     4.36539  4.36539  0.00000 -0.73077
       3     C     2.99991  2.99991  0.00000  0.00019
       4     C     3.09519  3.09519  0.00000 -0.19038
       5     H     0.41179  0.41179  0.00000  0.17642
       6     H     0.42172  0.42172  0.00000  0.15656
       7     C     3.20245  3.20245  0.00000 -0.40490
       8     H     0.40896  0.40896  0.00000  0.18208
       9     H     0.40216  0.40216  0.00000  0.19568
      10     H     0.41044  0.41044  0.00000  0.17911

   Total alpha = 16.00000, Total beta = 16.00000, Total charge = -0.00000
