  ==> Input File <==

--------------------------------------------------------------------------
set {
	reference rhf
	basis 6-31G*
}

set_num_threads( 1 )
memory 2 gb

molecule MOL {
0 1

O	 -1.276010	 1.052711	 -0.768302
C	 -1.204840	 0.067374	 -0.106123
C	 -2.388195	 -0.672128	 0.458071
O	 -0.067104	 -0.527208	 0.221609
H	 -2.388023	 -1.694060	 0.097175
H	 -3.300579	 -0.174919	 0.164318
H	 -2.315377	 -0.706351	 1.539059
C	 0.270512	 -0.668856	 1.608648
C	 1.785016	 -0.764114	 1.661476
C	 -0.423722	 -1.893503	 2.183909
H	 -0.066597	 0.218199	 2.124399
H	 2.239598	 0.119550	 1.228184
H	 2.118345	 -0.851687	 2.690337
H	 2.134006	 -1.632230	 1.112629
H	 -0.154006	 -2.019456	 3.227655
H	 -1.499530	 -1.788795	 2.123503
H	 -0.126235	 -2.786676	 1.643769

	symmetry c1
}
set optking {
	frozen_dihedral = ("
		11 8 4 2
	")
}

ee = energy('scf')
oeprop('DIPOLE', 'QUADRUPOLE', 'MULLIKEN_CHARGES')
f=open( 'psi4out.xyz', 'w' )
f.write( "17  " )
f.write( str(ee) + "\n" )
f.write( MOL.save_string_xyz() )
f.close()
--------------------------------------------------------------------------

    Molecular point group: c1

    Geometry (in Angstrom), charge = 0, multiplicity = 1:

       Center              X                  Y                   Z               Mass
    ------------   -----------------  -----------------  -----------------  -----------------
           O         -0.801792991753     1.544288043358    -1.522732863984    15.994914619560
           C         -0.730622991753     0.558951043358    -0.860553863984    12.000000000000
           C         -1.913977991753    -0.180550956642    -0.296359863984    12.000000000000
           O          0.407113008247    -0.035630956642    -0.532821863984    15.994914619560
           H         -1.913805991753    -1.202482956642    -0.657255863984     1.007825032070
           H         -2.826361991753     0.316658043358    -0.590112863984     1.007825032070
           H         -1.841159991753    -0.214773956642     0.784628136016     1.007825032070
           C          0.744729008247    -0.177278956642     0.854217136016    12.000000000000
           C          2.259233008247    -0.272536956642     0.907045136016    12.000000000000
           C          0.050495008247    -1.401925956642     1.429478136016    12.000000000000
           H          0.407620008247     0.709776043358     1.369968136016     1.007825032070
           H          2.713815008247     0.611127043358     0.473753136016     1.007825032070
           H          2.592562008247    -0.360109956642     1.935906136016     1.007825032070
           H          2.608223008247    -1.140652956642     0.358198136016     1.007825032070
           H          0.320211008247    -1.527878956642     2.473224136016     1.007825032070
           H         -1.025312991753    -1.297217956642     1.369072136016     1.007825032070
           H          0.347982008247    -2.295098956642     0.889338136016     1.007825032070

  Charge       = 0
  Multiplicity = 1
  Basis Set: 6-31G*
  Basis Set:

    Orbital Energies (a.u.)
    -----------------------

    Doubly Occupied:

       1A    -20.586655     2A    -20.550505     3A    -11.375618
       4A    -11.308373     5A    -11.232166     6A    -11.226422
       7A    -11.226400     8A     -1.460661     9A     -1.367033
      10A     -1.080199    11A     -1.023629    12A     -0.955539
      13A     -0.854440    14A     -0.779041    15A     -0.705994
      16A     -0.673333    17A     -0.664825    18A     -0.617503
      19A     -0.608168    20A     -0.587382    21A     -0.565055
      22A     -0.556197    23A     -0.550409    24A     -0.520363
      25A     -0.493948    26A     -0.483542    27A     -0.449225
      28A     -0.435570

  @DF-RHF Final Energy:  -344.87289091392279

   => Energetics <=

    Nuclear Repulsion Energy =            326.2735585747445839
    One-Electron Energy =               -1116.4164757900182394
    Two-Electron Energy =                 445.2700263013507538
    DFT Exchange-Correlation Energy =       0.0000000000000000
    Empirical Dispersion Energy =           0.0000000000000000
    PCM Polarization Energy =               0.0000000000000000
    EFP Energy =                            0.0000000000000000
    Total Energy =                       -344.8728909139229017

  Mulliken Charges: (a.u.)
   Center  Symbol    Alpha    Beta     Spin     Total
       1     O     4.25883  4.25883  0.00000 -0.51767
       2     C     2.61716  2.61716  0.00000  0.76569
       3     C     3.30650  3.30650  0.00000 -0.61301
       4     O     4.31149  4.31149  0.00000 -0.62298
       5     H     0.39796  0.39796  0.00000  0.20407
       6     H     0.39492  0.39492  0.00000  0.21017
       7     H     0.40507  0.40507  0.00000  0.18986
       8     C     2.93616  2.93616  0.00000  0.12768
       9     C     3.23895  3.23895  0.00000 -0.47790
      10     C     3.24699  3.24699  0.00000 -0.49397
      11     H     0.41306  0.41306  0.00000  0.17387
      12     H     0.40394  0.40394  0.00000  0.19212
      13     H     0.41851  0.41851  0.00000  0.16299
      14     H     0.41009  0.41009  0.00000  0.17983
      15     H     0.41592  0.41592  0.00000  0.16816
      16     H     0.41446  0.41446  0.00000  0.17108
      17     H     0.40999  0.40999  0.00000  0.18002

   Total alpha = 28.00000, Total beta = 28.00000, Total charge = -0.00000
