  ==> Input File <==

--------------------------------------------------------------------------
set {
	reference rhf
	basis 6-31G*
}

set_num_threads( 4 )
memory 2 gb

molecule MOL {
0 1

H	 1.011038	 -0.987128	 1.173206
O	 1.294882	 -0.631334	 0.342124
C	 0.709054	 0.624700	 0.160067
C	 -0.793441	 0.596080	 0.058728
H	 1.128293	 1.023919	 -0.756484
H	 1.000223	 1.306864	 0.958126
C	 -1.530462	 -0.493172	 -0.025500
H	 -1.267829	 1.565317	 0.054453
H	 -1.092586	 -1.461565	 -0.186463
H	 -2.602122	 -0.450675	 0.050101

	symmetry c1
}
set optking {
	frozen_dihedral = ("
		3 4 7 9
	")
}

ee = optimize('scf')
oeprop('DIPOLE', 'QUADRUPOLE', 'MULLIKEN_CHARGES')
f=open( 'psi4out.xyz', 'w' )
f.write( "10  " )
f.write( str(ee) + "\n" )
f.write( MOL.save_string_xyz() )
f.close()
--------------------------------------------------------------------------

    Molecular point group: c1
  Charge       = 0
  Multiplicity = 1
  Basis Set: 6-31G*
  Basis Set:
  @DF-RHF Final Energy:  -191.91528289120660
    Total Energy =                       -191.9152828912065729
    Molecular point group: c1
  Basis Set: 6-31G*
  Basis Set:
  Basis Set: 6-31G*
  Basis Set:
  @DF-RHF Final Energy:  -191.91646454156768
    Total Energy =                       -191.9164645415676205
  Basis Set: 6-31G*
  Basis Set:
  Basis Set: 6-31G*
  Basis Set:
  @DF-RHF Final Energy:  -191.91656773468304
    Total Energy =                       -191.9165677346830705
  Basis Set: 6-31G*
  Basis Set:
  Basis Set: 6-31G*
  Basis Set:
  @DF-RHF Final Energy:  -191.91657086785767
    Total Energy =                       -191.9165708678576721
  Basis Set: 6-31G*
  Basis Set:
  Charge       = 0
  Multiplicity = 1
  Basis Set: 6-31G*
  Basis Set:

    Orbital Energies (a.u.)
    -----------------------

    Doubly Occupied:

       1A    -20.560512     2A    -11.278608     3A    -11.232056
       4A    -11.219751     5A     -1.369428     6A     -1.058337
       7A     -0.929012     8A     -0.769138     9A     -0.687744
      10A     -0.661867    11A     -0.616931    12A     -0.570181
      13A     -0.537404    14A     -0.493493    15A     -0.447717
      16A     -0.365018

  @DF-RHF Final Energy:  -191.91657180353627

   => Energetics <=

    Nuclear Repulsion Energy =            119.4241277273526975
    One-Electron Energy =                -497.0870067117671169
    Two-Electron Energy =                 185.7463071808781478
    DFT Exchange-Correlation Energy =       0.0000000000000000
    Empirical Dispersion Energy =           0.0000000000000000
    PCM Polarization Energy =               0.0000000000000000
    EFP Energy =                            0.0000000000000000
    Total Energy =                       -191.9165718035362715
    Molecular point group: c1
  Basis Set: 6-31G*
  Basis Set:

  -Total Gradient:
     Atom            X                  Y                   Z
    ------   -----------------  -----------------  -----------------
       1       -0.000014269792    -0.000004243911    -0.000004384648
       2       -0.000039468366     0.000000922140    -0.000012674234
       3       -0.000269868873     0.000142049104     0.003734735191
       4        0.000323988558    -0.000086907068    -0.008261161552
       5       -0.000012385295    -0.000002923910    -0.000012897203
       6       -0.000003921664    -0.000001586049    -0.000004741807
       7        0.000325858179    -0.000376130424     0.009468171415
       8        0.000012725584     0.000002615035    -0.000001518986
       9       -0.000321504034     0.000325667199    -0.004935176524
      10       -0.000001154299     0.000000537886     0.000029648346

  **** Optimization is complete! (in 5 steps) ****
    Final optimized geometry and variables:
    Molecular point group: c1

    Geometry (in Angstrom), charge = 0, multiplicity = 1:

    H            1.003434265595    -1.003843920967     0.974775770851
    O            1.306532681163    -0.622172953188     0.162080553489
    C            0.716946933941     0.634391647866     0.001859980902
    C           -0.784331419989     0.600599372740    -0.113577091047
    H            1.150890596874     1.059016549809    -0.896439382764
    H            0.988670592441     1.298197188857     0.822042212709
    C           -1.522865474823    -0.491020000263    -0.138229668655
    H           -1.262080193362     1.568041679837    -0.093378294947
    H           -1.085422954282    -1.468449092940    -0.234347903128
    H           -2.596280236392    -0.436961622561    -0.168914930324

  Mulliken Charges: (a.u.)
   Center  Symbol    Alpha    Beta     Spin     Total
       1     H     0.28075  0.28075  0.00000  0.43851
       2     O     4.36667  4.36667  0.00000 -0.73334
       3     C     3.00123  3.00123  0.00000 -0.00246
       4     C     3.09041  3.09041  0.00000 -0.18082
       5     H     0.40877  0.40877  0.00000  0.18245
       6     H     0.42498  0.42498  0.00000  0.15005
       7     C     3.20067  3.20067  0.00000 -0.40133
       8     H     0.41019  0.41019  0.00000  0.17962
       9     H     0.40535  0.40535  0.00000  0.18929
      10     H     0.41098  0.41098  0.00000  0.17804

   Total alpha = 16.00000, Total beta = 16.00000, Total charge = -0.00000
