                              Psi4 1.0.54 Driver

  ==> Input File <==

--------------------------------------------------------------------------
set {
	reference rhf
	basis cc-pvtz
}

set_num_threads( 4 )
memory 2 gb

molecule MOL {
0 1

H	 -2.777192	 0.384166	 0.741106
C	 -2.380995	 1.359352	 0.467385
O	 -1.002811	 1.320551	 0.304152
H	 -2.817155	 1.659932	 -0.474053
H	 -2.673179	 2.076281	 1.232582
C	 -0.299942	 0.955395	 1.446200
C	 1.169889	 0.844711	 1.127308
H	 -0.436142	 1.702433	 2.228090
H	 -0.655721	 0.001087	 1.828493
O	 1.401606	 -0.295166	 0.366636
H	 1.487584	 1.736394	 0.591210
H	 1.730797	 0.796025	 2.060574
C	 2.714315	 -0.441627	 -0.061017
H	 2.765292	 -0.641548	 -1.128869
H	 3.305661	 0.447341	 0.150952
H	 3.143725	 -1.278506	 0.470147

	symmetry c1
}
set optking {
	frozen_dihedral = ("
		7 10 13 14
	")
}

ee,wfn = optimize('scf', return_wfn=True)
oeprop( wfn, 'DIPOLE', 'QUADRUPOLE', 'MULLIKEN_CHARGES')
f=open( 'psi4out.xyz', 'w' )
f.write( "16  " )
f.write( str(ee) + "\n" )
f.write( MOL.save_string_xyz() )
f.close()
--------------------------------------------------------------------------

    Molecular point group: c1
  Charge       = 0
  Multiplicity = 1
  Basis Set: CC-PVTZ
  Basis Set:
  @DF-RHF Final Energy:  -307.09382803527433
    Total Energy =                       -307.0938280352742140
    Molecular point group: c1
  Basis Set: CC-PVTZ
  Basis Set:
  Basis Set: CC-PVTZ
  Basis Set:
  @DF-RHF Final Energy:  -307.09439522827802
    Total Energy =                       -307.0943952282779605
  Basis Set: CC-PVTZ
  Basis Set:
  Basis Set: CC-PVTZ
  Basis Set:
  @DF-RHF Final Energy:  -307.09451442356158
    Total Energy =                       -307.0945144235615771
  Basis Set: CC-PVTZ
  Basis Set:
  Basis Set: CC-PVTZ
  Basis Set:
  @DF-RHF Final Energy:  -307.09451548959373
    Total Energy =                       -307.0945154895937321
  Basis Set: CC-PVTZ
  Basis Set:
  Charge       = 0
  Multiplicity = 1
  Basis Set: CC-PVTZ
  Basis Set:

    Orbital Energies (a.u.)
    -----------------------

    Doubly Occupied:

       1A    -20.547423     2A    -20.544338     3A    -11.267801
       4A    -11.266560     5A    -11.261337     6A    -11.261078
       7A     -1.389600     8A     -1.371597     9A     -1.031744
      10A     -0.937274    11A     -0.892156    12A     -0.823994
      13A     -0.684874    14A     -0.681188    15A     -0.658553
      16A     -0.636740    17A     -0.630398    18A     -0.597179
      19A     -0.554820    20A     -0.537892    21A     -0.508562
      22A     -0.478834    23A     -0.463798    24A     -0.421158
      25A     -0.410493

  @DF-RHF Final Energy:  -307.09451562421526

   => Energetics <=

    Nuclear Repulsion Energy =            258.6513938490200530
    One-Electron Energy =                -931.7730409498162771
    Two-Electron Energy =                 366.0271314765809620
    DFT Exchange-Correlation Energy =       0.0000000000000000
    Empirical Dispersion Energy =           0.0000000000000000
    PCM Polarization Energy =               0.0000000000000000
    EFP Energy =                            0.0000000000000000
    Total Energy =                       -307.0945156242153189
    Molecular point group: c1
  Basis Set: CC-PVTZ
  Basis Set:

  -Total Gradient:
     Atom            X                  Y                   Z
    ------   -----------------  -----------------  -----------------
       1        0.000000679220    -0.000000659440     0.000000656634
       2       -0.000000600023     0.000003362491    -0.000004168319
       3        0.000000531139     0.000004504440     0.000000515089
       4       -0.000001946461    -0.000000412458     0.000000883877
       5        0.000000154804    -0.000000404590     0.000000272506
       6       -0.000001448863    -0.000007861518    -0.000004386184
       7       -0.000261374814     0.000601735908    -0.000977110076
       8        0.000001231722     0.000002646983     0.000000281167
       9        0.000007529978    -0.000000826097     0.000004587137
      10        0.000385702415    -0.000512501854     0.001334727815
      11        0.000000861401     0.000001945235    -0.000000723779
      12       -0.000002630248    -0.000003328783    -0.000003867431
      13       -0.000200339280    -0.001514984984    -0.000080108238
      14        0.000062473082     0.001412536779    -0.000269965941
      15        0.000009603848     0.000008133809     0.000000174707
      16       -0.000000427917     0.000006114082    -0.000001768966

  **** Optimization is complete! (in 5 steps) ****
    Final optimized geometry and variables:
    Molecular point group: c1

    Geometry (in Angstrom), charge = 0, multiplicity = 1:

    H           -3.031777896370    -0.319891243555     0.109788396162
    C           -2.661107586797     0.664065220699    -0.168252168275
    O           -1.280370269538     0.664894103085    -0.312931926165
    H           -3.093404081374     0.942650564402    -1.118212233646
    H           -2.984799083283     1.379106088678     0.585998068749
    C           -0.582336364799     0.331455911603     0.841722850810
    C            0.894236771497     0.260289129480     0.543153778394
    H           -0.749606034290     1.082472534863     1.613854290699
    H           -0.915900720709    -0.628511314853     1.229594978103
    O            1.162884855902    -0.877966939247    -0.209335130712
    H            1.191775713891     1.157207148045     0.005991146193
    H            1.440167035588     0.234260443373     1.485925300969
    C            2.476236877701    -1.025820958567    -0.652601720499
    H            2.471750153862    -1.237417204847    -1.714503196339
    H            3.060132818005    -0.124348196151    -0.495112844593
    H            2.963720019045    -1.842351519393    -0.130288857799

  Mulliken Charges: (a.u.)
   Center  Symbol    Alpha    Beta     Spin     Total
       1     H     0.47017  0.47017  0.00000  0.05967
       2     C     3.03200  3.03200  0.00000 -0.06401
       3     O     4.17034  4.17034  0.00000 -0.34068
       4     H     0.44647  0.44647  0.00000  0.10707
       5     H     0.47375  0.47375  0.00000  0.05250
       6     C     2.96338  2.96338  0.00000  0.07324
       7     C     2.95869  2.95869  0.00000  0.08262
       8     H     0.47624  0.47624  0.00000  0.04752
       9     H     0.47110  0.47110  0.00000  0.05780
      10     O     4.17495  4.17495  0.00000 -0.34990
      11     H     0.47002  0.47002  0.00000  0.05996
      12     H     0.47656  0.47656  0.00000  0.04687
      13     C     3.02707  3.02707  0.00000 -0.05413
      14     H     0.45366  0.45366  0.00000  0.09268
      15     H     0.47404  0.47404  0.00000  0.05191
      16     H     0.46156  0.46156  0.00000  0.07689

   Total alpha = 25.00000, Total beta = 25.00000, Total charge =  0.00000

*** Psi4 exiting successfully. Buy a developer a beer!
