  ==> Input File <==

--------------------------------------------------------------------------
set {
	reference rhf
	basis 6-31G*
}

set_num_threads( 4 )
memory 2 gb

molecule MOL {
0 1

H	 2.176868	 -0.646004	 -0.217325
O	 1.337496	 -0.537251	 0.205931
C	 0.702312	 0.627605	 -0.264544
C	 -0.714990	 0.596302	 0.266387
H	 0.682322	 0.642550	 -1.350929
H	 1.215941	 1.520383	 0.085680
O	 -1.405996	 -0.526611	 -0.195820
H	 -1.257453	 1.468809	 -0.075599
H	 -0.688972	 0.618407	 1.353696
H	 -1.805905	 -0.948399	 0.553968

	symmetry c1
}
set optking {
	frozen_dihedral = ("
		10 7 4 3
	")
}

ee = optimize('scf')
oeprop('DIPOLE', 'QUADRUPOLE', 'MULLIKEN_CHARGES')
f=open( 'psi4out.xyz', 'w' )
f.write( "10  " )
f.write( str(ee) + "\n" )
f.write( MOL.save_string_xyz() )
f.close()
--------------------------------------------------------------------------

    Molecular point group: c1
  Charge       = 0
  Multiplicity = 1
  Basis Set: 6-31G*
  Basis Set:
  @DF-RHF Final Energy:  -228.91788304760465
    Total Energy =                       -228.9178830476046187
    Molecular point group: c1
  Basis Set: 6-31G*
  Basis Set:
  Basis Set: 6-31G*
  Basis Set:
  @DF-RHF Final Energy:  -228.91945257438132
    Total Energy =                       -228.9194525743814097
  Basis Set: 6-31G*
  Basis Set:
  Basis Set: 6-31G*
  Basis Set:
  @DF-RHF Final Energy:  -228.91960454769060
    Total Energy =                       -228.9196045476905965
  Basis Set: 6-31G*
  Basis Set:
  Basis Set: 6-31G*
  Basis Set:
  @DF-RHF Final Energy:  -228.91961678655366
    Total Energy =                       -228.9196167865536040
  Basis Set: 6-31G*
  Basis Set:
  Basis Set: 6-31G*
  Basis Set:
  @DF-RHF Final Energy:  -228.91961921918454
    Total Energy =                       -228.9196192191844830
  Basis Set: 6-31G*
  Basis Set:
  Charge       = 0
  Multiplicity = 1
  Basis Set: 6-31G*
  Basis Set:

    Orbital Energies (a.u.)
    -----------------------

    Doubly Occupied:

       1A    -20.554173     2A    -20.550813     3A    -11.269627
       4A    -11.268530     5A     -1.370666     6A     -1.349559
       7A     -1.001484     8A     -0.832461     9A     -0.719221
      10A     -0.701039    11A     -0.618206    12A     -0.594459
      13A     -0.587170    14A     -0.523107    15A     -0.478243
      16A     -0.444437    17A     -0.433835

  @DF-RHF Final Energy:  -228.91961965847099

   => Energetics <=

    Nuclear Repulsion Energy =            133.4393676886768958
    One-Electron Energy =                -578.1239157809231983
    Two-Electron Energy =                 215.7649284337753386
    DFT Exchange-Correlation Energy =       0.0000000000000000
    Empirical Dispersion Energy =           0.0000000000000000
    PCM Polarization Energy =               0.0000000000000000
    EFP Energy =                            0.0000000000000000
    Total Energy =                       -228.9196196584709639
    Molecular point group: c1
  Basis Set: 6-31G*
  Basis Set:

  -Total Gradient:
     Atom            X                  Y                   Z
    ------   -----------------  -----------------  -----------------
       1        0.000002092805     0.000006354579     0.000003448070
       2       -0.000006820221    -0.000017156711    -0.000013414475
       3       -0.000124789302     0.000360131922    -0.000446938022
       4        0.000045361322    -0.000302012094     0.000648555426
       5       -0.000000012639    -0.000003782653    -0.000004728587
       6       -0.000012579040    -0.000005162460    -0.000023480055
       7        0.000920604587    -0.000612421918    -0.000087295820
       8       -0.000014361581    -0.000005532047     0.000010661408
       9        0.000000700896    -0.000000375089    -0.000003359933
      10       -0.000810196825     0.000579956472    -0.000083448011

  **** Optimization is complete! (in 6 steps) ****
    Final optimized geometry and variables:
    Molecular point group: c1

    Geometry (in Angstrom), charge = 0, multiplicity = 1:

    H            2.210877837257    -0.642218684913    -0.211168715701
    O            1.408769784316    -0.499304949614     0.269889621301
    C            0.700224419049     0.571409499947    -0.293739751139
    C           -0.701234353185     0.568073593863     0.271287794138
    H            0.641752135021     0.480217906093    -1.374937510339
    H            1.180183636538     1.520307445897    -0.057230839396
    O           -1.430197813996    -0.505281952100    -0.262672442049
    H           -1.192136972857     1.503253330312     0.013636903685
    H           -0.640868109201     0.508502255781     1.353417591234
    H           -1.847705033055    -0.994169098172     0.429072304036

  Mulliken Charges: (a.u.)
   Center  Symbol    Alpha    Beta     Spin     Total
       1     H     0.27938  0.27938  0.00000  0.44124
       2     O     4.36959  4.36959  0.00000 -0.73917
       3     C     2.99964  2.99964  0.00000  0.00072
       4     C     3.00197  3.00197  0.00000 -0.00394
       5     H     0.42232  0.42232  0.00000  0.15537
       6     H     0.43273  0.43273  0.00000  0.13454
       7     O     4.36945  4.36945  0.00000 -0.73891
       8     H     0.42585  0.42585  0.00000  0.14831
       9     H     0.42191  0.42191  0.00000  0.15618
      10     H     0.27717  0.27717  0.00000  0.44566

   Total alpha = 17.00000, Total beta = 17.00000, Total charge =  0.00000
