                              Psi4 1.0.54 Driver

  ==> Input File <==

--------------------------------------------------------------------------
set {
	reference rhf
	basis cc-pvtz
}

set_num_threads( 4 )
memory 2 gb

molecule MOL {
0 1

H	 2.580983	 0.608422	 0.264676
O	 2.063695	 -0.083403	 -0.105237
C	 0.742924	 0.005675	 0.350750
H	 0.731380	 0.039219	 1.440080
C	 -0.064076	 -1.193495	 -0.124425
C	 -0.047832	 1.190568	 -0.194462
H	 0.194729	 -1.376165	 -1.161308
H	 0.163013	 -2.094508	 0.429933
C	 -1.533112	 -0.752002	 0.006102
H	 0.148003	 1.266545	 -1.259275
H	 0.226235	 2.136493	 0.259722
C	 -1.506634	 0.799189	 0.067162
H	 -2.124360	 -1.110499	 -0.826089
H	 -1.983103	 -1.158030	 0.903403
H	 -2.183808	 1.252169	 -0.644677
H	 -1.813926	 1.138698	 1.049457

	symmetry c1
}
set optking {
	frozen_dihedral = ("
		1 2 3 6
	")
}

ee,wfn = optimize('scf', return_wfn=True)
oeprop( wfn, 'DIPOLE', 'QUADRUPOLE', 'MULLIKEN_CHARGES')
f=open( 'psi4out.xyz', 'w' )
f.write( "16  " )
f.write( str(ee) + "\n" )
f.write( MOL.save_string_xyz() )
f.close()
--------------------------------------------------------------------------

    Molecular point group: c1
  Charge       = 0
  Multiplicity = 1
  Basis Set: CC-PVTZ
  Basis Set:
  @DF-RHF Final Energy:  -270.11691107745935
    Total Energy =                       -270.1169110774594628
    Molecular point group: c1
  Basis Set: CC-PVTZ
  Basis Set:
  Charge       = 0
  Multiplicity = 1
  Basis Set: CC-PVTZ
  Basis Set:

    Orbital Energies (a.u.)
    -----------------------

    Doubly Occupied:

       1A    -20.545948     2A    -11.267371     3A    -11.214661
       4A    -11.213063     5A    -11.209674     6A    -11.206876
       7A     -1.365891     8A     -1.114723     9A     -0.966358
      10A     -0.949249    11A     -0.789073    12A     -0.777036
      13A     -0.708298    14A     -0.657590    15A     -0.619333
      16A     -0.588712    17A     -0.566953    18A     -0.526136
      19A     -0.509023    20A     -0.481364    21A     -0.470747
      22A     -0.456658    23A     -0.450180    24A     -0.421054

  @DF-RHF Final Energy:  -270.11691158053719

   => Energetics <=

    Nuclear Repulsion Energy =            255.5842825856706781
    One-Electron Energy =                -873.2504507039462851
    Two-Electron Energy =                 347.5492565377384722
    DFT Exchange-Correlation Energy =       0.0000000000000000
    Empirical Dispersion Energy =           0.0000000000000000
    PCM Polarization Energy =               0.0000000000000000
    EFP Energy =                            0.0000000000000000
    Total Energy =                       -270.1169115805371916
    Molecular point group: c1
  Basis Set: CC-PVTZ
  Basis Set:

  -Total Gradient:
     Atom            X                  Y                   Z
    ------   -----------------  -----------------  -----------------
       1        0.000065550524    -0.000149633086     0.000188956900
       2       -0.000106362354     0.000153717999    -0.000312127103
       3        0.000109034207     0.000074513802     0.000199665949
       4       -0.000046102495    -0.000005389931     0.000027538319
       5        0.000018299862     0.000029638600     0.000062991802
       6        0.000003334523    -0.000096794800    -0.000121908733
       7       -0.000013838372     0.000003428291    -0.000007907814
       8       -0.000001555357     0.000001638750    -0.000005123424
       9       -0.000008866131     0.000006098909    -0.000047914337
      10       -0.000012475701     0.000019191013    -0.000002753050
      11        0.000001429571    -0.000007678378    -0.000001885631
      12       -0.000020734561    -0.000017953474     0.000018092253
      13       -0.000015351475    -0.000004473943     0.000007741041
      14        0.000022556237    -0.000000562256     0.000009224056
      15        0.000008551350    -0.000003788103    -0.000006538129
      16       -0.000003469821    -0.000001953393    -0.000008052099

  **** Optimization is complete! (in 2 steps) ****
    Final optimized geometry and variables:
    Molecular point group: c1

    Geometry (in Angstrom), charge = 0, multiplicity = 1:

    H            2.581688483936     0.608384940524     0.259040043085
    O            2.063090174735    -0.083387308885    -0.109002517381
    C            0.743436451691     0.005747005875     0.350437448234
    H            0.733894929132     0.038837565494     1.439722539895
    C           -0.064666624668    -1.193219875677    -0.123744867016
    C           -0.047771720966     1.190877215069    -0.193872306804
    H            0.194172403568    -1.376720930806    -1.160487019848
    H            0.162138987407    -2.093971123754     0.431174911009
    C           -1.533528429220    -0.751290599024     0.006079540071
    H            0.147811587902     1.267046955765    -1.258643228262
    H            0.226716407383     2.136659405935     0.260247466514
    C           -1.506467265982     0.799779115935     0.068173493567
    H           -2.124376376514    -1.108931871541    -0.826768458975
    H           -1.984185477454    -1.157830890914     0.902820829829
    H           -2.183952191075     1.253400303312    -0.642969617520
    H           -1.813125381598     1.138663330820     1.050908050716

  Mulliken Charges: (a.u.)
   Center  Symbol    Alpha    Beta     Spin     Total
       1     H     0.39552  0.39552  0.00000  0.20896
       2     O     4.20003  4.20003  0.00000 -0.40006
       3     C     2.92232  2.92232  0.00000  0.15535
       4     H     0.46699  0.46699  0.00000  0.06601
       5     C     3.10229  3.10229  0.00000 -0.20457
       6     C     3.10159  3.10159  0.00000 -0.20317
       7     H     0.45115  0.45115  0.00000  0.09769
       8     H     0.44399  0.44399  0.00000  0.11202
       9     C     3.10945  3.10945  0.00000 -0.21890
      10     H     0.45343  0.45343  0.00000  0.09314
      11     H     0.45034  0.45034  0.00000  0.09932
      12     C     3.11476  3.11476  0.00000 -0.22953
      13     H     0.44550  0.44550  0.00000  0.10901
      14     H     0.44872  0.44872  0.00000  0.10256
      15     H     0.44339  0.44339  0.00000  0.11322
      16     H     0.45053  0.45053  0.00000  0.09894

   Total alpha = 24.00000, Total beta = 24.00000, Total charge =  0.00000

*** Psi4 exiting successfully. Buy a developer a beer!
