  ==> Input File <==

--------------------------------------------------------------------------
set {
	reference rhf
	basis 6-31G*
}

set_num_threads( 4 )
memory 2 gb

molecule MOL {
0 1

H	 2.981860	 1.568886	 0.614258
C	 2.346686	 0.698967	 0.472719
C	 0.905647	 1.129332	 0.217159
H	 2.399409	 0.084349	 1.364475
H	 2.756826	 0.125504	 -0.351574
N	 -0.000257	 -0.000071	 0.054619
H	 0.574382	 1.713357	 1.066603
H	 0.861105	 1.798452	 -0.647121
C	 -1.363055	 0.315058	 0.462241
C	 0.062848	 -0.577601	 -1.281470
C	 -2.412078	 -0.285320	 -0.468531
H	 -1.482241	 1.391144	 0.451970
H	 -1.549931	 -0.001174	 1.492681
C	 -0.282629	 -2.063380	 -1.300125
H	 1.072532	 -0.463575	 -1.655222
H	 -0.581834	 -0.033155	 -1.977711
H	 -2.262839	 0.075384	 -1.480151
H	 -2.369300	 -1.368867	 -0.491760
H	 -3.410332	 -0.003975	 -0.144961
H	 0.395029	 -2.611673	 -0.655309
H	 -1.294404	 -2.254641	 -0.959121
H	 -0.196714	 -2.459164	 -2.308242

	symmetry c1
}
set optking {
	frozen_dihedral = ("
		3 6 9 11
	")
}

ee = optimize('scf')
oeprop('DIPOLE', 'QUADRUPOLE', 'MULLIKEN_CHARGES')
f=open( 'psi4out.xyz', 'w' )
f.write( "22  " )
f.write( str(ee) + "\n" )
f.write( MOL.save_string_xyz() )
f.close()
--------------------------------------------------------------------------

    Molecular point group: c1
  Charge       = 0
  Multiplicity = 1
  Basis Set: 6-31G*
  Basis Set:
  @DF-RHF Final Energy:  -290.33945583845446
    Total Energy =                       -290.3394558384543416
    Molecular point group: c1
  Basis Set: 6-31G*
  Basis Set:
  Basis Set: 6-31G*
  Basis Set:
  @DF-RHF Final Energy:  -290.35539589725829
    Total Energy =                       -290.3553958972582336
  Basis Set: 6-31G*
  Basis Set:
  Basis Set: 6-31G*
  Basis Set:
  @DF-RHF Final Energy:  -290.35830392319269
    Total Energy =                       -290.3583039231929206
  Basis Set: 6-31G*
  Basis Set:
  Basis Set: 6-31G*
  Basis Set:
  @DF-RHF Final Energy:  -290.35905278831268
    Total Energy =                       -290.3590527883131358
  Basis Set: 6-31G*
  Basis Set:
  @DF-RHF Final Energy:  -290.35951191727469
    Total Energy =                       -290.3595119172742898
  @DF-RHF Final Energy:  -290.36006693779586
    Total Energy =                       -290.3600669377958639
  @DF-RHF Final Energy:  -290.36043281491970
    Total Energy =                       -290.3604328149195908
  @DF-RHF Final Energy:  -290.36053768815532
    Total Energy =                       -290.3605376881548636
  @DF-RHF Final Energy:  -290.36057801229828
    Total Energy =                       -290.3605780122980491
  Basis Set: 6-31G*
  Basis Set:
  @DF-RHF Final Energy:  -290.36058501978323
    Total Energy =                       -290.3605850197832297
  Basis Set: 6-31G*
  Basis Set:
  Basis Set: 6-31G*
  Basis Set:
  @DF-RHF Final Energy:  -290.36059191145307
    Total Energy =                       -290.3605919114530707
  Basis Set: 6-31G*
  Basis Set:
  Basis Set: 6-31G*
  Basis Set:
  @DF-RHF Final Energy:  -290.36059333448145
    Total Energy =                       -290.3605933344814503
  Basis Set: 6-31G*
  Basis Set:
  Charge       = 0
  Multiplicity = 1
  Basis Set: 6-31G*
  Basis Set:

    Orbital Energies (a.u.)
    -----------------------

    Doubly Occupied:

       1A    -15.529566     2A    -11.242162     3A    -11.240421
       4A    -11.238178     5A    -11.211847     6A    -11.203814
       7A    -11.200593     8A     -1.214304     9A     -1.026681
      10A     -1.017706    11A     -0.957584    12A     -0.860898
      13A     -0.833950    14A     -0.763472    15A     -0.660919
      16A     -0.631477    17A     -0.625881    18A     -0.589912
      19A     -0.569531    20A     -0.552892    21A     -0.539957
      22A     -0.531898    23A     -0.511164    24A     -0.500792
      25A     -0.488548    26A     -0.477302    27A     -0.469319
      28A     -0.465117    29A     -0.321986

  @DF-RHF Final Energy:  -290.36059388843267

   => Energetics <=

    Nuclear Repulsion Energy =            337.9543774689523730
    One-Electron Energy =               -1061.6741995316313023
    Two-Electron Energy =                 433.3592281742468231
    DFT Exchange-Correlation Energy =       0.0000000000000000
    Empirical Dispersion Energy =           0.0000000000000000
    PCM Polarization Energy =               0.0000000000000000
    EFP Energy =                            0.0000000000000000
    Total Energy =                       -290.3605938884321631
    Molecular point group: c1
  Basis Set: 6-31G*
  Basis Set:

  -Total Gradient:
     Atom            X                  Y                   Z
    ------   -----------------  -----------------  -----------------
       1        0.000015738337    -0.000000895745    -0.000001262717
       2        0.000008614001     0.000009456155     0.000005423507
       3       -0.000114770781     0.000272015810    -0.000513899989
       4       -0.000005141503     0.000006611990    -0.000000135301
       5       -0.000003769047     0.000010907047     0.000005256290
       6        0.000205067276    -0.000149568507     0.000589889387
       7       -0.000004857811    -0.000003057680     0.000003320672
       8       -0.000002345825    -0.000006507416     0.000007665473
       9       -0.000117644340    -0.000649477610     0.000137523941
      10       -0.000039613002     0.000016936831    -0.000012932852
      11       -0.000015572774     0.000503073108    -0.000269393729
      12        0.000030191751    -0.000000807772    -0.000011470671
      13       -0.000000675959    -0.000002955463     0.000002984210
      14       -0.000010156772    -0.000056708939    -0.000003592795
      15        0.000009885741     0.000013249994     0.000027533429
      16        0.000017586152     0.000000918481     0.000006787162
      17       -0.000015811036     0.000013044102     0.000003774255
      18       -0.000013361566     0.000030381565     0.000027386615
      19        0.000003858323     0.000006161762     0.000014503846
      20        0.000006732960     0.000007466734    -0.000003194674
      21        0.000040588583    -0.000013586881    -0.000017416003
      22        0.000005457292    -0.000006657567     0.000001249944

  **** Optimization is complete! (in 13 steps) ****
    Final optimized geometry and variables:
    Molecular point group: c1

    Geometry (in Angstrom), charge = 0, multiplicity = 1:

    H            3.087768011682     1.466057012156     0.966417268570
    C            2.403576357934     0.655720253429     0.730030437984
    C            1.000197409309     1.204239757152     0.483479408357
    H            2.392112834660    -0.040066023133     1.561991414813
    H            2.801549764028     0.136099432533    -0.134980173224
    N            0.018238507360     0.169020104789     0.218347899900
    H            0.692740851237     1.731215720701     1.378990776220
    H            1.032788390981     1.949810303661    -0.317604937286
    C           -1.321229565377     0.469918102642     0.728597906630
    C            0.166010849581    -0.512879670954    -1.056912178731
    C           -2.512236844635     0.092023595764    -0.151549611952
    H           -1.399172857976     1.538174101256     0.916651064037
    H           -1.448366456373    -0.014773490287     1.694859533982
    C            0.248230283097    -2.031583720298    -0.911897687520
    H            1.079143657550    -0.163455556049    -1.524518629929
    H           -0.627622248022    -0.257071117848    -1.752510735856
    H           -2.530578760772     0.652838329215    -1.079261650834
    H           -2.538081394569    -0.964534087941    -0.391487835076
    H           -3.424307355076     0.325211413540     0.389307545170
    H            1.094516156496    -2.306480254363    -0.291498158750
    H           -0.644630809594    -2.434166767980    -0.445148442733
    H            0.362706489655    -2.507962599874    -1.882596485762

  Mulliken Charges: (a.u.)
   Center  Symbol    Alpha    Beta     Spin     Total
       1     H     0.42371  0.42371  0.00000  0.15257
       2     C     3.23756  3.23756  0.00000 -0.47513
       3     C     3.05122  3.05122  0.00000 -0.10244
       4     H     0.41627  0.41627  0.00000  0.16745
       5     H     0.42156  0.42156  0.00000  0.15688
       6     N     3.80384  3.80384  0.00000 -0.60767
       7     H     0.41932  0.41932  0.00000  0.16137
       8     H     0.43425  0.43425  0.00000  0.13150
       9     C     3.03709  3.03709  0.00000 -0.07419
      10     C     3.05586  3.05586  0.00000 -0.11173
      11     C     3.25704  3.25704  0.00000 -0.51407
      12     H     0.42726  0.42726  0.00000  0.14547
      13     H     0.42275  0.42275  0.00000  0.15449
      14     C     3.23043  3.23043  0.00000 -0.46087
      15     H     0.41963  0.41963  0.00000  0.16075
      16     H     0.42406  0.42406  0.00000  0.15188
      17     H     0.41780  0.41780  0.00000  0.16441
      18     H     0.41569  0.41569  0.00000  0.16862
      19     H     0.41663  0.41663  0.00000  0.16673
      20     H     0.41833  0.41833  0.00000  0.16334
      21     H     0.42210  0.42210  0.00000  0.15580
      22     H     0.42758  0.42758  0.00000  0.14484

   Total alpha = 29.00000, Total beta = 29.00000, Total charge = -0.00000
