  ==> Input File <==

--------------------------------------------------------------------------
set {
	reference rhf
	basis 6-31G*
}

set_num_threads( 1 )
memory 2 gb

molecule MOL {
0 1

O	 -2.821601	 1.309235	 -0.001213
C	 -2.668563	 0.129746	 -0.000350
C	 -3.801572	 -0.864014	 -0.000442
O	 -1.481751	 -0.454642	 0.000584
H	 -4.417280	 -0.689587	 -0.874708
H	 -3.443784	 -1.883046	 -0.000565
H	 -4.417179	 -0.689832	 0.873954
C	 -0.334255	 0.388708	 0.000906
C	 0.891947	 -0.504646	 0.000751
H	 -0.365390	 1.025305	 -0.873475
H	 -0.365484	 1.024911	 0.875569
C	 2.191998	 0.301789	 0.000897
H	 0.855148	 -1.151283	 -0.871571
H	 0.855132	 -1.151660	 0.872805
C	 3.441114	 -0.581407	 0.000108
H	 2.215074	 0.954890	 -0.869742
H	 2.215465	 0.953923	 0.872248
C	 3.869056	 -1.008332	 1.403485
H	 4.258121	 -0.047703	 -0.480241
H	 3.255628	 -1.465431	 -0.605836
H	 4.094467	 -0.145842	 2.024224
H	 4.756409	 -1.632617	 1.370212
H	 3.084602	 -1.574499	 1.897547

	symmetry c1
}
set optking {
	frozen_dihedral = ("
		13 9 8 10,
		2 4 8 10,
		16 12 9 13,
		1 2 4 8
	")
}

ee = energy('scf')
oeprop('DIPOLE', 'QUADRUPOLE', 'MULLIKEN_CHARGES')
f=open( 'psi4out.xyz', 'w' )
f.write( "23  " )
f.write( str(ee) + "\n" )
f.write( MOL.save_string_xyz() )
f.close()
--------------------------------------------------------------------------

    Molecular point group: c1

    Geometry (in Angstrom), charge = 0, multiplicity = 1:

       Center              X                  Y                   Z               Mass
    ------------   -----------------  -----------------  -----------------  -----------------
           O         -2.721095734899     1.451525057555    -0.163378007463    15.994914619560
           C         -2.568057734899     0.272036057555    -0.162515007463    12.000000000000
           C         -3.701066734899    -0.721723942445    -0.162607007463    12.000000000000
           O         -1.381245734899    -0.312351942445    -0.161581007463    15.994914619560
           H         -4.316774734899    -0.547296942445    -1.036873007463     1.007825032070
           H         -3.343278734899    -1.740755942445    -0.162730007463     1.007825032070
           H         -4.316673734899    -0.547541942445     0.711788992537     1.007825032070
           C         -0.233749734899     0.530998057555    -0.161259007463    12.000000000000
           C          0.992452265101    -0.362355942445    -0.161414007463    12.000000000000
           H         -0.264884734899     1.167595057555    -1.035640007463     1.007825032070
           H         -0.264978734899     1.167201057555     0.713403992537     1.007825032070
           C          2.292503265101     0.444079057555    -0.161268007463    12.000000000000
           H          0.955653265101    -1.008992942445    -1.033736007463     1.007825032070
           H          0.955637265101    -1.009369942445     0.710639992537     1.007825032070
           C          3.541619265101    -0.439116942445    -0.162057007463    12.000000000000
           H          2.315579265101     1.097180057555    -1.031907007463     1.007825032070
           H          2.315970265101     1.096213057555     0.710082992537     1.007825032070
           C          3.969561265101    -0.866041942445     1.241319992537    12.000000000000
           H          4.358626265101     0.094587057555    -0.642406007463     1.007825032070
           H          3.356133265101    -1.323140942445    -0.768001007463     1.007825032070
           H          4.194972265101    -0.003551942445     1.862058992537     1.007825032070
           H          4.856914265101    -1.490326942445     1.208046992537     1.007825032070
           H          3.185107265101    -1.432208942445     1.735381992537     1.007825032070

  Charge       = 0
  Multiplicity = 1
  Basis Set: 6-31G*
  Basis Set:

    Orbital Energies (a.u.)
    -----------------------

    Doubly Occupied:

       1A    -20.602983     2A    -20.540520     3A    -11.374083
       4A    -11.281371     5A    -11.232413     6A    -11.224308
       7A    -11.223216     8A    -11.220998     9A    -11.213075
      10A     -1.467960    11A     -1.360729    12A     -1.095070
      13A     -1.041673    14A     -1.002211    15A     -0.930686
      16A     -0.849590    17A     -0.796977    18A     -0.773011
      19A     -0.691234    20A     -0.685378    21A     -0.669664
      22A     -0.633695    23A     -0.618527    24A     -0.597695
      25A     -0.578377    26A     -0.571570    27A     -0.546511
      28A     -0.534490    29A     -0.527455    30A     -0.506629
      31A     -0.498767    32A     -0.475716    33A     -0.465909
      34A     -0.463742    35A     -0.451193    36A     -0.435267

  @DF-RHF Final Energy:  -422.97658040264128

   => Energetics <=

    Nuclear Repulsion Energy =            453.4851536680928348
    One-Electron Energy =               -1474.5580593347237937
    Two-Electron Energy =                 598.0963252639890015
    DFT Exchange-Correlation Energy =       0.0000000000000000
    Empirical Dispersion Energy =           0.0000000000000000
    PCM Polarization Energy =               0.0000000000000000
    EFP Energy =                            0.0000000000000000
    Total Energy =                       -422.9765804026419573

  Mulliken Charges: (a.u.)
   Center  Symbol    Alpha    Beta     Spin     Total
       1     O     4.28391  4.28391  0.00000 -0.56782
       2     C     2.61535  2.61535  0.00000  0.76931
       3     C     3.28774  3.28774  0.00000 -0.57548
       4     O     4.31269  4.31269  0.00000 -0.62537
       5     H     0.39749  0.39749  0.00000  0.20502
       6     H     0.39990  0.39990  0.00000  0.20021
       7     H     0.39750  0.39750  0.00000  0.20500
       8     C     2.99562  2.99562  0.00000  0.00876
       9     C     3.16621  3.16621  0.00000 -0.33243
      10     H     0.41059  0.41059  0.00000  0.17882
      11     H     0.41068  0.41068  0.00000  0.17864
      12     C     3.16278  3.16278  0.00000 -0.32555
      13     H     0.41390  0.41390  0.00000  0.17219
      14     H     0.41361  0.41361  0.00000  0.17278
      15     C     3.15407  3.15407  0.00000 -0.30814
      16     H     0.41849  0.41849  0.00000  0.16302
      17     H     0.41996  0.41996  0.00000  0.16009
      18     C     3.24090  3.24090  0.00000 -0.48181
      19     H     0.41841  0.41841  0.00000  0.16319
      20     H     0.42069  0.42069  0.00000  0.15862
      21     H     0.42052  0.42052  0.00000  0.15896
      22     H     0.41808  0.41808  0.00000  0.16383
      23     H     0.42092  0.42092  0.00000  0.15816

   Total alpha = 36.00000, Total beta = 36.00000, Total charge =  0.00000
