  ==> Input File <==

--------------------------------------------------------------------------
set {
	reference rhf
	basis 6-31G*
}

set_num_threads( 4 )
memory 2 gb

molecule MOL {
0 1

H	 -2.482165	 -0.708564	 -1.226062
O	 -2.310168	 -0.871793	 -0.309793
C	 -2.026376	 0.340750	 0.341611
C	 -0.673256	 0.843270	 -0.132153
H	 -2.792215	 1.080697	 0.115987
H	 -2.013526	 0.200402	 1.421792
C	 0.486613	 -0.083066	 0.235839
H	 -0.715586	 0.970948	 -1.210718
H	 -0.508072	 1.829858	 0.297090
C	 1.840406	 0.433480	 -0.254303
H	 0.300215	 -1.068318	 -0.178947
H	 0.519509	 -0.203625	 1.318070
C	 3.000220	 -0.489290	 0.118523
H	 1.809207	 0.553576	 -1.335192
H	 2.021860	 1.424500	 0.157276
H	 2.864959	 -1.479103	 -0.307933
H	 3.946603	 -0.099227	 -0.243630
H	 3.080049	 -0.602997	 1.196117

	symmetry c1
}
set optking {
	frozen_dihedral = ("
		1 2 3 4
	")
}

ee = optimize('scf')
oeprop('DIPOLE', 'QUADRUPOLE', 'MULLIKEN_CHARGES')
f=open( 'psi4out.xyz', 'w' )
f.write( "18  " )
f.write( str(ee) + "\n" )
f.write( MOL.save_string_xyz() )
f.close()
--------------------------------------------------------------------------

    Molecular point group: c1
  Charge       = 0
  Multiplicity = 1
  Basis Set: 6-31G*
  Basis Set:
  @DF-RHF Final Energy:  -271.17792055178711
    Total Energy =                       -271.1779205517869400
    Molecular point group: c1
  Basis Set: 6-31G*
  Basis Set:
  Basis Set: 6-31G*
  Basis Set:
  @DF-RHF Final Energy:  -271.17945380470417
    Total Energy =                       -271.1794538047041669
  Basis Set: 6-31G*
  Basis Set:
  Basis Set: 6-31G*
  Basis Set:
  @DF-RHF Final Energy:  -271.17980142965291
    Total Energy =                       -271.1798014296530255
  Basis Set: 6-31G*
  Basis Set:
  Charge       = 0
  Multiplicity = 1
  Basis Set: 6-31G*
  Basis Set:

    Orbital Energies (a.u.)
    -----------------------

    Doubly Occupied:

       1A    -20.553745     2A    -11.267993     3A    -11.216893
       4A    -11.214560     5A    -11.210728     6A    -11.207286
       7A     -1.360370     8A     -1.078031     9A     -1.010192
      10A     -0.915980    11A     -0.828159    12A     -0.791936
      13A     -0.682017    14A     -0.651724    15A     -0.610980
      16A     -0.609935    17A     -0.574565    18A     -0.552010
      19A     -0.536360    20A     -0.493568    21A     -0.489170
      22A     -0.475539    23A     -0.462543    24A     -0.458078
      25A     -0.423235

  @DF-RHF Final Energy:  -271.17980221611458

   => Energetics <=

    Nuclear Repulsion Energy =            248.7379308874695596
    One-Electron Energy =                -860.4842708972138325
    Two-Electron Energy =                 340.5665377936294931
    DFT Exchange-Correlation Energy =       0.0000000000000000
    Empirical Dispersion Energy =           0.0000000000000000
    PCM Polarization Energy =               0.0000000000000000
    EFP Energy =                            0.0000000000000000
    Total Energy =                       -271.1798022161147514
    Molecular point group: c1
  Basis Set: 6-31G*
  Basis Set:

  -Total Gradient:
     Atom            X                  Y                   Z
    ------   -----------------  -----------------  -----------------
       1       -0.000507511671     0.000167995753     0.000106051659
       2        0.000658781238    -0.000047445097     0.000146589697
       3       -0.000200929602     0.000349933934    -0.000253930862
       4        0.000170417613    -0.000173928885     0.000168135797
       5       -0.000037701934    -0.000112512156    -0.000048012725
       6       -0.000071829149    -0.000142349315    -0.000029026306
       7       -0.000011883961    -0.000083909224    -0.000045709323
       8        0.000026271643    -0.000010984211    -0.000033760083
       9       -0.000035679381    -0.000050039007    -0.000036022737
      10        0.000041156056     0.000037742413     0.000063612745
      11       -0.000027420519     0.000051231292    -0.000060970579
      12       -0.000015474346    -0.000005980504    -0.000009085895
      13        0.000011763638     0.000026123226     0.000030289862
      14       -0.000013173677    -0.000041141021     0.000021106471
      15        0.000008650351     0.000033424432    -0.000026737856
      16       -0.000007524705     0.000006328445    -0.000002264145
      17        0.000005517649     0.000001441553     0.000006947871
      18        0.000006570759    -0.000005931630     0.000002786411

  **** Optimization is complete! (in 4 steps) ****
    Final optimized geometry and variables:
    Molecular point group: c1

    Geometry (in Angstrom), charge = 0, multiplicity = 1:

    H           -2.550277661234    -0.769740249940    -1.170748435205
    O           -2.370965443513    -0.895282480138    -0.249272462950
    C           -2.025718003043     0.338095930547     0.328487477048
    C           -0.664974213363     0.850743333939    -0.129866365963
    H           -2.793646982928     1.081471067313     0.122605307224
    H           -2.019363281764     0.169570228523     1.398376198671
    C            0.490513110100    -0.083553112718     0.230260720515
    H           -0.688612453933     1.006314041090    -1.208681787887
    H           -0.501121989686     1.830809421593     0.315040745411
    C            1.850698693521     0.432535803179    -0.242494221966
    H            0.302537501072    -1.063996324986    -0.196303721355
    H            0.513854675805    -0.219447948016     1.310459347411
    C            3.003927574590    -0.496408273304     0.135363897882
    H            1.831565231902     0.561176851263    -1.322894041162
    H            2.030538600609     1.419938472662     0.178142829943
    H            2.869767287979    -1.483230897070    -0.298402744918
    H            3.954782462161    -0.106927485516    -0.215271839240
    H            3.072871160263    -0.617088822808     1.212772941984

  Mulliken Charges: (a.u.)
   Center  Symbol    Alpha    Beta     Spin     Total
       1     H     0.28311  0.28311  0.00000  0.43378
       2     O     4.36821  4.36821  0.00000 -0.73642
       3     C     2.99777  2.99777  0.00000  0.00446
       4     C     3.16702  3.16702  0.00000 -0.33403
       5     H     0.42817  0.42817  0.00000  0.14367
       6     H     0.41632  0.41632  0.00000  0.16737
       7     C     3.15113  3.15113  0.00000 -0.30226
       8     H     0.42802  0.42802  0.00000  0.14395
       9     H     0.42298  0.42298  0.00000  0.15405
      10     C     3.15145  3.15145  0.00000 -0.30291
      11     H     0.41173  0.41173  0.00000  0.17655
      12     H     0.42413  0.42413  0.00000  0.15174
      13     C     3.23899  3.23899  0.00000 -0.47799
      14     H     0.42423  0.42423  0.00000  0.15153
      15     H     0.42434  0.42434  0.00000  0.15133
      16     H     0.42096  0.42096  0.00000  0.15809
      17     H     0.41995  0.41995  0.00000  0.16010
      18     H     0.42151  0.42151  0.00000  0.15699

   Total alpha = 25.00000, Total beta = 25.00000, Total charge =  0.00000
