  ==> Input File <==

--------------------------------------------------------------------------
set {
	reference rhf
	basis 6-31G*
}

set_num_threads( 4 )
memory 2 gb

molecule MOL {
0 1

H	 -3.647435	 -1.980093	 1.121239
O	 -3.164432	 -1.532802	 0.441133
C	 -1.923729	 -1.108292	 0.944162
C	 -1.177863	 -0.397191	 -0.171080
H	 -2.062935	 -0.434457	 1.788481
H	 -1.342550	 -1.958743	 1.298144
C	 0.198102	 0.111031	 0.262842
H	 -1.790295	 0.430469	 -0.518405
H	 -1.077627	 -1.083668	 -1.007249
C	 1.331804	 -0.827780	 -0.158768
H	 0.361943	 1.100838	 -0.156218
H	 0.217265	 0.229072	 1.345532
C	 2.723619	 -0.410569	 0.329459
H	 1.342964	 -0.912588	 -1.244120
H	 1.116806	 -1.824343	 0.220779
C	 3.243875	 0.895854	 -0.272975
H	 3.424222	 -1.207124	 0.091250
H	 2.714788	 -0.329854	 1.414619
H	 3.251977	 0.848779	 -1.358681
H	 2.637085	 1.747371	 0.016682
H	 4.259473	 1.094070	 0.055697

	symmetry c1
}
set optking {
	frozen_dihedral = ("
		8 4 7 10
	")
}

ee = optimize('scf')
oeprop('DIPOLE', 'QUADRUPOLE', 'MULLIKEN_CHARGES')
f=open( 'psi4out.xyz', 'w' )
f.write( "21  " )
f.write( str(ee) + "\n" )
f.write( MOL.save_string_xyz() )
f.close()
--------------------------------------------------------------------------

    Molecular point group: c1
  Charge       = 0
  Multiplicity = 1
  Basis Set: 6-31G*
  Basis Set:
  @DF-RHF Final Energy:  -310.20882441156192
    Total Energy =                       -310.2088244115617499
    Molecular point group: c1
  Basis Set: 6-31G*
  Basis Set:
  Basis Set: 6-31G*
  Basis Set:
  @DF-RHF Final Energy:  -310.20906128884161
    Total Energy =                       -310.2090612888416672
  Basis Set: 6-31G*
  Basis Set:
  Basis Set: 6-31G*
  Basis Set:
  @DF-RHF Final Energy:  -310.20907713971667
    Total Energy =                       -310.2090771397166691
  Basis Set: 6-31G*
  Basis Set:
  Basis Set: 6-31G*
  Basis Set:
  @DF-RHF Final Energy:  -310.20911485714157
    Total Energy =                       -310.2091148571416284
  Basis Set: 6-31G*
  Basis Set:
  Basis Set: 6-31G*
  Basis Set:
  @DF-RHF Final Energy:  -310.20912068273395
    Total Energy =                       -310.2091206827339533
  Basis Set: 6-31G*
  Basis Set:
  Basis Set: 6-31G*
  Basis Set:
  @DF-RHF Final Energy:  -310.20912517933652
    Total Energy =                       -310.2091251793368656
  Basis Set: 6-31G*
  Basis Set:
  Charge       = 0
  Multiplicity = 1
  Basis Set: 6-31G*
  Basis Set:

    Orbital Energies (a.u.)
    -----------------------

    Doubly Occupied:

       1A    -20.552023     2A    -11.267495     3A    -11.215667
       4A    -11.215496     5A    -11.214173     6A    -11.210393
       7A    -11.208249     8A     -1.359065     9A     -1.085606
      10A     -1.031904    11A     -0.952718    12A     -0.878926
      13A     -0.809249    14A     -0.777535    15A     -0.694184
      16A     -0.650581    17A     -0.628500    18A     -0.608708
      19A     -0.589147    20A     -0.559877    21A     -0.545580
      22A     -0.517360    23A     -0.509238    24A     -0.494379
      25A     -0.475149    26A     -0.460430    27A     -0.451886
      28A     -0.447266    29A     -0.430499

  @DF-RHF Final Energy:  -310.20912586809550

   => Energetics <=

    Nuclear Repulsion Energy =            314.3787746412864408
    One-Electron Energy =               -1043.4932349030013938
    Two-Electron Energy =                 418.9053343936194551
    DFT Exchange-Correlation Energy =       0.0000000000000000
    Empirical Dispersion Energy =           0.0000000000000000
    PCM Polarization Energy =               0.0000000000000000
    EFP Energy =                            0.0000000000000000
    Total Energy =                       -310.2091258680954979
    Molecular point group: c1
  Basis Set: 6-31G*
  Basis Set:

  -Total Gradient:
     Atom            X                  Y                   Z
    ------   -----------------  -----------------  -----------------
       1        0.000020146008     0.000005983563     0.000004284320
       2        0.000015841702     0.000015164757    -0.000019491932
       3       -0.000006035697    -0.000010921800     0.000022016579
       4       -0.001128215018     0.000938901928     0.002545842369
       5       -0.000004984587     0.000001562452    -0.000008024598
       6       -0.000001917374    -0.000008524137     0.000005995290
       7        0.000022796766    -0.001444423736     0.001799535952
       8        0.000902877952    -0.000452565740    -0.002604702827
       9       -0.000007837865     0.000006329981     0.000002186633
      10        0.000182892467     0.000955679696    -0.001752458090
      11       -0.000004511048    -0.000006348286     0.000006737980
      12        0.000014795733     0.000006238294    -0.000004669486
      13        0.000002077464    -0.000003359850    -0.000000395788
      14        0.000004756861    -0.000003231460    -0.000000136907
      15       -0.000002152060     0.000000223925     0.000003538451
      16       -0.000006893372    -0.000002274587    -0.000003317619
      17        0.000000612209     0.000005504550    -0.000003911111
      18       -0.000001327232    -0.000005598170     0.000002977885
      19       -0.000002880721     0.000000283261     0.000003131572
      20       -0.000001215647     0.000003328060     0.000001026222
      21        0.000001173472    -0.000001952701    -0.000000164897

  **** Optimization is complete! (in 7 steps) ****
    Final optimized geometry and variables:
    Molecular point group: c1

    Geometry (in Angstrom), charge = 0, multiplicity = 1:

    H           -3.726811003897    -1.536351328544     0.939033872777
    O           -3.253171164661    -1.096714646046     0.247424593115
    C           -2.037888540550    -0.602486330900     0.746779194983
    C           -1.312924449949     0.108592024328    -0.382246988167
    H           -2.213700061670     0.090943039442     1.567978827637
    H           -1.422884658982    -1.414681214564     1.132816808009
    C            0.083668696561     0.616668862656     0.023065408257
    H           -1.933773195692     0.923495896203    -0.740131842309
    H           -1.229414913586    -0.583864697689    -1.215215476679
    C            1.213219540687    -0.333480116275    -0.389646671371
    H            0.252995636914     1.588311048672    -0.429162604790
    H            0.122119833338     0.780109517112     1.099431821895
    C            2.603686438275     0.065762207740     0.116162745341
    H            1.232589349655    -0.407194668925    -1.475383186567
    H            0.987325242981    -1.333375046261    -0.023645833493
    C            3.132885342586     1.383181765017    -0.453923305853
    H            3.302386707259    -0.728501669267    -0.135129409687
    H            2.588427504587     0.122952210550     1.202846001013
    H            3.143693703541     1.361711736284    -1.540403967070
    H            2.529917232370     2.230846223680    -0.145767308104
    H            4.148668514226     1.567763604257    -0.118020654544

  Mulliken Charges: (a.u.)
   Center  Symbol    Alpha    Beta     Spin     Total
       1     H     0.28118  0.28118  0.00000  0.43764
       2     O     4.37142  4.37142  0.00000 -0.74284
       3     C     2.99194  2.99194  0.00000  0.01613
       4     C     3.16208  3.16208  0.00000 -0.32415
       5     H     0.43229  0.43229  0.00000  0.13542
       6     H     0.43269  0.43269  0.00000  0.13463
       7     C     3.16562  3.16562  0.00000 -0.33124
       8     H     0.41264  0.41264  0.00000  0.17471
       9     H     0.41248  0.41248  0.00000  0.17503
      10     C     3.15316  3.15316  0.00000 -0.30632
      11     H     0.41607  0.41607  0.00000  0.16787
      12     H     0.42407  0.42407  0.00000  0.15185
      13     C     3.15267  3.15267  0.00000 -0.30534
      14     H     0.42191  0.42191  0.00000  0.15619
      15     H     0.42253  0.42253  0.00000  0.15494
      16     C     3.24142  3.24142  0.00000 -0.48284
      17     H     0.42081  0.42081  0.00000  0.15837
      18     H     0.42397  0.42397  0.00000  0.15207
      19     H     0.42183  0.42183  0.00000  0.15634
      20     H     0.42002  0.42002  0.00000  0.15997
      21     H     0.41922  0.41922  0.00000  0.16156

   Total alpha = 29.00000, Total beta = 29.00000, Total charge =  0.00000
