  ==> Input File <==

--------------------------------------------------------------------------
set {
	reference rhf
	basis 6-31G*
}

set_num_threads( 4 )
memory 2 gb

molecule MOL {
0 1

O	 0.749854	 1.307668	 -0.000040
C	 0.576249	 0.131685	 -0.000108
C	 -0.766779	 -0.556801	 -0.000461
O	 1.568443	 -0.749345	 -0.000005
C	 -1.945214	 0.412366	 0.000161
H	 -0.796911	 -1.211249	 -0.867467
H	 -0.796854	 -1.212390	 0.865687
C	 -3.287791	 -0.317055	 0.000105
H	 -1.876087	 1.060580	 -0.866812
H	 -1.875822	 1.059691	 0.867761
H	 -3.394745	 -0.949193	 -0.877058
H	 -4.111778	 0.388953	 0.000015
H	 -3.394954	 -0.949187	 0.877259
C	 1.223887	 -2.105266	 0.219009
H	 0.753554	 -2.226643	 1.184201
H	 2.151551	 -2.654837	 0.183282
H	 0.551142	 -2.455520	 -0.550566

	symmetry c1
}
set optking {
	frozen_dihedral = ("
		14 4 2 1
	")
}

ee = optimize('scf')
oeprop('DIPOLE', 'QUADRUPOLE', 'MULLIKEN_CHARGES')
f=open( 'psi4out.xyz', 'w' )
f.write( "17  " )
f.write( str(ee) + "\n" )
f.write( MOL.save_string_xyz() )
f.close()
--------------------------------------------------------------------------

    Molecular point group: c1
  Charge       = 0
  Multiplicity = 1
  Basis Set: 6-31G*
  Basis Set:
  @DF-RHF Final Energy:  -344.87938732706675
    Total Energy =                       -344.8793873270669792
    Molecular point group: c1
  Basis Set: 6-31G*
  Basis Set:
  Basis Set: 6-31G*
  Basis Set:
  @DF-RHF Final Energy:  -344.87707784443148
    Total Energy =                       -344.8770778444317102
  Basis Set: 6-31G*
  Basis Set:
  Basis Set: 6-31G*
  Basis Set:
  @DF-RHF Final Energy:  -344.88770298560479
    Total Energy =                       -344.8877029856047329
  Basis Set: 6-31G*
  Basis Set:
  Basis Set: 6-31G*
  Basis Set:
  @DF-RHF Final Energy:  -344.89052883674162
    Total Energy =                       -344.8905288367416802
  Basis Set: 6-31G*
  Basis Set:
  @DF-RHF Final Energy:  -344.88994169235019
    Total Energy =                       -344.8899416923507601
  @DF-RHF Final Energy:  -344.89097256495995
    Total Energy =                       -344.8909725649596680
  Basis Set: 6-31G*
  Basis Set:
  @DF-RHF Final Energy:  -344.89151970226573
    Total Energy =                       -344.8915197022660095
  Basis Set: 6-31G*
  Basis Set:
  Basis Set: 6-31G*
  Basis Set:
  @DF-RHF Final Energy:  -344.89152264388377
    Total Energy =                       -344.8915226438838886
  Basis Set: 6-31G*
  Basis Set:
  Basis Set: 6-31G*
  Basis Set:
  @DF-RHF Final Energy:  -344.89152618095500
    Total Energy =                       -344.8915261809549975
  Basis Set: 6-31G*
  Basis Set:
  Charge       = 0
  Multiplicity = 1
  Basis Set: 6-31G*
  Basis Set:

    Orbital Energies (a.u.)
    -----------------------

    Doubly Occupied:

       1A    -20.602349     2A    -20.539654     3A    -11.374265
       4A    -11.296871     5A    -11.246435     6A    -11.226326
       7A    -11.218810     8A     -1.463382     9A     -1.365116
      10A     -1.083071    11A     -0.990574    12A     -0.969522
      13A     -0.839221    14A     -0.766993    15A     -0.704508
      16A     -0.689525    17A     -0.672881    18A     -0.641448
      19A     -0.602271    20A     -0.578432    21A     -0.573188
      22A     -0.542098    23A     -0.534938    24A     -0.496223
      25A     -0.490797    26A     -0.484548    27A     -0.446940
      28A     -0.431576

  @DF-RHF Final Energy:  -344.89152636449683

   => Energetics <=

    Nuclear Repulsion Energy =            314.0185681555375368
    One-Electron Energy =               -1092.0762671674565354
    Two-Electron Energy =                 433.1661726474225134
    DFT Exchange-Correlation Energy =       0.0000000000000000
    Empirical Dispersion Energy =           0.0000000000000000
    PCM Polarization Energy =               0.0000000000000000
    EFP Energy =                            0.0000000000000000
    Total Energy =                       -344.8915263644964853
    Molecular point group: c1
  Basis Set: 6-31G*
  Basis Set:

  -Total Gradient:
     Atom            X                  Y                   Z
    ------   -----------------  -----------------  -----------------
       1       -0.000038655378     0.000035313045     0.001032624940
       2        0.000080079877     0.000068880850    -0.000945214668
       3        0.000005964862     0.000002294599     0.000001097728
       4       -0.000188511482    -0.000215833841    -0.000992684546
       5        0.000003517379    -0.000000782663    -0.000001778727
       6        0.000006012055     0.000001024265    -0.000001213142
       7        0.000005659805     0.000006475425    -0.000006800357
       8        0.000001080137     0.000000903049    -0.000001193195
       9       -0.000000688379     0.000002460188    -0.000002549678
      10        0.000000251468     0.000000779738     0.000003270967
      11        0.000000974898     0.000000230040    -0.000000530980
      12        0.000001763019     0.000000205875    -0.000000218373
      13        0.000000887622     0.000000539794     0.000000964427
      14        0.000126049488     0.000124281186     0.000914744553
      15        0.000001186680    -0.000010567060    -0.000004964873
      16       -0.000003555282    -0.000021117046     0.000000396955
      17       -0.000002016774     0.000004912551     0.000004048969

  **** Optimization is complete! (in 10 steps) ****
    Final optimized geometry and variables:
    Molecular point group: c1

    Geometry (in Angstrom), charge = 0, multiplicity = 1:

    O            0.961479405254     1.518486294467    -0.025813960658
    C            0.779822308264     0.348529008105    -0.020840616260
    C           -0.601502281041    -0.277197179045    -0.026036748689
    O            1.835892240710    -0.469689154281    -0.027851196083
    C           -1.718676269737     0.763466124882    -0.043743230742
    H           -0.679063456431    -0.929985348164    -0.892189894234
    H           -0.701507030702    -0.920888194835     0.844076340923
    C           -3.102517286828     0.116091243388    -0.053049802976
    H           -1.599132390261     1.399186624359    -0.913456246815
    H           -1.616064612822     1.410352147833     0.819987464749
    H           -3.240595441955    -0.513706626830    -0.927689162501
    H           -3.881209390681     0.871438388139    -0.065778854559
    H           -3.258035294925    -0.502043145791     0.827020368098
    C            1.734663427841    -1.857972722356     0.181770025359
    H            1.323973336663    -2.082949693657     1.158271558546
    H            2.743888504571    -2.235745854445     0.130524479634
    H            1.138987207265    -2.340341870398    -0.582706800450

  Mulliken Charges: (a.u.)
   Center  Symbol    Alpha    Beta     Spin     Total
       1     O     4.26726  4.26726  0.00000 -0.53452
       2     C     2.59820  2.59820  0.00000  0.80360
       3     C     3.23255  3.23255  0.00000 -0.46510
       4     O     4.30327  4.30327  0.00000 -0.60653
       5     C     3.14832  3.14832  0.00000 -0.29664
       6     H     0.40366  0.40366  0.00000  0.19268
       7     H     0.40530  0.40530  0.00000  0.18939
       8     C     3.24357  3.24357  0.00000 -0.48713
       9     H     0.40762  0.40762  0.00000  0.18476
      10     H     0.40807  0.40807  0.00000  0.18386
      11     H     0.42190  0.42190  0.00000  0.15620
      12     H     0.41344  0.41344  0.00000  0.17312
      13     H     0.42221  0.42221  0.00000  0.15557
      14     C     3.09354  3.09354  0.00000 -0.18708
      15     H     0.41614  0.41614  0.00000  0.16772
      16     H     0.39777  0.39777  0.00000  0.20447
      17     H     0.41718  0.41718  0.00000  0.16563

   Total alpha = 28.00000, Total beta = 28.00000, Total charge =  0.00000
