                              Psi4 1.0.54 Driver

  ==> Input File <==

--------------------------------------------------------------------------
set {
	reference rhf
	basis cc-pvtz
}

set_num_threads( 4 )
memory 2 gb

molecule MOL {
0 1

H	 -2.847403	 0.388892	 -0.086158
O	 -2.041679	 -0.058866	 0.103463
C	 -0.959304	 0.780994	 -0.094939
C	 0.354905	 0.037902	 -0.006215
H	 -0.985899	 1.279578	 -1.057596
H	 -0.969809	 1.529522	 0.682889
F	 0.412060	 -0.931028	 -0.902708
F	 1.359641	 0.856111	 -0.239961
F	 0.545380	 -0.506387	 1.171682

	symmetry c1
}
set optking {
	frozen_dihedral = ("
		1 2 3 5
	")
}

ee,wfn = optimize('scf', return_wfn=True)
oeprop( wfn, 'DIPOLE', 'QUADRUPOLE', 'MULLIKEN_CHARGES')
f=open( 'psi4out.xyz', 'w' )
f.write( "9  " )
f.write( str(ee) + "\n" )
f.write( MOL.save_string_xyz() )
f.close()
--------------------------------------------------------------------------

    Molecular point group: c1
  Charge       = 0
  Multiplicity = 1
  Basis Set: CC-PVTZ
  Basis Set:
  @DF-RHF Final Energy:  -450.84297505370802
    Total Energy =                       -450.8429750537081873
    Molecular point group: c1
  Basis Set: CC-PVTZ
  Basis Set:
  Basis Set: CC-PVTZ
  Basis Set:
  @DF-RHF Final Energy:  -450.84427665784966
    Total Energy =                       -450.8442766578496048
  Basis Set: CC-PVTZ
  Basis Set:
  Basis Set: CC-PVTZ
  Basis Set:
  @DF-RHF Final Energy:  -450.84456641062229
    Total Energy =                       -450.8445664106222921
  Basis Set: CC-PVTZ
  Basis Set:
  Basis Set: CC-PVTZ
  Basis Set:
  @DF-RHF Final Energy:  -450.84457599421648
    Total Energy =                       -450.8445759942167683
  Basis Set: CC-PVTZ
  Basis Set:
  Charge       = 0
  Multiplicity = 1
  Basis Set: CC-PVTZ
  Basis Set:

    Orbital Energies (a.u.)
    -----------------------

    Doubly Occupied:

       1A    -26.333700     2A    -26.330095     3A    -26.330051
       4A    -20.582634     5A    -11.490894     6A    -11.310027
       7A     -1.741982     8A     -1.638185     9A     -1.636573
      10A     -1.406450    11A     -1.050842    12A     -0.923415
      13A     -0.833336    14A     -0.831590    15A     -0.788318
      16A     -0.738534    17A     -0.714222    18A     -0.704010
      19A     -0.673035    20A     -0.657347    21A     -0.643135
      22A     -0.641836    23A     -0.600478    24A     -0.530749
      25A     -0.483616

  @DF-RHF Final Energy:  -450.84457879837402

   => Energetics <=

    Nuclear Repulsion Energy =            277.8341443970601290
    One-Electron Energy =               -1178.1273432114076058
    Two-Electron Energy =                 449.4486200159735176
    DFT Exchange-Correlation Energy =       0.0000000000000000
    Empirical Dispersion Energy =           0.0000000000000000
    PCM Polarization Energy =               0.0000000000000000
    EFP Energy =                            0.0000000000000000
    Total Energy =                       -450.8445787983740161
    Molecular point group: c1
  Basis Set: CC-PVTZ
  Basis Set:

  -Total Gradient:
     Atom            X                  Y                   Z
    ------   -----------------  -----------------  -----------------
       1        0.000032863337    -0.000079760942    -0.000200186679
       2       -0.000002749500     0.000208182816     0.000212882105
       3        0.000151951994    -0.000231874376    -0.000062488857
       4        0.000071423975     0.000190821559     0.000066375662
       5       -0.000152773174     0.000094537352     0.000080280100
       6       -0.000024063132    -0.000004483003    -0.000011955518
       7        0.000030612943    -0.000035641045    -0.000047893940
       8       -0.000083184155    -0.000118207103    -0.000027701270
       9       -0.000024082285    -0.000023575252    -0.000009311600

  **** Optimization is complete! (in 5 steps) ****
    Final optimized geometry and variables:
    Molecular point group: c1

    Geometry (in Angstrom), charge = 0, multiplicity = 1:

    H           -2.812166470512     0.312017832488    -0.106144889427
    O           -1.992239557554    -0.089943237008     0.113518296514
    C           -0.946057033432     0.793840787476    -0.103120594131
    C            0.350322768126     0.024376053847    -0.019335760733
    H           -0.983183590199     1.249871139939    -1.085800854049
    H           -0.905087328159     1.576629917967     0.646280237191
    F            0.429366900256    -0.911627164765    -0.936348164903
    F            1.362395931101     0.850664420088    -0.204127747693
    F            0.511153406117    -0.546617032664     1.151197663884

  Mulliken Charges: (a.u.)
   Center  Symbol    Alpha    Beta     Spin     Total
       1     H     0.39012  0.39012  0.00000  0.21975
       2     O     4.18501  4.18501  0.00000 -0.37003
       3     C     2.98603  2.98603  0.00000  0.02794
       4     C     2.67639  2.67639  0.00000  0.64722
       5     H     0.46508  0.46508  0.00000  0.06983
       6     H     0.46533  0.46533  0.00000  0.06934
       7     F     4.60903  4.60903  0.00000 -0.21806
       8     F     4.61422  4.61422  0.00000 -0.22845
       9     F     4.60877  4.60877  0.00000 -0.21754

   Total alpha = 25.00000, Total beta = 25.00000, Total charge =  0.00000

*** Psi4 exiting successfully. Buy a developer a beer!
