  ==> Input File <==

--------------------------------------------------------------------------
set {
	reference rhf
	basis 6-31G*
}

set_num_threads( 4 )
memory 2 gb

molecule MOL {
0 1

H	 2.591676	 2.013956	 0.335017
O	 3.341076	 1.666752	 -0.126416
C	 3.569581	 0.339145	 0.272707
C	 2.539767	 -0.640285	 -0.279495
H	 4.553106	 0.084646	 -0.100901
H	 3.608576	 0.269204	 1.359154
C	 1.115811	 -0.397273	 0.226630
H	 2.556196	 -0.582511	 -1.364741
H	 2.852081	 -1.648031	 -0.010655
C	 1.017276	 0.816588	 1.154881
H	 0.766670	 -1.283248	 0.749616
H	 0.449238	 -0.251761	 -0.623574
C	 -0.402710	 1.155860	 1.622723
H	 1.653466	 0.655707	 2.023343
H	 1.425138	 1.682196	 0.637125
C	 -1.047086	 0.110246	 2.537026
H	 -0.370302	 2.106069	 2.151748
H	 -1.038825	 1.316102	 0.753517
C	 -2.418358	 0.541206	 3.061739
H	 -0.386171	 -0.085448	 3.380237
H	 -1.154357	 -0.833909	 2.008473
C	 -3.066615	 -0.503483	 3.969512
H	 -2.317538	 1.478239	 3.605147
H	 -3.077195	 0.746556	 2.220520
H	 -2.446573	 -0.707078	 4.838029
H	 -4.035505	 -0.168118	 4.326467
H	 -3.215197	 -1.442461	 3.443577

	symmetry c1
}
set optking {
	frozen_dihedral = ("
		10 7 4 8
	")
}

ee = optimize('scf')
oeprop('DIPOLE', 'QUADRUPOLE', 'MULLIKEN_CHARGES')
f=open( 'psi4out.xyz', 'w' )
f.write( "27  " )
f.write( str(ee) + "\n" )
f.write( MOL.save_string_xyz() )
f.close()
--------------------------------------------------------------------------

    Molecular point group: c1
  Charge       = 0
  Multiplicity = 1
  Basis Set: 6-31G*
  Basis Set:
  @DF-RHF Final Energy:  -388.24887683354848
    Total Energy =                       -388.2488768335477971
    Molecular point group: c1
  Basis Set: 6-31G*
  Basis Set:
  Basis Set: 6-31G*
  Basis Set:
  @DF-RHF Final Energy:  -388.26639026146000
    Total Energy =                       -388.2663902614599465
  Basis Set: 6-31G*
  Basis Set:
  Basis Set: 6-31G*
  Basis Set:
  @DF-RHF Final Energy:  -388.26942975677952
    Total Energy =                       -388.2694297567798003
  Basis Set: 6-31G*
  Basis Set:
  Basis Set: 6-31G*
  Basis Set:
  @DF-RHF Final Energy:  -388.26996892265078
    Total Energy =                       -388.2699689226515147
  Basis Set: 6-31G*
  Basis Set:
  @DF-RHF Final Energy:  -388.26995530083121
    Total Energy =                       -388.2699553008314979
  @DF-RHF Final Energy:  -388.27036061923212
    Total Energy =                       -388.2703606192322923
  @DF-RHF Final Energy:  -388.27037249907698
    Total Energy =                       -388.2703724990766432
  @DF-RHF Final Energy:  -388.27039021363373
    Total Energy =                       -388.2703902136337319
  Basis Set: 6-31G*
  Basis Set:
  @DF-RHF Final Energy:  -388.27040604829040
    Total Energy =                       -388.2704060482905106
  Basis Set: 6-31G*
  Basis Set:
  Basis Set: 6-31G*
  Basis Set:
  @DF-RHF Final Energy:  -388.27040709922858
    Total Energy =                       -388.2704070992282368
  Basis Set: 6-31G*
  Basis Set:
  Basis Set: 6-31G*
  Basis Set:
  @DF-RHF Final Energy:  -388.27040916997481
    Total Energy =                       -388.2704091699747551
  Basis Set: 6-31G*
  Basis Set:
  Charge       = 0
  Multiplicity = 1
  Basis Set: 6-31G*
  Basis Set:

    Orbital Energies (a.u.)
    -----------------------

    Doubly Occupied:

       1A    -20.549248     2A    -11.266420     3A    -11.223317
       4A    -11.218889     5A    -11.218729     6A    -11.217487
       7A    -11.216183     8A    -11.214613     9A    -11.210497
      10A     -1.356760    11A     -1.095391    12A     -1.058279
      13A     -1.011885    14A     -0.949248    15A     -0.892213
      16A     -0.828028    17A     -0.799280    18A     -0.774334
      19A     -0.693781    20A     -0.649186    21A     -0.639572
      22A     -0.618824    23A     -0.596566    24A     -0.581947
      25A     -0.568776    26A     -0.562215    27A     -0.547241
      28A     -0.524462    29A     -0.519955    30A     -0.498168
      31A     -0.479882    32A     -0.476414    33A     -0.465590
      34A     -0.463536    35A     -0.450295    36A     -0.438084
      37A     -0.420364

  @DF-RHF Final Energy:  -388.27040936137115

   => Energetics <=

    Nuclear Repulsion Energy =            464.6719571446203076
    One-Electron Energy =               -1447.2934146017037165
    Two-Electron Energy =                 594.3510480957114623
    DFT Exchange-Correlation Energy =       0.0000000000000000
    Empirical Dispersion Energy =           0.0000000000000000
    PCM Polarization Energy =               0.0000000000000000
    EFP Energy =                            0.0000000000000000
    Total Energy =                       -388.2704093613718896
    Molecular point group: c1
  Basis Set: 6-31G*
  Basis Set:

  -Total Gradient:
     Atom            X                  Y                   Z
    ------   -----------------  -----------------  -----------------
       1        0.000011283600    -0.000005757938    -0.000008093048
       2        0.000000131481    -0.000032326086     0.000024292236
       3        0.000001921648     0.000033712826    -0.000020869571
       4        0.000417838125     0.001162500061     0.000431710338
       5       -0.000001211586    -0.000001361424    -0.000001631736
       6       -0.000004111055     0.000000180555     0.000008606717
       7       -0.000187217301     0.000536317962    -0.001046247889
       8       -0.000318439769    -0.001137485561    -0.000096725881
       9        0.000004964944     0.000000077322     0.000004264744
      10        0.000080572768    -0.000535702521     0.000667764708
      11        0.000000754842    -0.000002855430     0.000006918957
      12       -0.000000119659    -0.000005851848    -0.000000957634
      13       -0.000001399570    -0.000012005526     0.000014822777
      14       -0.000003131641    -0.000005904937     0.000008578584
      15       -0.000018192009     0.000003204281     0.000006322859
      16        0.000010846424     0.000020456885     0.000021352109
      17        0.000015882306     0.000000770534    -0.000006505210
      18        0.000005157001     0.000000314363    -0.000001652554
      19       -0.000014712025    -0.000017500012    -0.000022770128
      20        0.000000735649    -0.000006928374     0.000009499848
      21       -0.000005906713     0.000007901739     0.000002964322
      22        0.000002910101     0.000003360092     0.000008296232
      23        0.000002010908    -0.000006393540    -0.000001548697
      24       -0.000001731657     0.000001378528    -0.000007422424
      25        0.000004371908    -0.000006012626    -0.000001636761
      26        0.000004132498     0.000004618993     0.000004303511
      27       -0.000007341226     0.000001291684    -0.000003636406

  **** Optimization is complete! (in 12 steps) ****
    Final optimized geometry and variables:
    Molecular point group: c1

    Geometry (in Angstrom), charge = 0, multiplicity = 1:

    H            2.661657986785     1.718153556609    -1.071020660632
    O            3.225372168151     1.143115586294    -1.564879577603
    C            3.116868538946    -0.170046631749    -1.076802166775
    C            1.929991979463    -0.945935009725    -1.643721245685
    H            4.024401904568    -0.672747387939    -1.387413818778
    H            3.109925853887    -0.177426899159     0.010412276407
    C            0.489103837679    -0.574834882788    -1.187643530784
    H            1.994013467221    -0.879287039680    -2.724930450094
    H            2.104390510730    -1.992259599337    -1.403110766151
    C            0.319343367700     0.622364884890    -0.242425833190
    H            0.054661025986    -1.447425370788    -0.711839503256
    H           -0.119264766825    -0.389367090921    -2.068124248438
    C           -1.126810282853     0.841364948479     0.223439017807
    H            0.954799866953     0.511207905619     0.633426886092
    H            0.638168749183     1.527788414777    -0.752346515185
    C           -1.659029562232    -0.210709647291     1.200606695450
    H           -1.186625120929     1.816285964299     0.702661754676
    H           -1.779714729134     0.892092017949    -0.646122543656
    C           -3.070628650935     0.104175506542     1.700680782483
    H           -0.984986178769    -0.281148477221     2.053250460072
    H           -1.663699539693    -1.191872968352     0.733251512736
    C           -3.606053801405    -0.943011873898     2.676537040603
    H           -3.073197419446     1.079928595059     2.181742378058
    H           -3.744405498988     0.182153487980     0.850036572762
    H           -2.970331044380    -1.022783896721     3.553907706851
    H           -4.606112806780    -0.690408398418     3.015065910885
    H           -3.652193210199    -1.924309789914     2.212673597932

  Mulliken Charges: (a.u.)
   Center  Symbol    Alpha    Beta     Spin     Total
       1     H     0.27639  0.27639  0.00000  0.44721
       2     O     4.37520  4.37520  0.00000 -0.75041
       3     C     2.99866  2.99866  0.00000  0.00267
       4     C     3.16702  3.16702  0.00000 -0.33405
       5     H     0.41530  0.41530  0.00000  0.16940
       6     H     0.43036  0.43036  0.00000  0.13928
       7     C     3.15825  3.15825  0.00000 -0.31651
       8     H     0.41190  0.41190  0.00000  0.17619
       9     H     0.42301  0.42301  0.00000  0.15398
      10     C     3.16534  3.16534  0.00000 -0.33068
      11     H     0.41804  0.41804  0.00000  0.16393
      12     H     0.41773  0.41773  0.00000  0.16454
      13     C     3.15267  3.15267  0.00000 -0.30533
      14     H     0.42287  0.42287  0.00000  0.15425
      15     H     0.42638  0.42638  0.00000  0.14725
      16     C     3.15296  3.15296  0.00000 -0.30591
      17     H     0.42122  0.42122  0.00000  0.15755
      18     H     0.42188  0.42188  0.00000  0.15623
      19     C     3.15140  3.15140  0.00000 -0.30280
      20     H     0.42462  0.42462  0.00000  0.15076
      21     H     0.42158  0.42158  0.00000  0.15684
      22     C     3.23932  3.23932  0.00000 -0.47863
      23     H     0.42296  0.42296  0.00000  0.15408
      24     H     0.42250  0.42250  0.00000  0.15499
      25     H     0.42179  0.42179  0.00000  0.15643
      26     H     0.41891  0.41891  0.00000  0.16219
      27     H     0.42173  0.42173  0.00000  0.15654

   Total alpha = 37.00000, Total beta = 37.00000, Total charge =  0.00000
