  ==> Input File <==

--------------------------------------------------------------------------
set {
	reference rhf
	basis cc-pvtz
}

set_num_threads( 4 )
memory 2 gb

molecule MOL {
0 1

H	 -0.000105	 1.988529	 0.748933
O	 -0.000098	 1.879786	 -0.188206
C	 -0.000014	 0.545691	 -0.532416
C	 -1.286000	 -0.125171	 -0.046657
C	 1.286016	 -0.125031	 -0.046584
H	 0.000021	 0.481103	 -1.610604
F	 -2.218963	 0.017495	 -0.955550
F	 -1.127899	 -1.406593	 0.169385
F	 -1.723693	 0.426920	 1.064646
F	 2.317750	 0.468717	 -0.594166
F	 1.336617	 -1.393765	 -0.365123
F	 1.414467	 -0.024806	 1.259108

	symmetry c1
}
set optking {
	frozen_dihedral = ("
		7 4 3 6
	")
}

ee = optimize('scf')
oeprop('DIPOLE', 'QUADRUPOLE', 'MULLIKEN_CHARGES')
f=open( 'psi4out.xyz', 'w' )
f.write( "12  " )
f.write( str(ee) + "\n" )
f.write( MOL.save_string_xyz() )
f.close()
--------------------------------------------------------------------------

    Molecular point group: c1
  Charge       = 0
  Multiplicity = 1
  Basis Set: CC-PVTZ
  Basis Set:
  @DF-RHF Final Energy:  -786.58615906748946
    Total Energy =                       -786.5861590674892341
    Molecular point group: c1
  Basis Set: CC-PVTZ
  Basis Set:
  Basis Set: CC-PVTZ
  Basis Set:
  @DF-RHF Final Energy:  -786.58693986440130
    Total Energy =                       -786.5869398644013017
  Basis Set: CC-PVTZ
  Basis Set:
  Basis Set: CC-PVTZ
  Basis Set:
  @DF-RHF Final Energy:  -786.58718259323621
    Total Energy =                       -786.5871825932362071
  Basis Set: CC-PVTZ
  Basis Set:
  Basis Set: CC-PVTZ
  Basis Set:
  @DF-RHF Final Energy:  -786.58722706219658
    Total Energy =                       -786.5872270621965754
  Basis Set: CC-PVTZ
  Basis Set:
  Basis Set: CC-PVTZ
  Basis Set:
  @DF-RHF Final Energy:  -786.58723483381141
    Total Energy =                       -786.5872348338109532
  Basis Set: CC-PVTZ
  Basis Set:
  Basis Set: CC-PVTZ
  Basis Set:
  @DF-RHF Final Energy:  -786.58723712684684
    Total Energy =                       -786.5872371268474126
  Basis Set: CC-PVTZ
  Basis Set:
  Charge       = 0
  Multiplicity = 1
  Basis Set: CC-PVTZ
  Basis Set:

    Orbital Energies (a.u.)
    -----------------------

    Doubly Occupied:

       1A    -26.361535     2A    -26.357675     3A    -26.356712
       4A    -26.355892     5A    -26.355432     6A    -26.352781
       7A    -20.608321     8A    -11.522157     9A    -11.518238
      10A    -11.351417    11A     -1.772709    12A     -1.766176
      13A     -1.667990    14A     -1.664409    15A     -1.663480
      16A     -1.659964    17A     -1.438149    18A     -1.101624
      19A     -1.001905    20A     -0.944633    21A     -0.872343
      22A     -0.868190    23A     -0.858725    24A     -0.853551
      25A     -0.840964    26A     -0.822440    27A     -0.744929
      28A     -0.736525    29A     -0.732349    30A     -0.728812
      31A     -0.695587    32A     -0.692253    33A     -0.688395
      34A     -0.683170    35A     -0.676820    36A     -0.667623
      37A     -0.664947    38A     -0.654835    39A     -0.624828
      40A     -0.554168    41A     -0.509380

  @DF-RHF Final Energy:  -786.58723739761263

   => Energetics <=

    Nuclear Repulsion Energy =            670.6781889585126919
    One-Electron Energy =               -2428.5467860165254024
    Two-Electron Energy =                 971.2813596603998576
    DFT Exchange-Correlation Energy =       0.0000000000000000
    Empirical Dispersion Energy =           0.0000000000000000
    PCM Polarization Energy =               0.0000000000000000
    EFP Energy =                            0.0000000000000000
    Total Energy =                       -786.5872373976128529
    Molecular point group: c1
  Basis Set: CC-PVTZ
  Basis Set:

  -Total Gradient:
     Atom            X                  Y                   Z
    ------   -----------------  -----------------  -----------------
       1       -0.000000175813     0.000014775551     0.000009149687
       2        0.000009312453    -0.000024648189     0.000008692434
       3        0.002919366159    -0.005999561097    -0.000154918757
       4       -0.001735454275     0.005278169771     0.002080404792
       5        0.000019698924     0.000012551134    -0.000063778360
       6       -0.002177703353     0.004138402793    -0.000263352248
       7        0.001014077879    -0.003411579964    -0.001626615353
       8       -0.000005222739     0.000001306541    -0.000009957107
       9       -0.000016400225    -0.000004753179    -0.000030164785
      10       -0.000012186829     0.000022907680     0.000008157758
      11       -0.000009573869    -0.000010238565     0.000028584354
      12       -0.000005738312    -0.000017332468     0.000013797598

  **** Optimization is complete! (in 7 steps) ****
    Final optimized geometry and variables:
    Molecular point group: c1

    Geometry (in Angstrom), charge = 0, multiplicity = 1:

    H           -0.058098454727     2.036456962231     0.660704188942
    O            0.019117197329     1.883871103727    -0.266494415417
    C            0.007591387365     0.535355487957    -0.555641263243
    C           -1.285755064730    -0.111985635419    -0.027728228743
    C            1.285843648381    -0.134724803474    -0.054365278352
    H           -0.013510105282     0.458477423140    -1.631730656094
    F           -2.245131814518     0.027851226843    -0.910866095552
    F           -1.150879409096    -1.395809531791     0.200972545036
    F           -1.673792277981     0.453143372828     1.092529109263
    F            2.328999547424     0.536709365761    -0.471915757505
    F            1.399333255937    -1.362991986737    -0.493791376560
    F            1.324323536543    -0.159617730621     1.261760057379

  Mulliken Charges: (a.u.)
   Center  Symbol    Alpha    Beta     Spin     Total
       1     H     0.38073  0.38073  0.00000  0.23853
       2     O     4.18900  4.18900  0.00000 -0.37799
       3     C     3.01548  3.01548  0.00000 -0.03095
       4     C     2.67690  2.67690  0.00000  0.64619
       5     C     2.68119  2.68119  0.00000  0.63763
       6     H     0.42526  0.42526  0.00000  0.14947
       7     F     4.60361  4.60361  0.00000 -0.20721
       8     F     4.60223  4.60223  0.00000 -0.20446
       9     F     4.60937  4.60937  0.00000 -0.21873
      10     F     4.60069  4.60069  0.00000 -0.20139
      11     F     4.60392  4.60392  0.00000 -0.20785
      12     F     4.61162  4.61162  0.00000 -0.22324

   Total alpha = 41.00000, Total beta = 41.00000, Total charge =  0.00000
