  ==> Input File <==

--------------------------------------------------------------------------
set {
	reference rhf
	basis cc-pvtz
}

set_num_threads( 4 )
memory 2 gb

molecule MOL {
0 1

H	 -2.791114	 -0.545336	 1.016705
C	 -2.709839	 -0.194967	 -0.009706
O	 -1.383562	 -0.051985	 -0.394527
H	 -3.166968	 -0.923781	 -0.662968
H	 -3.255060	 0.743119	 -0.096964
C	 -0.664299	 0.869554	 0.357180
C	 0.779974	 0.866083	 -0.076882
H	 -1.072244	 1.870634	 0.217930
H	 -0.719801	 0.629172	 1.416692
O	 1.401606	 -0.295166	 0.366636
H	 0.827584	 0.938103	 -1.161307
H	 1.275924	 1.742478	 0.340176
C	 2.714315	 -0.441627	 -0.061017
H	 2.765292	 -0.641548	 -1.128869
H	 3.305661	 0.447341	 0.150952
H	 3.143725	 -1.278506	 0.470147

	symmetry c1
}
set optking {
	frozen_dihedral = ("
		7 10 13 14
	")
}

ee = optimize('scf')
oeprop('DIPOLE', 'QUADRUPOLE', 'MULLIKEN_CHARGES')
f=open( 'psi4out.xyz', 'w' )
f.write( "16  " )
f.write( str(ee) + "\n" )
f.write( MOL.save_string_xyz() )
f.close()
--------------------------------------------------------------------------

    Molecular point group: c1
  Charge       = 0
  Multiplicity = 1
  Basis Set: CC-PVTZ
  Basis Set:
  @DF-RHF Final Energy:  -307.09775655070723
    Total Energy =                       -307.0977565507073450
    Molecular point group: c1
  Basis Set: CC-PVTZ
  Basis Set:
  Basis Set: CC-PVTZ
  Basis Set:
  @DF-RHF Final Energy:  -307.09776422202964
    Total Energy =                       -307.0977642220295252
  Basis Set: CC-PVTZ
  Basis Set:
  Charge       = 0
  Multiplicity = 1
  Basis Set: CC-PVTZ
  Basis Set:

    Orbital Energies (a.u.)
    -----------------------

    Doubly Occupied:

       1A    -20.547844     2A    -20.547636     3A    -11.267576
       4A    -11.266896     5A    -11.261623     6A    -11.261555
       7A     -1.391659     8A     -1.374451     9A     -1.032085
      10A     -0.937234    11A     -0.892202    12A     -0.824357
      13A     -0.686449    14A     -0.682822    15A     -0.659372
      16A     -0.637866    17A     -0.632417    18A     -0.598426
      19A     -0.550728    20A     -0.536944    21A     -0.509576
      22A     -0.479696    23A     -0.464776    24A     -0.423051
      25A     -0.413754

  @DF-RHF Final Energy:  -307.09776483078713

   => Energetics <=

    Nuclear Repulsion Energy =            258.8972633215430506
    One-Electron Energy =                -932.2280666760668737
    Two-Electron Energy =                 366.2330385237364112
    DFT Exchange-Correlation Energy =       0.0000000000000000
    Empirical Dispersion Energy =           0.0000000000000000
    PCM Polarization Energy =               0.0000000000000000
    EFP Energy =                            0.0000000000000000
    Total Energy =                       -307.0977648307874119
    Molecular point group: c1
  Basis Set: CC-PVTZ
  Basis Set:

  -Total Gradient:
     Atom            X                  Y                   Z
    ------   -----------------  -----------------  -----------------
       1       -0.000000051691     0.000000017156     0.000000420104
       2        0.000002492125     0.000000746456    -0.000000323348
       3       -0.000004767055    -0.000000995831     0.000002620028
       4        0.000000868399     0.000000260250    -0.000000052511
       5        0.000000162985     0.000000484563    -0.000000142281
       6       -0.000000423683    -0.000003155346    -0.000013834495
       7        0.000319377728     0.000503328509     0.000873826601
       8        0.000001316152     0.000000101690    -0.000003980237
       9        0.000004775097    -0.000000198215    -0.000000018885
      10       -0.000449406818    -0.001022855428    -0.001129491076
      11       -0.000003954058    -0.000007504405    -0.000004613644
      12       -0.000007162868     0.000009998535    -0.000008027184
      13        0.000197500572     0.001775156877     0.000048062108
      14       -0.000060511129    -0.001264640473     0.000228111857
      15       -0.000016148043     0.000008138995     0.000024664849
      16        0.000015932287     0.000001116667    -0.000017221884

  **** Optimization is complete! (in 3 steps) ****
    Final optimized geometry and variables:
    Molecular point group: c1

    Geometry (in Angstrom), charge = 0, multiplicity = 1:

    H           -2.813229348711    -0.665506090790     0.986618304200
    C           -2.731995083154    -0.315475298152    -0.039897801485
    O           -1.405733284172    -0.171098847867    -0.424282772475
    H           -3.188039305435    -1.045056551509    -0.693051006779
    H           -3.278234880927     0.621969185689    -0.127747623354
    C           -0.687787295849     0.751442475604     0.327414400548
    C            0.756647541798     0.749472647638    -0.105899902685
    H           -1.096806372397     1.752060854013     0.187790998853
    H           -0.743285297311     0.511181524013     1.386947247565
    O            1.379644711355    -0.410326222131     0.340038103009
    H            0.803869173161     0.820917320637    -1.190503756799
    H            1.251782373185     1.626338758726     0.310597507420
    C            2.691197281227    -0.560028074031    -0.091265092597
    H            2.737650960442    -0.764519403296    -1.158398893364
    H            3.288110372668     0.324226817598     0.122263798001
    H            3.118092194530    -1.400645201070     0.436706396009

  Mulliken Charges: (a.u.)
   Center  Symbol    Alpha    Beta     Spin     Total
       1     H     0.47017  0.47017  0.00000  0.05967
       2     C     3.03198  3.03198  0.00000 -0.06396
       3     O     4.17054  4.17054  0.00000 -0.34108
       4     H     0.44635  0.44635  0.00000  0.10731
       5     H     0.47368  0.47368  0.00000  0.05265
       6     C     2.96067  2.96067  0.00000  0.07865
       7     C     2.96045  2.96045  0.00000  0.07910
       8     H     0.47606  0.47606  0.00000  0.04788
       9     H     0.47079  0.47079  0.00000  0.05843
      10     O     4.17084  4.17084  0.00000 -0.34168
      11     H     0.47130  0.47130  0.00000  0.05741
      12     H     0.47543  0.47543  0.00000  0.04915
      13     C     3.03186  3.03186  0.00000 -0.06372
      14     H     0.46800  0.46800  0.00000  0.06399
      15     H     0.47470  0.47470  0.00000  0.05059
      16     H     0.44719  0.44719  0.00000  0.10562

   Total alpha = 25.00000, Total beta = 25.00000, Total charge =  0.00000
