  ==> Input File <==

--------------------------------------------------------------------------
set {
	reference rhf
	basis 6-31G*
}

set_num_threads( 1 )
memory 2 gb

molecule MOL {
0 1

H	 -3.135461	 -1.215070	 0.001379
O	 -2.310168	 -0.871793	 -0.309793
C	 -2.026376	 0.340750	 0.341611
C	 -0.673256	 0.843270	 -0.132153
H	 -2.792215	 1.080697	 0.115987
H	 -2.013526	 0.200402	 1.421792
C	 0.486613	 -0.083066	 0.235839
H	 -0.715586	 0.970948	 -1.210718
H	 -0.508072	 1.829858	 0.297090
C	 1.740724	 0.170346	 -0.602495
H	 0.170040	 -1.114073	 0.116174
H	 0.728134	 0.046530	 1.290217
C	 2.901689	 -0.751418	 -0.230764
H	 1.501107	 0.040444	 -1.655789
H	 2.052122	 1.206684	 -0.486406
H	 2.632592	 -1.794578	 -0.369672
H	 3.776014	 -0.550728	 -0.842502
H	 3.188570	 -0.620890	 0.809030

	symmetry c1
}
set optking {
	frozen_dihedral = ("
		14 10 7 11,
		2 3 4 8,
		1 2 3 4
	")
}

ee = energy('scf')
oeprop('DIPOLE', 'QUADRUPOLE', 'MULLIKEN_CHARGES')
f=open( 'psi4out.xyz', 'w' )
f.write( "18  " )
f.write( str(ee) + "\n" )
f.write( MOL.save_string_xyz() )
f.close()
--------------------------------------------------------------------------

    Molecular point group: c1

    Geometry (in Angstrom), charge = 0, multiplicity = 1:

       Center              X                  Y                   Z               Mass
    ------------   -----------------  -----------------  -----------------  -----------------
           H         -3.102808981025    -1.128511691262     0.116354914894     1.007825032070
           O         -2.277515981025    -0.785234691262    -0.194817085106    15.994914619560
           C         -1.993723981025     0.427308308738     0.456586914894    12.000000000000
           C         -0.640603981025     0.929828308738    -0.017177085106    12.000000000000
           H         -2.759562981025     1.167255308738     0.230962914894     1.007825032070
           H         -1.980873981025     0.286960308738     1.536767914894     1.007825032070
           C          0.519265018975     0.003492308738     0.350814914894    12.000000000000
           H         -0.682933981025     1.057506308738    -1.095742085106     1.007825032070
           H         -0.475419981025     1.916416308738     0.412065914894     1.007825032070
           C          1.773376018975     0.256904308738    -0.487519085106    12.000000000000
           H          0.202692018975    -1.027514691262     0.231149914894     1.007825032070
           H          0.760786018975     0.133088308738     1.405192914894     1.007825032070
           C          2.934341018975    -0.664859691262    -0.115788085106    12.000000000000
           H          1.533759018975     0.127002308738    -1.540813085106     1.007825032070
           H          2.084774018975     1.293242308738    -0.371430085106     1.007825032070
           H          2.665244018975    -1.708019691262    -0.254696085106     1.007825032070
           H          3.808666018975    -0.464169691262    -0.727526085106     1.007825032070
           H          3.221222018975    -0.534331691262     0.924005914894     1.007825032070

  Charge       = 0
  Multiplicity = 1
  Basis Set: 6-31G*
  Basis Set:

    Orbital Energies (a.u.)
    -----------------------

    Doubly Occupied:

       1A    -20.553483     2A    -11.268200     3A    -11.211585
       4A    -11.209970     5A    -11.205551     6A    -11.203771
       7A     -1.360230     8A     -1.074215     9A     -1.008311
      10A     -0.912768    11A     -0.817280    12A     -0.783521
      13A     -0.705990    14A     -0.637581    15A     -0.627745
      16A     -0.580751    17A     -0.569420    18A     -0.558837
      19A     -0.521587    20A     -0.497063    21A     -0.490530
      22A     -0.467572    23A     -0.457176    24A     -0.446592
      25A     -0.428762

  @DF-RHF Final Energy:  -271.17886025856308

   => Energetics <=

    Nuclear Repulsion Energy =            249.5828092100529148
    One-Electron Energy =                -862.3264908988464867
    Two-Electron Energy =                 341.5648214302302108
    DFT Exchange-Correlation Energy =       0.0000000000000000
    Empirical Dispersion Energy =           0.0000000000000000
    PCM Polarization Energy =               0.0000000000000000
    EFP Energy =                            0.0000000000000000
    Total Energy =                       -271.1788602585633612

  Mulliken Charges: (a.u.)
   Center  Symbol    Alpha    Beta     Spin     Total
       1     H     0.28045  0.28045  0.00000  0.43910
       2     O     4.36927  4.36927  0.00000 -0.73854
       3     C     2.99805  2.99805  0.00000  0.00389
       4     C     3.16033  3.16033  0.00000 -0.32066
       5     H     0.42918  0.42918  0.00000  0.14165
       6     H     0.43278  0.43278  0.00000  0.13444
       7     C     3.15553  3.15553  0.00000 -0.31105
       8     H     0.41506  0.41506  0.00000  0.16988
       9     H     0.42330  0.42330  0.00000  0.15340
      10     C     3.15216  3.15216  0.00000 -0.30432
      11     H     0.40674  0.40674  0.00000  0.18652
      12     H     0.42718  0.42718  0.00000  0.14565
      13     C     3.23919  3.23919  0.00000 -0.47838
      14     H     0.42115  0.42115  0.00000  0.15770
      15     H     0.42539  0.42539  0.00000  0.14923
      16     H     0.42080  0.42080  0.00000  0.15839
      17     H     0.42043  0.42043  0.00000  0.15914
      18     H     0.42302  0.42302  0.00000  0.15396

   Total alpha = 25.00000, Total beta = 25.00000, Total charge =  0.00000
