  ==> Input File <==

--------------------------------------------------------------------------
set {
	reference rhf
	basis 6-31G*
}

set_num_threads( 4 )
memory 2 gb

molecule MOL {
0 1

H	 3.710082	 -1.212750	 -2.252280
C	 3.216570	 -1.231468	 -1.285923
C	 1.942370	 -0.388198	 -1.302488
H	 2.997795	 -2.268597	 -1.047750
H	 3.923886	 -0.865109	 -0.547186
C	 1.217350	 -0.386724	 0.039429
H	 1.260368	 -0.754413	 -2.063506
H	 2.191837	 0.635533	 -1.576594
N	 0.000003	 0.397874	 -0.023260
H	 0.945113	 -1.405792	 0.300868
H	 1.898099	 -0.037826	 0.823158
C	 -1.217365	 -0.386708	 0.039277
H	 -0.000031	 1.072115	 0.718656
C	 -2.452633	 0.504241	 -0.042481
H	 -1.215291	 -1.074557	 -0.802042
H	 -1.269739	 -1.003477	 0.942735
C	 -3.758029	 -0.289423	 -0.010781
H	 -2.394220	 1.093569	 -0.952170
H	 -2.440793	 1.210787	 0.785871
H	 -3.816659	 -0.981993	 -0.845726
H	 -4.617837	 0.370165	 -0.069296
H	 -3.847478	 -0.867502	 0.904682

	symmetry c1
}
set optking {
	frozen_dihedral = ("
		10 6 9 12
	")
}

ee = optimize('scf')
oeprop('DIPOLE', 'QUADRUPOLE', 'MULLIKEN_CHARGES')
f=open( 'psi4out.xyz', 'w' )
f.write( "22  " )
f.write( str(ee) + "\n" )
f.write( MOL.save_string_xyz() )
f.close()
--------------------------------------------------------------------------

    Molecular point group: c1
  Charge       = 0
  Multiplicity = 1
  Basis Set: 6-31G*
  Basis Set:
  @DF-RHF Final Energy:  -290.37834990297148
    Total Energy =                       -290.3783499029715358
    Molecular point group: c1
  Basis Set: 6-31G*
  Basis Set:
  Basis Set: 6-31G*
  Basis Set:
  @DF-RHF Final Energy:  -290.37900010755931
    Total Energy =                       -290.3790001075593068
  Basis Set: 6-31G*
  Basis Set:
  Basis Set: 6-31G*
  Basis Set:
  @DF-RHF Final Energy:  -290.37918222225613
    Total Energy =                       -290.3791822222563042
  Basis Set: 6-31G*
  Basis Set:
  Basis Set: 6-31G*
  Basis Set:
  @DF-RHF Final Energy:  -290.37918383593734
    Total Energy =                       -290.3791838359373969
  Basis Set: 6-31G*
  Basis Set:
  Basis Set: 6-31G*
  Basis Set:
  @DF-RHF Final Energy:  -290.37918706865042
    Total Energy =                       -290.3791870686503671
  Basis Set: 6-31G*
  Basis Set:
  Charge       = 0
  Multiplicity = 1
  Basis Set: 6-31G*
  Basis Set:

    Orbital Energies (a.u.)
    -----------------------

    Doubly Occupied:

       1A    -15.532093     2A    -11.238921     3A    -11.238507
       4A    -11.213433     5A    -11.209851     6A    -11.206211
       7A    -11.205593     8A     -1.201635     9A     -1.056313
      10A     -1.024551    11A     -0.927553    12A     -0.870926
      13A     -0.804518    14A     -0.792633    15A     -0.667469
      16A     -0.634512    17A     -0.613309    18A     -0.597817
      19A     -0.580746    20A     -0.556803    21A     -0.542256
      22A     -0.521652    23A     -0.502832    24A     -0.489262
      25A     -0.481710    26A     -0.471056    27A     -0.464536
      28A     -0.452036    29A     -0.354582

  @DF-RHF Final Energy:  -290.37918716855359

   => Energetics <=

    Nuclear Repulsion Energy =            314.6572100377212564
    One-Electron Energy =               -1015.1661557546291306
    Two-Electron Energy =                 410.1297585483547437
    DFT Exchange-Correlation Energy =       0.0000000000000000
    Empirical Dispersion Energy =           0.0000000000000000
    PCM Polarization Energy =               0.0000000000000000
    EFP Energy =                            0.0000000000000000
    Total Energy =                       -290.3791871685531305
    Molecular point group: c1
  Basis Set: 6-31G*
  Basis Set:

  -Total Gradient:
     Atom            X                  Y                   Z
    ------   -----------------  -----------------  -----------------
       1        0.000002481348     0.000002903934     0.000002118139
       2        0.000005003529     0.000009290955     0.000000851399
       3       -0.000014663741    -0.000013216366    -0.000001084843
       4       -0.000002957043    -0.000001547982    -0.000004557232
       5       -0.000004192547    -0.000003077199     0.000000861549
       6        0.000246639338     0.000558828048     0.002895513112
       7        0.000001036614    -0.000001551414    -0.000001671064
       8        0.000003218091    -0.000000292071    -0.000002364422
       9       -0.000067967372    -0.000253443333    -0.002528988867
      10       -0.000195477960    -0.000404880191    -0.001811216055
      11        0.000000935427     0.000003527093     0.000010128946
      12        0.000030537095     0.000100713043     0.001430814663
      13        0.000003371084     0.000010291460     0.000003762683
      14        0.000001576477    -0.000001070802     0.000001699650
      15       -0.000006818238    -0.000003904823     0.000001587827
      16       -0.000002829489     0.000001484737    -0.000000090661
      17       -0.000003226035    -0.000000132105     0.000001045720
      18        0.000002383638    -0.000003239190     0.000001415189
      19        0.000000636975    -0.000001102741    -0.000000119946
      20        0.000000917820     0.000000359925     0.000000015889
      21       -0.000000632910    -0.000000033843     0.000000066993
      22        0.000000027899     0.000000092864     0.000000211331

  **** Optimization is complete! (in 6 steps) ****
    Final optimized geometry and variables:
    Molecular point group: c1

    Geometry (in Angstrom), charge = 0, multiplicity = 1:

    H            3.895624074891    -0.903553656381    -1.895445918901
    C            3.391794487898    -0.949077356375    -0.935156014842
    C            2.111037629870    -0.115582097829    -0.942424690232
    H            3.182642676690    -1.994322092630    -0.722911514247
    H            4.089703316666    -0.594364150256    -0.181097678306
    C            1.373366772530    -0.149087469500     0.395125559550
    H            1.440739286751    -0.472973240789    -1.719973367496
    H            2.338607355021     0.917779615673    -1.187400432641
    N            0.143855956942     0.635806959718     0.353477421506
    H            1.157409981246    -1.185943042431     0.650838468888
    H            2.028524274165     0.231188234075     1.174906807006
    C           -1.084373073814    -0.132361346041     0.424753160561
    H            0.147374972802     1.321598791343     1.080955552428
    C           -2.305928672868     0.772973592717     0.308801876496
    H           -1.086820828324    -0.841148454899    -0.398841725686
    H           -1.153310809521    -0.724707812512     1.342774482762
    C           -3.622956469190    -0.000410817564     0.357492500642
    H           -2.233744119999     1.333866340791    -0.617723210941
    H           -2.287684918698     1.504150649001     1.115495416735
    H           -3.687168886587    -0.717903329571    -0.455705235555
    H           -4.472639817502     0.669428325674     0.273162167189
    H           -3.726099702427    -0.548112832031     1.290050414281

  Mulliken Charges: (a.u.)
   Center  Symbol    Alpha    Beta     Spin     Total
       1     H     0.41810  0.41810  0.00000  0.16381
       2     C     3.24630  3.24630  0.00000 -0.49259
       3     C     3.14052  3.14052  0.00000 -0.28103
       4     H     0.42291  0.42291  0.00000  0.15418
       5     H     0.42325  0.42325  0.00000  0.15349
       6     C     3.05809  3.05809  0.00000 -0.11618
       7     H     0.42206  0.42206  0.00000  0.15588
       8     H     0.41968  0.41968  0.00000  0.16065
       9     N     3.85893  3.85893  0.00000 -0.71787
      10     H     0.42707  0.42707  0.00000  0.14586
      11     H     0.42538  0.42538  0.00000  0.14924
      12     C     3.04940  3.04940  0.00000 -0.09881
      13     H     0.33215  0.33215  0.00000  0.33570
      14     C     3.15551  3.15551  0.00000 -0.31103
      15     H     0.42177  0.42177  0.00000  0.15646
      16     H     0.43563  0.43563  0.00000  0.12874
      17     C     3.24331  3.24331  0.00000 -0.48662
      18     H     0.41294  0.41294  0.00000  0.17412
      19     H     0.42681  0.42681  0.00000  0.14638
      20     H     0.42077  0.42077  0.00000  0.15846
      21     H     0.41767  0.41767  0.00000  0.16466
      22     H     0.42174  0.42174  0.00000  0.15651

   Total alpha = 29.00000, Total beta = 29.00000, Total charge = -0.00000
