  ==> Input File <==

--------------------------------------------------------------------------
set {
	reference rhf
	basis 6-31G*
}

set_num_threads( 4 )
memory 2 gb

molecule MOL {
0 1

H	 2.609894	 -2.548674	 2.392036
C	 2.582373	 -1.996192	 1.458357
C	 1.296612	 -1.178964	 1.340379
H	 3.458979	 -1.355161	 1.428896
H	 2.670746	 -2.713957	 0.647648
C	 1.217350	 -0.386724	 0.039429
H	 1.214912	 -0.486496	 2.172367
H	 0.438758	 -1.846077	 1.406998
N	 0.000003	 0.397874	 -0.023260
H	 2.059483	 0.297963	 -0.015159
H	 1.317793	 -1.068809	 -0.811481
C	 -1.217365	 -0.386708	 0.039277
H	 -0.000031	 1.072115	 0.718656
C	 -2.452633	 0.504241	 -0.042481
H	 -1.215291	 -1.074557	 -0.802042
H	 -1.269739	 -1.003477	 0.942735
C	 -3.758029	 -0.289423	 -0.010781
H	 -2.394220	 1.093569	 -0.952170
H	 -2.440793	 1.210787	 0.785871
H	 -3.816659	 -0.981993	 -0.845726
H	 -4.617837	 0.370165	 -0.069296
H	 -3.847478	 -0.867502	 0.904682

	symmetry c1
}
set optking {
	frozen_dihedral = ("
		10 6 9 12
	")
}

ee = optimize('scf')
oeprop('DIPOLE', 'QUADRUPOLE', 'MULLIKEN_CHARGES')
f=open( 'psi4out.xyz', 'w' )
f.write( "22  " )
f.write( str(ee) + "\n" )
f.write( MOL.save_string_xyz() )
f.close()
--------------------------------------------------------------------------

    Molecular point group: c1
  Charge       = 0
  Multiplicity = 1
  Basis Set: 6-31G*
  Basis Set:
  @DF-RHF Final Energy:  -290.37674340416555
    Total Energy =                       -290.3767434041661204
    Molecular point group: c1
  Basis Set: 6-31G*
  Basis Set:
  Basis Set: 6-31G*
  Basis Set:
  @DF-RHF Final Energy:  -290.37885075836340
    Total Energy =                       -290.3788507583632281
  Basis Set: 6-31G*
  Basis Set:
  Basis Set: 6-31G*
  Basis Set:
  @DF-RHF Final Energy:  -290.38057843626189
    Total Energy =                       -290.3805784362614872
  Basis Set: 6-31G*
  Basis Set:
  Basis Set: 6-31G*
  Basis Set:
  @DF-RHF Final Energy:  -290.38072816214543
    Total Energy =                       -290.3807281621450898
  Basis Set: 6-31G*
  Basis Set:
  Basis Set: 6-31G*
  Basis Set:
  @DF-RHF Final Energy:  -290.38073922017037
    Total Energy =                       -290.3807392201704261
  Basis Set: 6-31G*
  Basis Set:
  Basis Set: 6-31G*
  Basis Set:
  @DF-RHF Final Energy:  -290.38074129965452
    Total Energy =                       -290.3807412996542325
  Basis Set: 6-31G*
  Basis Set:
  Charge       = 0
  Multiplicity = 1
  Basis Set: 6-31G*
  Basis Set:

    Orbital Energies (a.u.)
    -----------------------

    Doubly Occupied:

       1A    -15.532979     2A    -11.238599     3A    -11.237616
       4A    -11.213450     5A    -11.211673     6A    -11.210956
       7A    -11.208738     8A     -1.202813     9A     -1.056706
      10A     -1.026660    11A     -0.929224    12A     -0.872159
      13A     -0.809433    14A     -0.794733    15A     -0.667208
      16A     -0.632033    17A     -0.614955    18A     -0.600616
      19A     -0.579750    20A     -0.556371    21A     -0.541975
      22A     -0.521884    23A     -0.504055    24A     -0.495683
      25A     -0.484332    26A     -0.469308    27A     -0.467732
      28A     -0.461295    29A     -0.351718

  @DF-RHF Final Energy:  -290.38074205600952

   => Energetics <=

    Nuclear Repulsion Energy =            316.9802368752570487
    One-Electron Energy =               -1019.7326500354707832
    Two-Electron Energy =                 412.3716711042039833
    DFT Exchange-Correlation Energy =       0.0000000000000000
    Empirical Dispersion Energy =           0.0000000000000000
    PCM Polarization Energy =               0.0000000000000000
    EFP Energy =                            0.0000000000000000
    Total Energy =                       -290.3807420560098080
    Molecular point group: c1
  Basis Set: 6-31G*
  Basis Set:

  -Total Gradient:
     Atom            X                  Y                   Z
    ------   -----------------  -----------------  -----------------
       1       -0.000013610962     0.000007304830    -0.000003802235
       2       -0.000004307626     0.000009036274    -0.000022362842
       3       -0.000006685936    -0.000007147505     0.000025724637
       4        0.000005017678     0.000001327767     0.000005933534
       5        0.000004862149    -0.000000018640    -0.000002772994
       6       -0.000008964174    -0.000089735280    -0.001417753017
       7       -0.000003027653     0.000005383491    -0.000007767857
       8       -0.000010111860    -0.000004004832     0.000003433513
       9       -0.000006573572    -0.000170754415    -0.001498680530
      10        0.000016953620     0.000134534442     0.001627995791
      11        0.000009021252    -0.000008067138    -0.000004163869
      12        0.000022043159     0.000127535877     0.001283854877
      13        0.000007112678    -0.000000031198    -0.000002286577
      14       -0.000002990431    -0.000004016958     0.000003827826
      15       -0.000003159423    -0.000005663909    -0.000000191661
      16        0.000002894280    -0.000004334611     0.000011104468
      17       -0.000001635541     0.000000376411    -0.000000271140
      18       -0.000003385908     0.000004475046    -0.000001274737
      19       -0.000003155494     0.000003125545    -0.000000796356
      20        0.000000601151     0.000000541832     0.000001864440
      21       -0.000000733961    -0.000000465164    -0.000000806995
      22       -0.000000163429     0.000000598135    -0.000000808276

  **** Optimization is complete! (in 7 steps) ****
    Final optimized geometry and variables:
    Molecular point group: c1

    Geometry (in Angstrom), charge = 0, multiplicity = 1:

    H            3.213083405499    -2.109729080833     1.834752020241
    C            3.082482736098    -1.487926903460     0.954898761381
    C            1.716927494849    -0.800590669333     0.959042177670
    H            3.889614109924    -0.760750779964     0.941424041821
    H            3.198446308808    -2.124151828622     0.081781144285
    C            1.510141792777     0.079716354749    -0.280136108352
    H            1.620414032126    -0.186212449837     1.852914616705
    H            0.937290888609    -1.554664408937     1.017478166557
    N            0.285364202462     0.856688971547    -0.337231152797
    H            2.336541653705     0.782461046203    -0.341538164659
    H            1.558684551287    -0.538574966965    -1.172973729068
    C           -0.957798264785     0.112064260325    -0.270311472660
    H            0.296736570069     1.560594597206     0.375749994289
    C           -2.148332477360     1.020552627517    -0.562565693232
    H           -0.914684378461    -0.674382302795    -1.019816814499
    H           -1.112655421781    -0.384000321793     0.690564338548
    C           -3.483812152284     0.279071347055    -0.521083174862
    H           -2.002390482142     1.479157737366    -1.535318235294
    H           -2.164182392873     1.832608248382     0.162497631807
    H           -3.512095341505    -0.520679935971    -1.255971361685
    H           -4.310175553838     0.949897531940    -0.733181028209
    H           -3.661012070527    -0.163621995196     0.455184737658

  Mulliken Charges: (a.u.)
   Center  Symbol    Alpha    Beta     Spin     Total
       1     H     0.41782  0.41782  0.00000  0.16436
       2     C     3.24314  3.24314  0.00000 -0.48627
       3     C     3.16081  3.16081  0.00000 -0.32163
       4     H     0.42140  0.42140  0.00000  0.15721
       5     H     0.42080  0.42080  0.00000  0.15840
       6     C     3.05265  3.05265  0.00000 -0.10531
       7     H     0.42661  0.42661  0.00000  0.14677
       8     H     0.42014  0.42014  0.00000  0.15971
       9     N     3.85462  3.85462  0.00000 -0.70924
      10     H     0.41985  0.41985  0.00000  0.16031
      11     H     0.42080  0.42080  0.00000  0.15841
      12     C     3.05295  3.05295  0.00000 -0.10590
      13     H     0.33535  0.33535  0.00000  0.32929
      14     C     3.15163  3.15163  0.00000 -0.30325
      15     H     0.42275  0.42275  0.00000  0.15450
      16     H     0.43347  0.43347  0.00000  0.13306
      17     C     3.24365  3.24365  0.00000 -0.48729
      18     H     0.41346  0.41346  0.00000  0.17309
      19     H     0.42682  0.42682  0.00000  0.14636
      20     H     0.42125  0.42125  0.00000  0.15750
      21     H     0.41787  0.41787  0.00000  0.16426
      22     H     0.42217  0.42217  0.00000  0.15566

   Total alpha = 29.00000, Total beta = 29.00000, Total charge =  0.00000
