  ==> Input File <==

--------------------------------------------------------------------------
set {
	reference rhf
	basis 6-31G*
}

set_num_threads( 4 )
memory 2 gb

molecule MOL {
0 1

H	 -3.607028	 0.212517	 -1.779203
C	 -2.932564	 -0.463305	 -1.290303
C	 -2.076860	 -0.007332	 -0.404944
H	 -2.977902	 -1.505977	 -1.542674
O	 -1.180634	 -0.819263	 0.215062
H	 -2.020345	 1.031904	 -0.132932
C	 0.051604	 -1.018856	 -0.387932
C	 1.043764	 0.054862	 -0.001873
H	 -0.017620	 -1.041351	 -1.469781
H	 0.437898	 -1.966374	 -0.042284
F	 2.212596	 -0.199467	 -0.571921
F	 0.652529	 1.252447	 -0.405055
F	 1.230877	 0.110694	 1.300533

	symmetry c1
}
set optking {
	frozen_dihedral = ("
		6 3 5 7
	")
}

ee = optimize('scf')
oeprop('DIPOLE', 'QUADRUPOLE', 'MULLIKEN_CHARGES')
f=open( 'psi4out.xyz', 'w' )
f.write( "13  " )
f.write( str(ee) + "\n" )
f.write( MOL.save_string_xyz() )
f.close()
--------------------------------------------------------------------------

    Molecular point group: c1
  Charge       = 0
  Multiplicity = 1
  Basis Set: 6-31G*
  Basis Set:
  @DF-RHF Final Energy:  -527.53250637497104
    Total Energy =                       -527.5325063749710353
    Molecular point group: c1
  Basis Set: 6-31G*
  Basis Set:
  Basis Set: 6-31G*
  Basis Set:
  @DF-RHF Final Energy:  -527.53278823116148
    Total Energy =                       -527.5327882311615895
  Basis Set: 6-31G*
  Basis Set:
  Basis Set: 6-31G*
  Basis Set:
  @DF-RHF Final Energy:  -527.53300898661814
    Total Energy =                       -527.5330089866180288
  Basis Set: 6-31G*
  Basis Set:
  Basis Set: 6-31G*
  Basis Set:
  @DF-RHF Final Energy:  -527.53301592392972
    Total Energy =                       -527.5330159239298382
  Basis Set: 6-31G*
  Basis Set:
  Charge       = 0
  Multiplicity = 1
  Basis Set: 6-31G*
  Basis Set:

    Orbital Energies (a.u.)
    -----------------------

    Doubly Occupied:

       1A    -26.342470     2A    -26.342074     3A    -26.338417
       4A    -20.597782     5A    -11.500346     6A    -11.313440
       7A    -11.295632     8A    -11.230012     9A     -1.739449
      10A     -1.637836    11A     -1.635846    12A     -1.425897
      13A     -1.079118    14A     -1.019187    15A     -0.925074
      16A     -0.833552    17A     -0.828754    18A     -0.826328
      19A     -0.767207    20A     -0.718189    21A     -0.712522
      22A     -0.701069    23A     -0.672967    24A     -0.656800
      25A     -0.650315    26A     -0.643466    27A     -0.641199
      28A     -0.593556    29A     -0.566305    30A     -0.527495
      31A     -0.463126    32A     -0.378102

  @DF-RHF Final Energy:  -527.53301677755383

   => Energetics <=

    Nuclear Repulsion Energy =            413.2214088601139110
    One-Electron Energy =               -1550.3017892194820888
    Two-Electron Energy =                 609.5473635818143521
    DFT Exchange-Correlation Energy =       0.0000000000000000
    Empirical Dispersion Energy =           0.0000000000000000
    PCM Polarization Energy =               0.0000000000000000
    EFP Energy =                            0.0000000000000000
    Total Energy =                       -527.5330167775537120
    Molecular point group: c1
  Basis Set: 6-31G*
  Basis Set:

  -Total Gradient:
     Atom            X                  Y                   Z
    ------   -----------------  -----------------  -----------------
       1        0.000001258030     0.000003464595     0.000000124967
       2        0.000074135200    -0.000044304083     0.000043150838
       3        0.000813323525    -0.000043203496    -0.001280047619
       4       -0.000023649282     0.000010475561    -0.000009919259
       5        0.000184926251     0.000921115068     0.000865211720
       6       -0.000720171898    -0.000162874910     0.000801131570
       7       -0.000309736874    -0.000667830598    -0.000416936637
       8        0.000031052168    -0.000050954493    -0.000045259134
       9       -0.000005601616     0.000003739798     0.000008465512
      10        0.000004553098     0.000009433426     0.000007738757
      11        0.000002012795     0.000009353088    -0.000007840703
      12       -0.000034716354    -0.000014598873     0.000023901276
      13       -0.000017385033     0.000026184919     0.000010278709

  **** Optimization is complete! (in 5 steps) ****
    Final optimized geometry and variables:
    Molecular point group: c1

    Geometry (in Angstrom), charge = 0, multiplicity = 1:

    H           -3.715391565497     0.275303784438    -1.602503574214
    C           -3.008465525196    -0.382455969657    -1.133301435314
    C           -2.106897582635     0.096159955796    -0.307309023762
    H           -3.071919163183    -1.432800868825    -1.352193995287
    O           -1.215084700263    -0.707688194972     0.352334378013
    H           -2.040750236144     1.137898980109    -0.052056799236
    C            0.026739630318    -0.917331324496    -0.240697294871
    C            1.023497316530     0.140814404238     0.172684254241
    H           -0.036703633545    -0.925060334943    -1.321451497639
    H            0.399972976842    -1.871337859327     0.102678617151
    F            2.193213624470    -0.099854714726    -0.400526712999
    F            0.637345387690     1.352699311246    -0.196537073505
    F            1.209134111025     0.163653343221     1.477480716331

  Mulliken Charges: (a.u.)
   Center  Symbol    Alpha    Beta     Spin     Total
       1     H     0.40461  0.40461  0.00000  0.19078
       2     C     3.21416  3.21416  0.00000 -0.42833
       3     C     2.91729  2.91729  0.00000  0.16543
       4     H     0.40340  0.40340  0.00000  0.19321
       5     O     4.31079  4.31079  0.00000 -0.62157
       6     H     0.40007  0.40007  0.00000  0.19986
       7     C     3.05297  3.05297  0.00000 -0.10594
       8     C     2.45896  2.45896  0.00000  1.08207
       9     H     0.40405  0.40405  0.00000  0.19190
      10     H     0.39389  0.39389  0.00000  0.21222
      11     F     4.68260  4.68260  0.00000 -0.36520
      12     F     4.68137  4.68137  0.00000 -0.36274
      13     F     4.67584  4.67584  0.00000 -0.35168

   Total alpha = 32.00000, Total beta = 32.00000, Total charge =  0.00000
