                              Psi4 1.0.54 Driver

  ==> Input File <==

--------------------------------------------------------------------------
set {
	reference rhf
	basis cc-pvtz
}

set_num_threads( 4 )
memory 2 gb

molecule MOL {
0 1

H	 1.710582	 2.589417	 -2.483486
O	 2.579804	 2.240173	 -2.549143
C	 3.110001	 2.013476	 -1.269779
C	 2.488274	 0.821101	 -0.558174
H	 4.167230	 1.837109	 -1.415180
H	 3.013963	 2.906708	 -0.655480
C	 1.009205	 0.993841	 -0.219999
H	 2.621047	 -0.059580	 -1.179408
H	 3.048869	 0.649018	 0.357533
C	 0.428261	 -0.208663	 0.522515
H	 0.449181	 1.158886	 -1.134404
H	 0.881217	 1.885942	 0.390789
C	 -1.032388	 -0.059112	 0.951926
H	 0.530658	 -1.095186	 -0.098628
H	 1.029688	 -0.390225	 1.408963
C	 -2.041121	 -0.006551	 -0.194127
H	 -1.285547	 -0.896254	 1.596621
H	 -1.136491	 0.834152	 1.563806
C	 -3.489218	 0.042606	 0.286507
H	 -1.905301	 -0.878265	 -0.830630
H	 -1.850627	 0.859923	 -0.820176
C	 -4.219984	 1.311773	 -0.139038
H	 -4.022855	 -0.824300	 -0.093339
H	 -3.510372	 -0.038577	 1.370031
H	 -4.244251	 1.405725	 -1.219696
H	 -5.244345	 1.313233	 0.215630
H	 -3.732090	 2.196311	 0.257073

	symmetry c1
}
set optking {
	frozen_dihedral = ("
		20 16 19 22
	")
}

ee,wfn = optimize('scf', return_wfn=True)
oeprop( wfn, 'DIPOLE', 'QUADRUPOLE', 'MULLIKEN_CHARGES')
f=open( 'psi4out.xyz', 'w' )
f.write( "27  " )
f.write( str(ee) + "\n" )
f.write( MOL.save_string_xyz() )
f.close()
--------------------------------------------------------------------------

    Molecular point group: c1
  Charge       = 0
  Multiplicity = 1
  Basis Set: CC-PVTZ
  Basis Set:
  @DF-RHF Final Energy:  -388.42184631256225
    Total Energy =                       -388.4218463125621383
    Molecular point group: c1
  Basis Set: CC-PVTZ
  Basis Set:
  Basis Set: CC-PVTZ
  Basis Set:
  @DF-RHF Final Energy:  -388.42207887326549
    Total Energy =                       -388.4220788732656047
  Basis Set: CC-PVTZ
  Basis Set:
  Basis Set: CC-PVTZ
  Basis Set:
  @DF-RHF Final Energy:  -388.42216275642511
    Total Energy =                       -388.4221627564251094
  Basis Set: CC-PVTZ
  Basis Set:
  Basis Set: CC-PVTZ
  Basis Set:
  @DF-RHF Final Energy:  -388.42217070259761
    Total Energy =                       -388.4221707025977821
  Basis Set: CC-PVTZ
  Basis Set:
  Basis Set: CC-PVTZ
  Basis Set:
  @DF-RHF Final Energy:  -388.42217281603655
    Total Energy =                       -388.4221728160364364
  Basis Set: CC-PVTZ
  Basis Set:
  Charge       = 0
  Multiplicity = 1
  Basis Set: CC-PVTZ
  Basis Set:

    Orbital Energies (a.u.)
    -----------------------

    Doubly Occupied:

       1A    -20.545368     2A    -11.264999     3A    -11.216799
       4A    -11.214599     5A    -11.213782     6A    -11.213637
       7A    -11.213263     8A    -11.211624     9A    -11.208086
      10A     -1.363257    11A     -1.095333    12A     -1.060892
      13A     -1.012018    14A     -0.949106    15A     -0.888865
      16A     -0.822690    17A     -0.802225    18A     -0.777575
      19A     -0.696337    20A     -0.650286    21A     -0.627663
      22A     -0.615432    23A     -0.613906    24A     -0.587441
      25A     -0.581521    26A     -0.552084    27A     -0.536719
      28A     -0.533892    29A     -0.508129    30A     -0.491977
      31A     -0.489299    32A     -0.474643    33A     -0.470855
      34A     -0.454864    35A     -0.452161    36A     -0.441402
      37A     -0.425430

  @DF-RHF Final Energy:  -388.42217298617379

   => Energetics <=

    Nuclear Repulsion Energy =            461.7180502149415133
    One-Electron Energy =               -1441.7241265034317621
    Two-Electron Energy =                 591.5839033023162301
    DFT Exchange-Correlation Energy =       0.0000000000000000
    Empirical Dispersion Energy =           0.0000000000000000
    PCM Polarization Energy =               0.0000000000000000
    EFP Energy =                            0.0000000000000000
    Total Energy =                       -388.4221729861740187
    Molecular point group: c1
  Basis Set: CC-PVTZ
  Basis Set:

  -Total Gradient:
     Atom            X                  Y                   Z
    ------   -----------------  -----------------  -----------------
       1       -0.000000720055    -0.000000034244    -0.000000203897
       2        0.000005944304     0.000000174917    -0.000000686321
       3       -0.000006642690     0.000003983572     0.000002879902
       4       -0.000001331070    -0.000004889080     0.000002797968
       5       -0.000000401683    -0.000001300003     0.000000230740
       6        0.000000534903     0.000003122748     0.000000478087
       7       -0.000006218500     0.000002678152    -0.000022708452
       8       -0.000000789245    -0.000000536663    -0.000000541644
       9        0.000005441786    -0.000002208756     0.000001015246
      10        0.000009255911    -0.000001224320     0.000017475964
      11       -0.000003790175     0.000003557437     0.000000489534
      12        0.000000744117    -0.000009374165     0.000002694014
      13       -0.000004140451    -0.000003013426    -0.000008684305
      14       -0.000002631936     0.000006829390     0.000003038566
      15        0.000010548267    -0.000001849931     0.000002026214
      16        0.000044418473    -0.000170573611     0.000189171487
      17       -0.000006359216    -0.000000659951     0.000000415986
      18        0.000004021982    -0.000004137208    -0.000008847923
      19        0.000069085519     0.000147089988     0.000144540773
      20       -0.000050802450     0.000120047953    -0.000188794098
      21        0.000005054405     0.000005657197    -0.000008236343
      22       -0.000050112509    -0.000091132931    -0.000132644409
      23       -0.000009426493    -0.000010704452    -0.000006641121
      24       -0.000007384347     0.000004305552     0.000008298649
      25        0.000005503909    -0.000007376505    -0.000005261308
      26       -0.000015973859     0.000002901259     0.000003892614
      27        0.000006171116     0.000008667086     0.000003804071

  **** Optimization is complete! (in 6 steps) ****
    Final optimized geometry and variables:
    Molecular point group: c1

    Geometry (in Angstrom), charge = 0, multiplicity = 1:

    H            1.817174872596     1.770008630117    -2.074570468368
    O            2.686224836920     1.420834907671    -2.141001322043
    C            3.214195824522     1.185043400868    -0.862420013990
    C            2.592285592801    -0.013129465894    -0.160927487740
    H            4.271876029442     1.010813304970    -1.007044403096
    H            3.116057385150     2.073566797676    -0.241727955259
    C            1.111214903611     0.153609494213     0.171229098011
    H            2.730275292499    -0.889600752695    -0.786857821557
    H            3.149147389718    -0.189306093005     0.756258523111
    C            0.532136687276    -1.051293020744     0.911479761218
    H            0.554387360272     0.317448299813    -0.745245396672
    H            0.977660338771     1.044738203979     0.782088951290
    C           -0.928439210216    -0.906041925167     1.341281957047
    H            0.636427475367    -1.936781213454     0.289130482223
    H            1.134077262276    -1.232818902739     1.797583823002
    C           -1.940111429240    -0.863493910165     0.195777365574
    H           -1.179050614076    -1.741071365782     1.989445536127
    H           -1.037503093691    -0.010365502304     1.949350933651
    C           -3.403455141894    -0.770795001833     0.677398833886
    H           -1.808438491269    -1.748580802426    -0.419098760605
    H           -1.724923376998    -0.019248987626    -0.449769050533
    C           -4.115909892049     0.500165052116     0.223499922001
    H           -3.962076469436    -1.630977933327     0.324746098660
    H           -3.433149775750    -0.821921217905     1.761097792494
    H           -4.154017001241     0.560800572784    -0.859053403020
    H           -5.134583938401     0.534637091600     0.593242509602
    H           -3.602431199546     1.385668806812     0.584512583149

  Mulliken Charges: (a.u.)
   Center  Symbol    Alpha    Beta     Spin     Total
       1     H     0.39224  0.39224  0.00000  0.21552
       2     O     4.20548  4.20548  0.00000 -0.41096
       3     C     2.98005  2.98005  0.00000  0.03990
       4     C     3.08906  3.08906  0.00000 -0.17811
       5     H     0.44856  0.44856  0.00000  0.10288
       6     H     0.46966  0.46966  0.00000  0.06068
       7     C     3.10288  3.10288  0.00000 -0.20577
       8     H     0.45076  0.45076  0.00000  0.09847
       9     H     0.45525  0.45525  0.00000  0.08950
      10     C     3.09915  3.09915  0.00000 -0.19831
      11     H     0.45583  0.45583  0.00000  0.08834
      12     H     0.45365  0.45365  0.00000  0.09270
      13     C     3.09811  3.09811  0.00000 -0.19621
      14     H     0.45178  0.45178  0.00000  0.09644
      15     H     0.44805  0.44805  0.00000  0.10391
      16     C     3.09655  3.09655  0.00000 -0.19310
      17     H     0.44681  0.44681  0.00000  0.10638
      18     H     0.45354  0.45354  0.00000  0.09292
      19     C     3.08689  3.08689  0.00000 -0.17377
      20     H     0.44883  0.44883  0.00000  0.10234
      21     H     0.45453  0.45453  0.00000  0.09094
      22     C     3.14919  3.14919  0.00000 -0.29839
      23     H     0.44916  0.44916  0.00000  0.10169
      24     H     0.45483  0.45483  0.00000  0.09034
      25     H     0.45452  0.45452  0.00000  0.09097
      26     H     0.44869  0.44869  0.00000  0.10262
      27     H     0.45595  0.45595  0.00000  0.08810

   Total alpha = 37.00000, Total beta = 37.00000, Total charge = -0.00000

*** Psi4 exiting successfully. Buy a developer a beer!
