  ==> Input File <==

--------------------------------------------------------------------------
set {
	reference rhf
	basis 6-31G*
}

set_num_threads( 1 )
memory 2 gb

molecule MOL {
0 1

O	 3.225979	 0.970355	 -0.599647
C	 2.701189	 0.057885	 -0.047330
C	 1.245376	 -0.013843	 0.345420
O	 3.347903	 -1.046386	 0.304773
C	 0.318612	 -0.294595	 -0.835429
H	 1.161043	 -0.771176	 1.117771
H	 0.993367	 0.928584	 0.825022
C	 -1.169891	 -0.266467	 -0.472025
H	 0.572998	 -1.256590	 -1.270139
H	 0.509668	 0.442613	 -1.607727
C	 -1.624214	 -1.380978	 0.474846
H	 -1.742960	 -0.338472	 -1.393508
H	 -1.418731	 0.700505	 -0.037222
C	 -3.134626	 -1.375301	 0.719023
H	 -1.330693	 -2.344235	 0.060359
H	 -1.113699	 -1.291522	 1.431060
C	 -3.599381	 -2.481539	 1.667903
H	 -3.653285	 -1.477958	 -0.232653
H	 -3.430382	 -0.408531	 1.123476
C	 -5.109387	 -2.471287	 1.903435
H	 -3.303763	 -3.448248	 1.265751
H	 -3.085274	 -2.377998	 2.621189
H	 -5.407835	 -3.266362	 2.579742
H	 -5.652293	 -2.607957	 0.972430
H	 -5.432096	 -1.529205	 2.337732
C	 4.728119	 -1.109107	 -0.004993
H	 4.882018	 -1.033965	 -1.071845
H	 5.068212	 -2.067527	 0.355250
H	 5.265056	 -0.311663	 0.488280

	symmetry c1
}
set optking {
	frozen_dihedral = ("
		21 17 14 11,
		17 14 11 15,
		15 11 8 5,
		6 3 5 9,
		11 8 5 9,
		2 4 26 27,
		1 2 4 26
	")
}

ee = energy('scf')
oeprop('DIPOLE', 'QUADRUPOLE', 'MULLIKEN_CHARGES')
f=open( 'psi4out.xyz', 'w' )
f.write( "29  " )
f.write( str(ee) + "\n" )
f.write( MOL.save_string_xyz() )
f.close()
--------------------------------------------------------------------------

    Molecular point group: c1

    Geometry (in Angstrom), charge = 0, multiplicity = 1:

       Center              X                  Y                   Z               Mass
    ------------   -----------------  -----------------  -----------------  -----------------
           O          3.098453826801     1.829608551801    -0.915420825710    15.994914619560
           C          2.573663826801     0.917138551801    -0.363103825710    12.000000000000
           C          1.117850826801     0.845410551801     0.029646174290    12.000000000000
           O          3.220377826801    -0.187132448199    -0.011000825710    15.994914619560
           C          0.191086826801     0.564658551801    -1.151202825710    12.000000000000
           H          1.033517826801     0.088077551801     0.801997174290     1.007825032070
           H          0.865841826801     1.787837551801     0.509248174290     1.007825032070
           C         -1.297416173199     0.592786551801    -0.787798825710    12.000000000000
           H          0.445472826801    -0.397336448199    -1.585912825710     1.007825032070
           H          0.382142826801     1.301866551801    -1.923500825710     1.007825032070
           C         -1.751739173199    -0.521724448199     0.159072174290    12.000000000000
           H         -1.870485173199     0.520781551801    -1.709281825710     1.007825032070
           H         -1.546256173199     1.559758551801    -0.352995825710     1.007825032070
           C         -3.262151173199    -0.516047448199     0.403249174290    12.000000000000
           H         -1.458218173199    -1.484981448199    -0.255414825710     1.007825032070
           H         -1.241224173199    -0.432268448199     1.115286174290     1.007825032070
           C         -3.726906173199    -1.622285448199     1.352129174290    12.000000000000
           H         -3.780810173199    -0.618704448199    -0.548426825710     1.007825032070
           H         -3.557907173199     0.450722551801     0.807702174290     1.007825032070
           C         -5.236912173199    -1.612033448199     1.587661174290    12.000000000000
           H         -3.431288173199    -2.588994448199     0.949977174290     1.007825032070
           H         -3.212799173199    -1.518744448199     2.305415174290     1.007825032070
           H         -5.535360173199    -2.407108448199     2.263968174290     1.007825032070
           H         -5.779818173199    -1.748703448199     0.656656174290     1.007825032070
           H         -5.559621173199    -0.669951448199     2.021958174290     1.007825032070
           C          4.600593826801    -0.249853448199    -0.320766825710    12.000000000000
           H          4.754492826801    -0.174711448199    -1.387618825710     1.007825032070
           H          4.940686826801    -1.208273448199     0.039476174290     1.007825032070
           H          5.137530826801     0.547590551801     0.172506174290     1.007825032070

  Charge       = 0
  Multiplicity = 1
  Basis Set: 6-31G*
  Basis Set:

    Orbital Energies (a.u.)
    -----------------------

    Doubly Occupied:

       1A    -20.604236     2A    -20.542915     3A    -11.370761
       4A    -11.279933     5A    -11.232374     6A    -11.228727
       7A    -11.221722     8A    -11.217888     9A    -11.217011
      10A    -11.215961    11A    -11.209926    12A     -1.468457
      13A     -1.361083    14A     -1.101228    15A     -1.068765
      16A     -1.020015    17A     -0.976798    18A     -0.930058
      19A     -0.864586    20A     -0.800834    21A     -0.791584
      22A     -0.771011    23A     -0.697491    24A     -0.678428
      25A     -0.672939    26A     -0.652196    27A     -0.625330
      28A     -0.607221    29A     -0.593537    30A     -0.580168
      31A     -0.565270    32A     -0.557178    33A     -0.536337
      34A     -0.529289    35A     -0.519540    36A     -0.515586
      37A     -0.498471    38A     -0.479843    39A     -0.472650
      40A     -0.464344    41A     -0.460548    42A     -0.454443
      43A     -0.445558    44A     -0.429103

  @DF-RHF Final Energy:  -501.04181170531331

   => Energetics <=

    Nuclear Repulsion Energy =            611.7398352852536618
    One-Electron Energy =               -1894.5008033823498863
    Two-Electron Energy =                 781.7191563917842814
    DFT Exchange-Correlation Energy =       0.0000000000000000
    Empirical Dispersion Energy =           0.0000000000000000
    PCM Polarization Energy =               0.0000000000000000
    EFP Energy =                            0.0000000000000000
    Total Energy =                       -501.0418117053120568

  Mulliken Charges: (a.u.)
   Center  Symbol    Alpha    Beta     Spin     Total
       1     O     4.28545  4.28545  0.00000 -0.57090
       2     C     2.61381  2.61381  0.00000  0.77239
       3     C     3.20131  3.20131  0.00000 -0.40263
       4     O     4.30234  4.30234  0.00000 -0.60467
       5     C     3.16416  3.16416  0.00000 -0.32831
       6     H     0.40015  0.40015  0.00000  0.19970
       7     H     0.40254  0.40254  0.00000  0.19492
       8     C     3.15585  3.15585  0.00000 -0.31170
       9     H     0.41483  0.41483  0.00000  0.17033
      10     H     0.40513  0.40513  0.00000  0.18974
      11     C     3.15481  3.15481  0.00000 -0.30963
      12     H     0.41798  0.41798  0.00000  0.16403
      13     H     0.42064  0.42064  0.00000  0.15873
      14     C     3.15070  3.15070  0.00000 -0.30140
      15     H     0.42255  0.42255  0.00000  0.15491
      16     H     0.42206  0.42206  0.00000  0.15587
      17     C     3.15153  3.15153  0.00000 -0.30306
      18     H     0.42346  0.42346  0.00000  0.15308
      19     H     0.42351  0.42351  0.00000  0.15298
      20     C     3.23943  3.23943  0.00000 -0.47886
      21     H     0.42279  0.42279  0.00000  0.15443
      22     H     0.42305  0.42305  0.00000  0.15390
      23     H     0.41903  0.41903  0.00000  0.16194
      24     H     0.42158  0.42158  0.00000  0.15685
      25     H     0.42160  0.42160  0.00000  0.15681
      26     C     3.09307  3.09307  0.00000 -0.18613
      27     H     0.40907  0.40907  0.00000  0.18185
      28     H     0.40877  0.40877  0.00000  0.18246
      29     H     0.40881  0.40881  0.00000  0.18239

   Total alpha = 44.00000, Total beta = 44.00000, Total charge = -0.00000
