                              Psi4 1.0.54 Driver

  ==> Input File <==

--------------------------------------------------------------------------
set {
	reference rhf
	basis cc-pvtz
}

set_num_threads( 4 )
memory 2 gb

molecule MOL {
0 1

H	 -2.894835	 0.027319	 0.774470
O	 -2.346257	 -0.289210	 0.080372
C	 -1.183935	 0.486039	 -0.009831
C	 0.062853	 -0.375310	 0.027457
H	 -1.178881	 1.094526	 -0.908634
H	 -1.184406	 1.155156	 0.838676
O	 1.172093	 0.457955	 -0.054438
H	 0.052476	 -1.081302	 -0.804627
H	 0.076323	 -0.955658	 0.947560
C	 2.395478	 -0.199028	 -0.000366
H	 2.505946	 -0.901710	 -0.823354
H	 3.174616	 0.545641	 -0.071768
H	 2.513730	 -0.742241	 0.934223

	symmetry c1
}
set optking {
	frozen_dihedral = ("
		1 2 3 5
	")
}

ee,wfn = optimize('scf', return_wfn=True)
oeprop( wfn, 'DIPOLE', 'QUADRUPOLE', 'MULLIKEN_CHARGES')
f=open( 'psi4out.xyz', 'w' )
f.write( "13  " )
f.write( str(ee) + "\n" )
f.write( MOL.save_string_xyz() )
f.close()
--------------------------------------------------------------------------

    Molecular point group: c1
  Charge       = 0
  Multiplicity = 1
  Basis Set: CC-PVTZ
  Basis Set:
  @DF-RHF Final Energy:  -268.06024628413769
    Total Energy =                       -268.0602462841378042
    Molecular point group: c1
  Basis Set: CC-PVTZ
  Basis Set:
  Basis Set: CC-PVTZ
  Basis Set:
  @DF-RHF Final Energy:  -268.01669004978874
    Total Energy =                       -268.0166900497888491
  Basis Set: CC-PVTZ
  Basis Set:
  Basis Set: CC-PVTZ
  Basis Set:
  @DF-RHF Final Energy:  -268.05983565871725
    Total Energy =                       -268.0598356587174180
  Basis Set: CC-PVTZ
  Basis Set:
  Basis Set: CC-PVTZ
  Basis Set:
  @DF-RHF Final Energy:  -268.06151448881036
    Total Energy =                       -268.0615144888103032
  Basis Set: CC-PVTZ
  Basis Set:
  Basis Set: CC-PVTZ
  Basis Set:
  @DF-RHF Final Energy:  -268.06156497075415
    Total Energy =                       -268.0615649707541479
  Basis Set: CC-PVTZ
  Basis Set:
  Charge       = 0
  Multiplicity = 1
  Basis Set: CC-PVTZ
  Basis Set:

    Orbital Energies (a.u.)
    -----------------------

    Doubly Occupied:

       1A    -20.552796     2A    -20.551314     3A    -11.267791
       4A    -11.265116     5A    -11.264875     6A     -1.388818
       7A     -1.367524     8A     -1.019331     9A     -0.912211
      10A     -0.833979    11A     -0.715478    12A     -0.680806
      13A     -0.646666    14A     -0.643315    15A     -0.608752
      16A     -0.553669    17A     -0.546229    18A     -0.493947
      19A     -0.477659    20A     -0.441416    21A     -0.421311

  @DF-RHF Final Energy:  -268.06156850150603

   => Energetics <=

    Nuclear Repulsion Energy =            190.5208069831077751
    One-Electron Energy =                -743.8587482253535654
    Two-Electron Energy =                 285.2763727407397027
    DFT Exchange-Correlation Energy =       0.0000000000000000
    Empirical Dispersion Energy =           0.0000000000000000
    PCM Polarization Energy =               0.0000000000000000
    EFP Energy =                            0.0000000000000000
    Total Energy =                       -268.0615685015060308
    Molecular point group: c1
  Basis Set: CC-PVTZ
  Basis Set:

  -Total Gradient:
     Atom            X                  Y                   Z
    ------   -----------------  -----------------  -----------------
       1        0.000351596363    -0.000462430950     0.000291624112
       2       -0.000330154495     0.000628789648    -0.000458649154
       3       -0.000331556906     0.000090009605     0.000647196431
       4       -0.000010189980     0.000029523465    -0.000054917328
       5        0.000313883461    -0.000335928943    -0.000394322819
       6       -0.000027960054     0.000001011590    -0.000003491264
       7        0.000075085094     0.000035928809     0.000002442390
       8        0.000038900390    -0.000025636005     0.000002193752
       9       -0.000059572248     0.000034083365    -0.000018915737
      10       -0.000001126668    -0.000012184802    -0.000037400943
      11        0.000010972746     0.000007556286     0.000021004328
      12       -0.000023008119    -0.000012609010     0.000007301208
      13       -0.000006869588     0.000021886943    -0.000004064976

  **** Optimization is complete! (in 6 steps) ****
    Final optimized geometry and variables:
    Molecular point group: c1

    Geometry (in Angstrom), charge = 0, multiplicity = 1:

    H           -2.832067813584    -0.614758416820     0.769680226565
    O           -2.257244187240    -0.607038088168     0.029298555401
    C           -1.220844046539     0.320607193311     0.216848069754
    C            0.099364144677    -0.354493857371    -0.084875795949
    H           -1.352028898857     1.161682619629    -0.454055718836
    H           -1.205963465424     0.703453720562     1.231092466319
    O            1.110695958313     0.592434862440     0.038756265597
    H            0.072327538993    -0.766445577259    -1.091602595159
    H            0.254992096803    -1.181910410084     0.604939739747
    C            2.385832330788     0.113356187707    -0.234574202285
    H            2.461548052062    -0.255506254583    -1.254809923656
    H            3.081115774336     0.930161178614    -0.106934788104
    H            2.662201371244    -0.691143074088     0.443274782740

  Mulliken Charges: (a.u.)
   Center  Symbol    Alpha    Beta     Spin     Total
       1     H     0.38880  0.38880  0.00000  0.22240
       2     O     4.20616  4.20616  0.00000 -0.41231
       3     C     2.96944  2.96944  0.00000  0.06112
       4     C     2.95951  2.95951  0.00000  0.08098
       5     H     0.46457  0.46457  0.00000  0.07085
       6     H     0.46994  0.46994  0.00000  0.06012
       7     O     4.17658  4.17658  0.00000 -0.35315
       8     H     0.47067  0.47067  0.00000  0.05867
       9     H     0.47527  0.47527  0.00000  0.04946
      10     C     3.03088  3.03088  0.00000 -0.06177
      11     H     0.47015  0.47015  0.00000  0.05970
      12     H     0.44697  0.44697  0.00000  0.10605
      13     H     0.47105  0.47105  0.00000  0.05789

   Total alpha = 21.00000, Total beta = 21.00000, Total charge =  0.00000

*** Psi4 exiting successfully. Buy a developer a beer!
