  ==> Input File <==

--------------------------------------------------------------------------
set {
	reference rhf
	basis 6-31G*
}

set_num_threads( 4 )
memory 2 gb

molecule MOL {
0 1

H	 -2.273092	 1.173159	 0.000295
O	 -1.438904	 1.618192	 0.000114
C	 -0.409536	 0.736003	 0.000030
C	 -0.555147	 -0.389216	 -0.796135
C	 0.743360	 0.935522	 0.756313
H	 -1.460287	 -0.503939	 -1.363188
C	 0.453084	 -1.332826	 -0.846953
C	 1.740778	 -0.029464	 0.685961
C	 0.900252	 2.163809	 1.624474
H	 0.333950	 -2.203630	 -1.466632
C	 1.609628	 -1.157617	 -0.104200
H	 2.637689	 0.109962	 1.264282
H	 0.127443	 2.223572	 2.388108
H	 1.853945	 2.150951	 2.136608
H	 0.862170	 3.081664	 1.041303
H	 2.397886	 -1.887443	 -0.138884

	symmetry c1
}
set optking {
	frozen_dihedral = ("
		4 3 2 1
	")
}

ee = optimize('scf')
oeprop('DIPOLE', 'QUADRUPOLE', 'MULLIKEN_CHARGES')
f=open( 'psi4out.xyz', 'w' )
f.write( "16  " )
f.write( str(ee) + "\n" )
f.write( MOL.save_string_xyz() )
f.close()
--------------------------------------------------------------------------

    Molecular point group: c1
  Charge       = 0
  Multiplicity = 1
  Basis Set: 6-31G*
  Basis Set:
  @DF-RHF Final Energy:  -344.59090057324289
    Total Energy =                       -344.5909005732428909
    Molecular point group: c1
  Basis Set: 6-31G*
  Basis Set:
  Basis Set: 6-31G*
  Basis Set:
  @DF-RHF Final Energy:  -344.59299831887728
    Total Energy =                       -344.5929983188771644
  Basis Set: 6-31G*
  Basis Set:
  Basis Set: 6-31G*
  Basis Set:
  @DF-RHF Final Energy:  -344.59315646852451
    Total Energy =                       -344.5931564685245121
  Basis Set: 6-31G*
  Basis Set:
  Basis Set: 6-31G*
  Basis Set:
  @DF-RHF Final Energy:  -344.59317083875419
    Total Energy =                       -344.5931708387543608
  Basis Set: 6-31G*
  Basis Set:
  Basis Set: 6-31G*
  Basis Set:
  @DF-RHF Final Energy:  -344.59317405256076
    Total Energy =                       -344.5931740525608689
  Basis Set: 6-31G*
  Basis Set:
  Charge       = 0
  Multiplicity = 1
  Basis Set: 6-31G*
  Basis Set:

    Orbital Energies (a.u.)
    -----------------------

    Doubly Occupied:

       1A    -20.583760     2A    -11.288865     3A    -11.230959
       4A    -11.230789     5A    -11.227895     6A    -11.225883
       7A    -11.221599     8A    -11.213356     9A     -1.400258
      10A     -1.148043    11A     -1.043304    12A     -1.002613
      13A     -0.928950    14A     -0.839156    15A     -0.799436
      16A     -0.728802    17A     -0.668807    18A     -0.651017
      19A     -0.613849    20A     -0.592674    21A     -0.572635
      22A     -0.559071    23A     -0.540815    24A     -0.532003
      25A     -0.499210    26A     -0.481293    27A     -0.468925
      28A     -0.328869    29A     -0.308495

  @DF-RHF Final Energy:  -344.59317421150917

   => Energetics <=

    Nuclear Repulsion Energy =            349.9585909763365521
    One-Electron Energy =               -1161.2408658492565792
    Two-Electron Energy =                 466.6891006614110893
    DFT Exchange-Correlation Energy =       0.0000000000000000
    Empirical Dispersion Energy =           0.0000000000000000
    PCM Polarization Energy =               0.0000000000000000
    EFP Energy =                            0.0000000000000000
    Total Energy =                       -344.5931742115088809
    Molecular point group: c1
  Basis Set: 6-31G*
  Basis Set:

  -Total Gradient:
     Atom            X                  Y                   Z
    ------   -----------------  -----------------  -----------------
       1        0.000022549800    -0.000104184914     0.002574558195
       2        0.000377394804     0.000653670148    -0.003939507535
       3       -0.001240952169    -0.001477080171     0.002780206322
       4        0.000839376875     0.000960516383    -0.001463670525
       5       -0.000018018084    -0.000031884133     0.000046574339
       6        0.000003062251    -0.000001942805     0.000000693992
       7       -0.000008287928    -0.000030024317     0.000020586538
       8       -0.000004705883     0.000015092931     0.000003885429
       9        0.000014173965     0.000009919867    -0.000018809038
      10        0.000006219170     0.000000501385     0.000000160472
      11        0.000006237518     0.000012427977    -0.000004717443
      12        0.000003030618     0.000003929767    -0.000000290995
      13       -0.000000646364    -0.000008816818    -0.000001577528
      14        0.000003731054     0.000002946996     0.000002726775
      15       -0.000002053065    -0.000003780579     0.000003267713
      16       -0.000001112561    -0.000001291719    -0.000004086713

  **** Optimization is complete! (in 6 steps) ****
    Final optimized geometry and variables:
    Molecular point group: c1

    Geometry (in Angstrom), charge = 0, multiplicity = 1:

    H           -2.577020192388     0.893210317985    -0.138784102183
    O           -1.717030474837     1.289400843898    -0.129014152715
    C           -0.749470236162     0.329825821232    -0.176749226354
    C           -0.885791938761    -0.785535812327    -0.983634962244
    C            0.408418570792     0.543940448844     0.568500077930
    H           -1.781091123071    -0.910361577981    -1.568539467211
    C            0.127562923899    -1.730061219646    -1.038110150137
    C            1.412451099913    -0.408926743048     0.487086891188
    C            0.544386657159     1.778490378387     1.425531679012
    H            0.012984093918    -2.598949831134    -1.661171141058
    C            1.282074135684    -1.542770936772    -0.302453907529
    H            2.313474093615    -0.263640980788     1.057274044748
    H           -0.259157073211     1.841832245241     2.151317519716
    H            1.486934895202     1.771351863066     1.960437681398
    H            0.501941528841     2.680462932534     0.824335156776
    H            2.076231137262    -2.266284782259    -0.341213837480

  Mulliken Charges: (a.u.)
   Center  Symbol    Alpha    Beta     Spin     Total
       1     H     0.27223  0.27223  0.00000  0.45553
       2     O     4.38338  4.38338  0.00000 -0.76675
       3     C     2.81702  2.81702  0.00000  0.36596
       4     C     3.12977  3.12977  0.00000 -0.25954
       5     C     3.00572  3.00572  0.00000 -0.01144
       6     H     0.40209  0.40209  0.00000  0.19582
       7     C     3.09797  3.09797  0.00000 -0.19595
       8     C     3.10945  3.10945  0.00000 -0.21889
       9     C     3.24082  3.24082  0.00000 -0.48164
      10     H     0.39926  0.39926  0.00000  0.20148
      11     C     3.10509  3.10509  0.00000 -0.21018
      12     H     0.40094  0.40094  0.00000  0.19812
      13     H     0.41043  0.41043  0.00000  0.17913
      14     H     0.41804  0.41804  0.00000  0.16392
      15     H     0.40699  0.40699  0.00000  0.18602
      16     H     0.40080  0.40080  0.00000  0.19839

   Total alpha = 29.00000, Total beta = 29.00000, Total charge =  0.00000
