  ==> Input File <==

--------------------------------------------------------------------------
set {
	reference rhf
	basis 6-31G*
}

set_num_threads( 4 )
memory 2 gb

molecule MOL {
0 1

H	 -1.748661	 -2.220942	 -0.005015
C	 -1.343207	 -1.225221	 -0.013879
N	 -0.055091	 -1.100174	 -0.261126
C	 -2.150779	 -0.125890	 0.222726
C	 0.449969	 0.122615	 -0.277109
H	 -3.200618	 -0.238980	 0.422496
N	 -1.660212	 1.097703	 0.209594
C	 -0.371804	 1.219904	 -0.038265
C	 1.928147	 0.267347	 -0.541394
H	 0.029131	 2.217482	 -0.051283
C	 2.735072	 -0.927442	 -0.022393
H	 2.074753	 0.364039	 -1.611918
H	 2.289820	 1.182891	 -0.084068
H	 3.788579	 -0.804338	 -0.252538
H	 2.391602	 -1.846964	 -0.481726
H	 2.635755	 -1.028692	 1.053802

	symmetry c1
}
set optking {
	frozen_dihedral = ("
		12 9 5 3
	")
}

ee = optimize('scf')
oeprop('DIPOLE', 'QUADRUPOLE', 'MULLIKEN_CHARGES')
f=open( 'psi4out.xyz', 'w' )
f.write( "16  " )
f.write( str(ee) + "\n" )
f.write( MOL.save_string_xyz() )
f.close()
--------------------------------------------------------------------------

    Molecular point group: c1
  Charge       = 0
  Multiplicity = 1
  Basis Set: 6-31G*
  Basis Set:
  @DF-RHF Final Energy:  -340.75698514269851
    Total Energy =                       -340.7569851426985679
    Molecular point group: c1
  Basis Set: 6-31G*
  Basis Set:
  Basis Set: 6-31G*
  Basis Set:
  @DF-RHF Final Energy:  -340.75733569721604
    Total Energy =                       -340.7573356972159218
  Basis Set: 6-31G*
  Basis Set:
  Basis Set: 6-31G*
  Basis Set:
  @DF-RHF Final Energy:  -340.75748401009230
    Total Energy =                       -340.7574840100921847
  Basis Set: 6-31G*
  Basis Set:
  Basis Set: 6-31G*
  Basis Set:
  @DF-RHF Final Energy:  -340.75748740926241
    Total Energy =                       -340.7574874092622395
  Basis Set: 6-31G*
  Basis Set:
  Basis Set: 6-31G*
  Basis Set:
  @DF-RHF Final Energy:  -340.75750001449359
    Total Energy =                       -340.7575000144937007
  Basis Set: 6-31G*
  Basis Set:
  Basis Set: 6-31G*
  Basis Set:
  @DF-RHF Final Energy:  -340.75750430835819
    Total Energy =                       -340.7575043083583068
  Basis Set: 6-31G*
  Basis Set:
  Charge       = 0
  Multiplicity = 1
  Basis Set: 6-31G*
  Basis Set:

    Orbital Energies (a.u.)
    -----------------------

    Doubly Occupied:

       1A    -15.586762     2A    -15.581899     3A    -11.282597
       4A    -11.275761     5A    -11.272354     6A    -11.271328
       7A    -11.234248     8A    -11.213088     9A     -1.313411
      10A     -1.222002    11A     -1.083374    12A     -1.013432
      13A     -0.909073    14A     -0.889441    15A     -0.824959
      16A     -0.717565    17A     -0.706614    18A     -0.658115
      19A     -0.623359    20A     -0.602643    21A     -0.569333
      22A     -0.559578    23A     -0.521612    24A     -0.503475
      25A     -0.500535    26A     -0.484839    27A     -0.429753
      28A     -0.394512    29A     -0.344649

  @DF-RHF Final Energy:  -340.75750555389800

   => Energetics <=

    Nuclear Repulsion Energy =            349.6642406756684522
    One-Electron Energy =               -1153.6628762382672448
    Two-Electron Energy =                 463.2411300087006794
    DFT Exchange-Correlation Energy =       0.0000000000000000
    Empirical Dispersion Energy =           0.0000000000000000
    PCM Polarization Energy =               0.0000000000000000
    EFP Energy =                            0.0000000000000000
    Total Energy =                       -340.7575055538981132
    Molecular point group: c1
  Basis Set: 6-31G*
  Basis Set:

  -Total Gradient:
     Atom            X                  Y                   Z
    ------   -----------------  -----------------  -----------------
       1       -0.000005101891     0.000002126056    -0.000026807816
       2        0.000040299749    -0.000012165489    -0.000002451095
       3        0.000072034127    -0.000076107250     0.000637095276
       4        0.000024705554     0.000033740316     0.000115602591
       5       -0.000199172973     0.000273476777    -0.000815570313
       6       -0.000011178244     0.000001102618    -0.000046407944
       7       -0.000024728435    -0.000027359572     0.000003509880
       8        0.000008295124    -0.000012873578    -0.000129111483
       9        0.000159730684    -0.000923428456     0.000179831845
      10        0.000004939365     0.000001783384     0.000032583679
      11       -0.000014404240    -0.000027203890    -0.000008428405
      12       -0.000052832119     0.000747730468     0.000069919048
      13       -0.000012416515     0.000007313978    -0.000012483121
      14        0.000001349727     0.000008024397    -0.000000165248
      15        0.000011120038     0.000002708607     0.000012391949
      16       -0.000002639949     0.000001131637    -0.000009508842

  **** Optimization is complete! (in 7 steps) ****
    Final optimized geometry and variables:
    Molecular point group: c1

    Geometry (in Angstrom), charge = 0, multiplicity = 1:

    H           -1.789696739304    -2.107789521526     0.088128254690
    C           -1.369209532256    -1.118394940705     0.076966473168
    N           -0.071936666791    -1.017273407496    -0.150146703311
    C           -2.159600587476    -0.007105899421     0.293469946636
    C            0.454962094489     0.191993711201    -0.165246369418
    H           -3.214438969127    -0.098920509201     0.476639690158
    N           -1.644653519583     1.209887507152     0.285791834133
    C           -0.353440317615     1.306780778296     0.061078727780
    C            1.932777992604     0.343456760178    -0.450023245237
    H            0.068489462924     2.296183398617     0.060551081030
    C            2.789642653599    -0.815931349445     0.055611790469
    H            2.064589893867     0.453286225515    -1.524556334146
    H            2.276863727832     1.275548757875    -0.011551574310
    H            3.834979636756    -0.632132248491    -0.170527343606
    H            2.497076534875    -1.748702682040    -0.407524726490
    H            2.692123310191    -0.932552591382     1.129912890200

  Mulliken Charges: (a.u.)
   Center  Symbol    Alpha    Beta     Spin     Total
       1     H     0.39395  0.39395  0.00000  0.21210
       2     C     2.98911  2.98911  0.00000  0.02177
       3     N     3.75796  3.75796  0.00000 -0.51592
       4     C     2.99908  2.99908  0.00000  0.00185
       5     C     2.86988  2.86988  0.00000  0.26024
       6     H     0.39422  0.39422  0.00000  0.21156
       7     N     3.72901  3.72901  0.00000 -0.45803
       8     C     2.99858  2.99858  0.00000  0.00284
       9     C     3.17244  3.17244  0.00000 -0.34487
      10     H     0.39509  0.39509  0.00000  0.20983
      11     C     3.23842  3.23842  0.00000 -0.47685
      12     H     0.40654  0.40654  0.00000  0.18691
      13     H     0.41373  0.41373  0.00000  0.17254
      14     H     0.41944  0.41944  0.00000  0.16111
      15     H     0.40499  0.40499  0.00000  0.19003
      16     H     0.41756  0.41756  0.00000  0.16488

   Total alpha = 29.00000, Total beta = 29.00000, Total charge = -0.00000
