  ==> Input File <==

--------------------------------------------------------------------------
set {
	reference rhf
	basis 6-31G*
}

set_num_threads( 1 )
memory 2 gb

molecule MOL {
0 1

O	 0.074228	 1.262779	 -0.000085
C	 0.028650	 0.075053	 -0.000277
C	 -1.233602	 -0.752807	 0.000328
O	 1.109162	 -0.694619	 -0.000298
C	 -2.501530	 0.091881	 0.000126
H	 -1.193807	 -1.406641	 -0.865785
H	 -1.193516	 -1.405779	 0.867015
H	 -2.545121	 0.729328	 -0.874513
H	 -3.377167	 -0.548497	 0.000561
H	 -2.544818	 0.730135	 0.874258
C	 2.193654	 -0.279765	 0.810481
H	 2.551503	 0.690808	 0.498480
H	 2.963720	 -1.023283	 0.676160
H	 1.895830	 -0.232034	 1.848023

	symmetry c1
}
set optking {
	frozen_dihedral = ("
		4 2 3 6
	")
}

ee = energy('scf')
oeprop('DIPOLE', 'QUADRUPOLE', 'MULLIKEN_CHARGES')
f=open( 'psi4out.xyz', 'w' )
f.write( "14  " )
f.write( str(ee) + "\n" )
f.write( MOL.save_string_xyz() )
f.close()
--------------------------------------------------------------------------

    Molecular point group: c1

    Geometry (in Angstrom), charge = 0, multiplicity = 1:

       Center              X                  Y                   Z               Mass
    ------------   -----------------  -----------------  -----------------  -----------------
           O          0.104846513668     1.305767530481    -0.145108067223    15.994914619560
           C          0.059268513668     0.118041530481    -0.145300067223    12.000000000000
           C         -1.202983486332    -0.709818469519    -0.144695067223    12.000000000000
           O          1.139780513668    -0.651630469519    -0.145321067223    15.994914619560
           C         -2.470911486332     0.134869530481    -0.144897067223    12.000000000000
           H         -1.163188486332    -1.363652469519    -1.010808067223     1.007825032070
           H         -1.162897486332    -1.362790469519     0.721991932777     1.007825032070
           H         -2.514502486332     0.772316530481    -1.019536067223     1.007825032070
           H         -3.346548486332    -0.505508469519    -0.144462067223     1.007825032070
           H         -2.514199486332     0.773123530481     0.729234932777     1.007825032070
           C          2.224272513668    -0.236776469519     0.665457932777    12.000000000000
           H          2.582121513668     0.733796530481     0.353456932777     1.007825032070
           H          2.994338513668    -0.980294469519     0.531136932777     1.007825032070
           H          1.926448513668    -0.189045469519     1.702999932777     1.007825032070

  Charge       = 0
  Multiplicity = 1
  Basis Set: 6-31G*
  Basis Set:

    Orbital Energies (a.u.)
    -----------------------

    Doubly Occupied:

       1A    -20.596984     2A    -20.549448     3A    -11.373557
       4A    -11.285682     5A    -11.238990     6A    -11.216565
       7A     -1.467960     8A     -1.364605     9A     -1.063550
      10A     -0.980865    11A     -0.881492    12A     -0.769064
      13A     -0.700454    14A     -0.680910    15A     -0.672042
      16A     -0.620799    17A     -0.607421    18A     -0.550637
      19A     -0.539266    20A     -0.521900    21A     -0.510754
      22A     -0.495493    23A     -0.455641    24A     -0.437131

  @DF-RHF Final Energy:  -305.86367531465680

   => Energetics <=

    Nuclear Repulsion Energy =            247.0937424204835224
    One-Electron Energy =                -906.7523929129870339
    Two-Electron Energy =                 353.7949751778464247
    DFT Exchange-Correlation Energy =       0.0000000000000000
    Empirical Dispersion Energy =           0.0000000000000000
    PCM Polarization Energy =               0.0000000000000000
    EFP Energy =                            0.0000000000000000
    Total Energy =                       -305.8636753146570868

  Mulliken Charges: (a.u.)
   Center  Symbol    Alpha    Beta     Spin     Total
       1     O     4.27657  4.27657  0.00000 -0.55313
       2     C     2.60864  2.60864  0.00000  0.78272
       3     C     3.20648  3.20648  0.00000 -0.41296
       4     O     4.30815  4.30815  0.00000 -0.61629
       5     C     3.23961  3.23961  0.00000 -0.47922
       6     H     0.39900  0.39900  0.00000  0.20200
       7     H     0.40320  0.40320  0.00000  0.19361
       8     H     0.40916  0.40916  0.00000  0.18167
       9     H     0.41812  0.41812  0.00000  0.16376
      10     H     0.41072  0.41072  0.00000  0.17857
      11     C     3.09492  3.09492  0.00000 -0.18984
      12     H     0.40231  0.40231  0.00000  0.19538
      13     H     0.40635  0.40635  0.00000  0.18729
      14     H     0.41678  0.41678  0.00000  0.16645

   Total alpha = 24.00000, Total beta = 24.00000, Total charge = -0.00000
