                              Psi4 1.0.54 Driver

  ==> Input File <==

--------------------------------------------------------------------------
set {
	reference rhf
	basis cc-pvtz
}

set_num_threads( 4 )
memory 2 gb

molecule MOL {
0 1

H	 1.794539	 -1.254939	 0.646593
C	 1.948180	 -0.217873	 0.320185
C	 0.692262	 0.592428	 0.156232
O	 3.042248	 0.183512	 0.121338
C	 -0.554654	 -0.292621	 0.086567
H	 0.791858	 1.203694	 -0.731051
H	 0.617379	 1.254358	 1.016534
C	 -1.846385	 0.513195	 -0.016346
H	 -0.473986	 -0.956115	 -0.769708
H	 -0.597929	 -0.929215	 0.966651
C	 -3.089953	 -0.365049	 -0.098564
H	 -1.798267	 1.154820	 -0.891143
H	 -1.925398	 1.173265	 0.842889
H	 -3.055079	 -1.012299	 -0.968245
H	 -3.988403	 0.236438	 -0.170014
H	 -3.183055	 -0.995885	 0.779079

	symmetry c1
}
set optking {
	frozen_dihedral = ("
		4 2 3 6
	")
}

ee,wfn = optimize('scf', return_wfn=True)
oeprop( wfn, 'DIPOLE', 'QUADRUPOLE', 'MULLIKEN_CHARGES')
f=open( 'psi4out.xyz', 'w' )
f.write( "16  " )
f.write( str(ee) + "\n" )
f.write( MOL.save_string_xyz() )
f.close()
--------------------------------------------------------------------------

    Molecular point group: c1
  Charge       = 0
  Multiplicity = 1
  Basis Set: CC-PVTZ
  Basis Set:
  @DF-RHF Final Energy:  -270.11779698003033
    Total Energy =                       -270.1177969800301639
    Molecular point group: c1
  Basis Set: CC-PVTZ
  Basis Set:
  Basis Set: CC-PVTZ
  Basis Set:
  @DF-RHF Final Energy:  -270.11722329616816
    Total Energy =                       -270.1172232961679924
  Basis Set: CC-PVTZ
  Basis Set:
  Basis Set: CC-PVTZ
  Basis Set:
  @DF-RHF Final Energy:  -270.11796115913762
    Total Energy =                       -270.1179611591377352
  Basis Set: CC-PVTZ
  Basis Set:
  Basis Set: CC-PVTZ
  Basis Set:
  @DF-RHF Final Energy:  -270.11809178576556
    Total Energy =                       -270.1180917857656141
  Basis Set: CC-PVTZ
  Basis Set:
  Charge       = 0
  Multiplicity = 1
  Basis Set: CC-PVTZ
  Basis Set:

    Orbital Energies (a.u.)
    -----------------------

    Doubly Occupied:

       1A    -20.551453     2A    -11.322400     3A    -11.234400
       4A    -11.232433     5A    -11.227414     6A    -11.216891
       7A     -1.407179     8A     -1.097965     9A     -1.019672
      10A     -0.905551    11A     -0.812442    12A     -0.797312
      13A     -0.669872    14A     -0.658361    15A     -0.634885
      16A     -0.603668    17A     -0.590642    18A     -0.544758
      19A     -0.537668    20A     -0.499413    21A     -0.490893
      22A     -0.486202    23A     -0.478745    24A     -0.411934

  @DF-RHF Final Energy:  -270.11809245998347

   => Energetics <=

    Nuclear Repulsion Energy =            228.5741499540470443
    One-Electron Energy =                -818.5201786837246800
    Two-Electron Energy =                 319.8279362696941917
    DFT Exchange-Correlation Energy =       0.0000000000000000
    Empirical Dispersion Energy =           0.0000000000000000
    PCM Polarization Energy =               0.0000000000000000
    EFP Energy =                            0.0000000000000000
    Total Energy =                       -270.1180924599834725
    Molecular point group: c1
  Basis Set: CC-PVTZ
  Basis Set:

  -Total Gradient:
     Atom            X                  Y                   Z
    ------   -----------------  -----------------  -----------------
       1       -0.000046255677     0.000089550571    -0.000044643864
       2       -0.000070713860    -0.000562583072    -0.001415184723
       3        0.000534231323     0.000968032330     0.000920180489
       4       -0.000029314966     0.000242080321     0.000922296188
       5       -0.000023644701    -0.000046862323     0.000076140966
       6       -0.000338609834    -0.000673633907    -0.000519315138
       7       -0.000028554842    -0.000043849600     0.000036886607
       8        0.000037725817    -0.000002473372     0.000002445196
       9        0.000037136210     0.000025516974     0.000032110282
      10       -0.000020819613     0.000004808132     0.000012686613
      11       -0.000033722202     0.000004906373    -0.000018281864
      12        0.000000214238     0.000010720136     0.000007399762
      13       -0.000009579502    -0.000015917256    -0.000002744194
      14       -0.000000240299     0.000000546506     0.000003972041
      15       -0.000014491404    -0.000009679788    -0.000007211246
      16        0.000006639320     0.000008837974    -0.000006737115

  **** Optimization is complete! (in 5 steps) ****
    Final optimized geometry and variables:
    Molecular point group: c1

    Geometry (in Angstrom), charge = 0, multiplicity = 1:

    H            1.843768311080    -1.298797574211     0.564157604805
    C            1.940834964673    -0.258510822665     0.227952275526
    C            0.650516506600     0.511532724051     0.079874477352
    O            3.011249459297     0.199867099510     0.026154091790
    C           -0.587124494938    -0.377278065173     0.010988618928
    H            0.737955740447     1.133834164905    -0.802932500735
    H            0.587382501078     1.183009804672     0.932297569948
    C           -1.883021205671     0.415253104228    -0.129930796659
    H           -0.492990201764    -1.062848591977    -0.827673525483
    H           -0.639690294140    -0.994673861400     0.904326658666
    C           -3.120201265517    -0.472603687213    -0.205698162419
    H           -1.828157269262     1.035284068857    -1.020053483870
    H           -1.978106396838     1.097097230430     0.710498121916
    H           -3.069526567653    -1.142735860414    -1.057214466860
    H           -4.021430476540     0.120619342432    -0.305394386014
    H           -3.221393894935    -1.080464210887     0.687100494574

  Mulliken Charges: (a.u.)
   Center  Symbol    Alpha    Beta     Spin     Total
       1     H     0.46265  0.46265  0.00000  0.07470
       2     C     2.91420  2.91420  0.00000  0.17159
       3     C     3.08051  3.08051  0.00000 -0.16103
       4     O     4.16441  4.16441  0.00000 -0.32881
       5     C     3.10301  3.10301  0.00000 -0.20602
       6     H     0.43909  0.43909  0.00000  0.12182
       7     H     0.44192  0.44192  0.00000  0.11615
       8     C     3.08464  3.08464  0.00000 -0.16927
       9     H     0.44952  0.44952  0.00000  0.10095
      10     H     0.45207  0.45207  0.00000  0.09585
      11     C     3.14905  3.14905  0.00000 -0.29811
      12     H     0.45152  0.45152  0.00000  0.09695
      13     H     0.45258  0.45258  0.00000  0.09484
      14     H     0.45397  0.45397  0.00000  0.09206
      15     H     0.44646  0.44646  0.00000  0.10708
      16     H     0.45438  0.45438  0.00000  0.09124

   Total alpha = 24.00000, Total beta = 24.00000, Total charge = -0.00000

*** Psi4 exiting successfully. Buy a developer a beer!
