                              Psi4 1.0.54 Driver

  ==> Input File <==

--------------------------------------------------------------------------
set {
	reference rhf
	basis cc-pvtz
}

set_num_threads( 4 )
memory 2 gb

molecule MOL {
0 1

H	 0.715116	 2.687438	 -4.771049
C	 0.826476	 2.214038	 -3.814145
C	 0.224595	 2.765414	 -2.697290
C	 1.570962	 1.055139	 -3.701542
H	 -0.353118	 3.664956	 -2.785449
C	 0.368146	 2.156519	 -1.468008
H	 2.037324	 0.628341	 -4.568273
C	 1.715628	 0.444268	 -2.471336
H	 -0.090989	 2.569809	 -0.593111
C	 1.114040	 0.993895	 -1.350393
H	 2.291518	 -0.453319	 -2.380688
C	 1.238974	 0.374429	 0.000004
O	 1.968286	 -0.725612	 -0.000027
O	 0.737664	 0.818449	 0.978121
C	 3.373556	 -0.568203	 0.000011
H	 3.695416	 -0.031588	 -0.879663
H	 3.782700	 -1.565294	 -0.000152
H	 3.695405	 -0.031851	 0.879862

	symmetry c1
}
set optking {
	frozen_dihedral = ("
		10 12 13 15
	")
}

ee,wfn = optimize('scf', return_wfn=True)
oeprop( wfn, 'DIPOLE', 'QUADRUPOLE', 'MULLIKEN_CHARGES')
f=open( 'psi4out.xyz', 'w' )
f.write( "18  " )
f.write( str(ee) + "\n" )
f.write( MOL.save_string_xyz() )
f.close()
--------------------------------------------------------------------------

    Molecular point group: c1
  Charge       = 0
  Multiplicity = 1
  Basis Set: CC-PVTZ
  Basis Set:
  @DF-RHF Final Energy:  -457.48695382575215
    Total Energy =                       -457.4869538257521526
    Molecular point group: c1
  Basis Set: CC-PVTZ
  Basis Set:
  Basis Set: CC-PVTZ
  Basis Set:
  @DF-RHF Final Energy:  -457.48684163294229
    Total Energy =                       -457.4868416329420597
  Basis Set: CC-PVTZ
  Basis Set:
  Basis Set: CC-PVTZ
  Basis Set:
  @DF-RHF Final Energy:  -457.49042866044363
    Total Energy =                       -457.4904286604435129
  Basis Set: CC-PVTZ
  Basis Set:
  Basis Set: CC-PVTZ
  Basis Set:
  @DF-RHF Final Energy:  -457.49054603344092
    Total Energy =                       -457.4905460334407508
  Basis Set: CC-PVTZ
  Basis Set:
  Basis Set: CC-PVTZ
  Basis Set:
  @DF-RHF Final Energy:  -457.49042705176959
    Total Energy =                       -457.4904270517699842
  Basis Set: CC-PVTZ
  Basis Set:
  Basis Set: CC-PVTZ
  Basis Set:
  @DF-RHF Final Energy:  -457.49060568352388
    Total Energy =                       -457.4906056835243362
  Basis Set: CC-PVTZ
  Basis Set:
  Charge       = 0
  Multiplicity = 1
  Basis Set: CC-PVTZ
  Basis Set:

    Orbital Energies (a.u.)
    -----------------------

    Doubly Occupied:

       1A    -20.582516     2A    -20.545090     3A    -11.373830
       4A    -11.289766     5A    -11.250043     6A    -11.248721
       7A    -11.248490     8A    -11.245284     9A    -11.241843
      10A    -11.240609    11A     -1.464839    12A     -1.372254
      13A     -1.175564    14A     -1.050184    15A     -1.034465
      16A     -0.976716    17A     -0.875864    18A     -0.845125
      19A     -0.783606    20A     -0.741886    21A     -0.690015
      22A     -0.680562    23A     -0.666837    24A     -0.642197
      25A     -0.633379    26A     -0.612724    27A     -0.602001
      28A     -0.564258    29A     -0.534107    30A     -0.524990
      31A     -0.509277    32A     -0.498076    33A     -0.467004
      34A     -0.446885    35A     -0.355178    36A     -0.351685

  @DF-RHF Final Energy:  -457.49060674511270

   => Energetics <=

    Nuclear Repulsion Energy =            497.5295337593488512
    One-Electron Energy =               -1609.3085391564475231
    Two-Electron Energy =                 654.2883986519865402
    DFT Exchange-Correlation Energy =       0.0000000000000000
    Empirical Dispersion Energy =           0.0000000000000000
    PCM Polarization Energy =               0.0000000000000000
    EFP Energy =                            0.0000000000000000
    Total Energy =                       -457.4906067451121316
    Molecular point group: c1
  Basis Set: CC-PVTZ
  Basis Set:

  -Total Gradient:
     Atom            X                  Y                   Z
    ------   -----------------  -----------------  -----------------
       1        0.000002795186     0.000002150206     0.000001208316
       2       -0.000017883917    -0.000005738567     0.000019216558
       3       -0.000006709217    -0.000009416052    -0.000011239872
       4        0.000017092676    -0.000009353513    -0.000016841341
       5        0.000005461373     0.000007152725     0.000003417460
       6        0.000027283531     0.000025439444    -0.000002391371
       7       -0.000005082036    -0.000001317562     0.000004071502
       8       -0.000000636660     0.000015483616    -0.000052072120
       9       -0.000008919172     0.000003053355    -0.000003300677
      10        0.001088057841     0.000822481580     0.000236404252
      11        0.000005071435     0.000011536656     0.000012506979
      12       -0.001557997036    -0.001377629267    -0.001122575586
      13        0.000407762744     0.000554671529     0.002409331954
      14       -0.000032910028     0.000007763634     0.000039062314
      15        0.000127696686    -0.000025436004    -0.001488767302
      16       -0.000029427801    -0.000010096893    -0.000004371060
      17        0.000001215884     0.000003149562    -0.000002932874
      18       -0.000022871491    -0.000013894454    -0.000020727137

  **** Optimization is complete! (in 7 steps) ****
    Final optimized geometry and variables:
    Molecular point group: c1

    Geometry (in Angstrom), charge = 0, multiplicity = 1:

    H           -0.851100617632     1.799095837666    -3.376640613485
    C           -0.680043143049     1.324235392448    -2.429384042338
    C           -0.981892203737     1.994833667361    -1.256658414571
    C           -0.163304089416     0.043981522305    -2.384016316239
    H           -1.385816162947     2.987945260590    -1.293333406486
    C           -0.768420249230     1.382843466895    -0.039908146035
    H            0.061471682935    -0.479346767887    -3.293085512580
    C            0.061572000322    -0.565514408332    -1.164371933094
    H           -1.008631568676     1.884355790591     0.875708943977
    C           -0.237894893273     0.101735288837     0.012202858280
    H            0.452811525365    -1.562047749595    -1.127076123593
    C           -0.036721705741    -0.533540394372     1.349001606034
    O            0.737028071861    -1.634057913129     1.362151882518
    O           -0.532649126143    -0.125213956805     2.336046482995
    C            2.135312805454    -1.438294520759     1.337357446288
    H            2.439936849277    -0.864470394652     0.471370384952
    H            2.582281174159    -2.418138765979     1.293919390664
    H            2.459548251032    -0.934580305374     2.239037298755

  Mulliken Charges: (a.u.)
   Center  Symbol    Alpha    Beta     Spin     Total
       1     H     0.41957  0.41957  0.00000  0.16085
       2     C     3.07069  3.07069  0.00000 -0.14139
       3     C     3.07297  3.07297  0.00000 -0.14593
       4     C     3.07497  3.07497  0.00000 -0.14994
       5     H     0.41984  0.41984  0.00000  0.16033
       6     C     3.08078  3.08078  0.00000 -0.16155
       7     H     0.42065  0.42065  0.00000  0.15869
       8     C     3.08959  3.08959  0.00000 -0.17919
       9     H     0.40724  0.40724  0.00000  0.18552
      10     C     3.03233  3.03233  0.00000 -0.06466
      11     H     0.40763  0.40763  0.00000  0.18474
      12     C     2.76530  2.76530  0.00000  0.46940
      13     O     4.16669  4.16669  0.00000 -0.33337
      14     O     4.17816  4.17816  0.00000 -0.35632
      15     C     3.04550  3.04550  0.00000 -0.09100
      16     H     0.45813  0.45813  0.00000  0.08374
      17     H     0.44200  0.44200  0.00000  0.11600
      18     H     0.44795  0.44795  0.00000  0.10409

   Total alpha = 36.00000, Total beta = 36.00000, Total charge = -0.00000

*** Psi4 exiting successfully. Buy a developer a beer!
