  ==> Input File <==

--------------------------------------------------------------------------
set {
	reference rhf
	basis 6-31G*
}

set_num_threads( 1 )
memory 2 gb

molecule MOL {
0 1

O	 -2.219205	 -0.711905	 -1.030257
C	 -1.804321	 0.182983	 -0.367446
C	 -2.522306	 1.483252	 -0.126312
O	 -0.632575	 0.154573	 0.251549
H	 -1.914586	 2.308232	 -0.479911
H	 -3.470778	 1.474770	 -0.642224
H	 -2.679028	 1.623204	 0.936988
C	 0.160891	 -1.019931	 0.106212
C	 1.589627	 -0.672828	 0.480843
H	 0.089836	 -1.367806	 -0.916050
H	 -0.238459	 -1.792301	 0.749618
C	 2.246377	 0.346236	 -0.452210
H	 2.163194	 -1.597435	 0.473358
H	 1.604769	 -0.303424	 1.502885
C	 3.691736	 0.652107	 -0.061850
H	 2.219579	 -0.032311	 -1.472055
H	 1.666466	 1.263317	 -0.447249
H	 4.134505	 1.377213	 -0.737283
H	 4.305508	 -0.243868	 -0.089969
H	 3.748266	 1.059562	 0.943567

	symmetry c1
}
set optking {
	frozen_dihedral = ("
		16 12 9 8,
		12 9 8 10,
		1 2 4 8
	")
}

ee = energy('scf')
oeprop('DIPOLE', 'QUADRUPOLE', 'MULLIKEN_CHARGES')
f=open( 'psi4out.xyz', 'w' )
f.write( "20  " )
f.write( str(ee) + "\n" )
f.write( MOL.save_string_xyz() )
f.close()
--------------------------------------------------------------------------

    Molecular point group: c1

    Geometry (in Angstrom), charge = 0, multiplicity = 1:

       Center              X                  Y                   Z               Mass
    ------------   -----------------  -----------------  -----------------  -----------------
           O         -2.274771286796    -0.768295305597    -0.877916577878    15.994914619560
           C         -1.859887286796     0.126592694403    -0.215105577878    12.000000000000
           C         -2.577872286796     1.426861694403     0.026028422122    12.000000000000
           O         -0.688141286796     0.098182694403     0.403889422122    15.994914619560
           H         -1.970152286796     2.251841694403    -0.327570577878     1.007825032070
           H         -3.526344286796     1.418379694403    -0.489883577878     1.007825032070
           H         -2.734594286796     1.566813694403     1.089328422122     1.007825032070
           C          0.105324713204    -1.076321305597     0.258552422122    12.000000000000
           C          1.534060713204    -0.729218305597     0.633183422122    12.000000000000
           H          0.034269713204    -1.424196305597    -0.763709577878     1.007825032070
           H         -0.294025286796    -1.848691305597     0.901958422122     1.007825032070
           C          2.190810713204     0.289845694403    -0.299869577878    12.000000000000
           H          2.107627713204    -1.653825305597     0.625698422122     1.007825032070
           H          1.549202713204    -0.359814305597     1.655225422122     1.007825032070
           C          3.636169713204     0.595716694403     0.090490422122    12.000000000000
           H          2.164012713204    -0.088701305597    -1.319714577878     1.007825032070
           H          1.610899713204     1.206926694403    -0.294908577878     1.007825032070
           H          4.078938713204     1.320822694403    -0.584942577878     1.007825032070
           H          4.249941713204    -0.300258305597     0.062371422122     1.007825032070
           H          3.692699713204     1.003171694403     1.095907422122     1.007825032070

  Charge       = 0
  Multiplicity = 1
  Basis Set: 6-31G*
  Basis Set:

    Orbital Energies (a.u.)
    -----------------------

    Doubly Occupied:

       1A    -20.601967     2A    -20.543938     3A    -11.374831
       4A    -11.281383     5A    -11.233597     6A    -11.225039
       7A    -11.220673     8A    -11.213386     9A     -1.468177
      10A     -1.362349    11A     -1.085714    12A     -1.028453
      13A     -0.981340    14A     -0.880620    15A     -0.810130
      16A     -0.775938    17A     -0.690976    18A     -0.681454
      19A     -0.667557    20A     -0.631983    21A     -0.601667
      22A     -0.592793    23A     -0.572829    24A     -0.549180
      25A     -0.542279    26A     -0.534657    27A     -0.509109
      28A     -0.481496    29A     -0.477774    30A     -0.474148
      31A     -0.447644    32A     -0.438116

  @DF-RHF Final Energy:  -383.94514150844896

   => Energetics <=

    Nuclear Repulsion Energy =            386.4379476873297108
    One-Electron Energy =               -1288.8036634620016230
    Two-Electron Energy =                 518.4205742662234115
    DFT Exchange-Correlation Energy =       0.0000000000000000
    Empirical Dispersion Energy =           0.0000000000000000
    PCM Polarization Energy =               0.0000000000000000
    EFP Energy =                            0.0000000000000000
    Total Energy =                       -383.9451415084485006

  Mulliken Charges: (a.u.)
   Center  Symbol    Alpha    Beta     Spin     Total
       1     O     4.28324  4.28324  0.00000 -0.56649
       2     C     2.61928  2.61928  0.00000  0.76143
       3     C     3.28203  3.28203  0.00000 -0.56406
       4     O     4.30826  4.30826  0.00000 -0.61651
       5     H     0.40081  0.40081  0.00000  0.19837
       6     H     0.39681  0.39681  0.00000  0.20637
       7     H     0.40042  0.40042  0.00000  0.19915
       8     C     3.00526  3.00526  0.00000 -0.01051
       9     C     3.16425  3.16425  0.00000 -0.32850
      10     H     0.40408  0.40408  0.00000  0.19183
      11     H     0.41182  0.41182  0.00000  0.17637
      12     C     3.15528  3.15528  0.00000 -0.31057
      13     H     0.41863  0.41863  0.00000  0.16275
      14     H     0.41470  0.41470  0.00000  0.17061
      15     C     3.24027  3.24027  0.00000 -0.48054
      16     H     0.42210  0.42210  0.00000  0.15580
      17     H     0.41313  0.41313  0.00000  0.17373
      18     H     0.41754  0.41754  0.00000  0.16493
      19     H     0.42154  0.42154  0.00000  0.15691
      20     H     0.42055  0.42055  0.00000  0.15891

   Total alpha = 32.00000, Total beta = 32.00000, Total charge = -0.00000
