                              Psi4 1.0.54 Driver

  ==> Input File <==

--------------------------------------------------------------------------
set {
	reference rhf
	basis cc-pvtz
}

set_num_threads( 4 )
memory 2 gb

molecule MOL {
0 1

H	 0.793134	 -2.717512	 2.344459
O	 1.062012	 -2.228030	 1.581696
C	 0.261946	 -1.172796	 1.455969
C	 0.626018	 -0.337582	 0.258241
O	 -0.616632	 -0.956511	 2.216997
C	 -0.267326	 0.883135	 0.076490
H	 1.668903	 -0.066789	 0.371909
H	 0.581232	 -0.989296	 -0.608763
C	 -1.726822	 0.642622	 0.463839
H	 -0.210803	 1.217591	 -0.953497
H	 0.129920	 1.693110	 0.675679
C	 -2.480891	 -0.340606	 -0.429852
H	 -2.243098	 1.597649	 0.438609
H	 -1.776542	 0.301208	 1.495542
C	 -3.955933	 -0.460128	 -0.060472
H	 -2.393755	 -0.020485	 -1.464726
H	 -2.024244	 -1.323637	 -0.374360
H	 -4.467673	 -1.160944	 -0.709827
H	 -4.458917	 0.497287	 -0.144505
H	 -4.076458	 -0.806900	 0.960497

	symmetry c1
}
set optking {
	frozen_dihedral = ("
		7 4 6 10
	")
}

ee,wfn = optimize('scf', return_wfn=True)
oeprop( wfn, 'DIPOLE', 'QUADRUPOLE', 'MULLIKEN_CHARGES')
f=open( 'psi4out.xyz', 'w' )
f.write( "20  " )
f.write( str(ee) + "\n" )
f.write( MOL.save_string_xyz() )
f.close()
--------------------------------------------------------------------------

    Molecular point group: c1
  Charge       = 0
  Multiplicity = 1
  Basis Set: CC-PVTZ
  Basis Set:
  @DF-RHF Final Energy:  -384.07714562427623
    Total Energy =                       -384.0771456242764543
    Molecular point group: c1
  Basis Set: CC-PVTZ
  Basis Set:
  Basis Set: CC-PVTZ
  Basis Set:
  @DF-RHF Final Energy:  -384.08660064671994
    Total Energy =                       -384.0866006467202851
  Basis Set: CC-PVTZ
  Basis Set:
  Basis Set: CC-PVTZ
  Basis Set:
  @DF-RHF Final Energy:  -384.08835045688619
    Total Energy =                       -384.0883504568861326
  Basis Set: CC-PVTZ
  Basis Set:
  Basis Set: CC-PVTZ
  Basis Set:
  @DF-RHF Final Energy:  -384.08883533715658
    Total Energy =                       -384.0888353371560697
  Basis Set: CC-PVTZ
  Basis Set:
  @DF-RHF Final Energy:  -384.08913451018242
    Total Energy =                       -384.0891345101824754
  @DF-RHF Final Energy:  -384.08935723084988
    Total Energy =                       -384.0893572308499415
  @DF-RHF Final Energy:  -384.08970922739894
    Total Energy =                       -384.0897092273991120
  @DF-RHF Final Energy:  -384.08997163199274
    Total Energy =                       -384.0899716319927393
  @DF-RHF Final Energy:  -384.09039645031413
    Total Energy =                       -384.0903964503138468
  @DF-RHF Final Energy:  -384.09055231106237
    Total Energy =                       -384.0905523110624245
  @DF-RHF Final Energy:  -384.09064804939896
    Total Energy =                       -384.0906480493989648
  @DF-RHF Final Energy:  -384.09072866375851
    Total Energy =                       -384.0907286637581137
  @DF-RHF Final Energy:  -384.09089827957297
    Total Energy =                       -384.0908982795732527
  @DF-RHF Final Energy:  -384.09096331579906
    Total Energy =                       -384.0909633157987173
  @DF-RHF Final Energy:  -384.09102247002403
    Total Energy =                       -384.0910224700239723
  Basis Set: CC-PVTZ
  Basis Set:
  @DF-RHF Final Energy:  -384.09103697611812
    Total Energy =                       -384.0910369761181755
  Basis Set: CC-PVTZ
  Basis Set:
  Basis Set: CC-PVTZ
  Basis Set:
  @DF-RHF Final Energy:  -384.09104442829192
    Total Energy =                       -384.0910444282922072
  Basis Set: CC-PVTZ
  Basis Set:
  Basis Set: CC-PVTZ
  Basis Set:
  @DF-RHF Final Energy:  -384.09104876802201
    Total Energy =                       -384.0910487680218921
  Basis Set: CC-PVTZ
  Basis Set:
  Charge       = 0
  Multiplicity = 1
  Basis Set: CC-PVTZ
  Basis Set:

    Orbital Energies (a.u.)
    -----------------------

    Doubly Occupied:

       1A    -20.606378     2A    -20.538657     3A    -11.374077
       4A    -11.239177     5A    -11.225828     6A    -11.216020
       7A    -11.211964     8A    -11.207628     9A     -1.478531
      10A     -1.368829    11A     -1.095267    12A     -1.038920
      13A     -0.959903    14A     -0.873093    15A     -0.817766
      16A     -0.776195    17A     -0.706524    18A     -0.685770
      19A     -0.664260    20A     -0.635301    21A     -0.609555
      22A     -0.592793    23A     -0.576801    24A     -0.557375
      25A     -0.535815    26A     -0.515850    27A     -0.500144
      28A     -0.484857    29A     -0.469586    30A     -0.464805
      31A     -0.455642    32A     -0.439067

  @DF-RHF Final Energy:  -384.09104989963356

   => Energetics <=

    Nuclear Repulsion Energy =            391.7973789401574436
    One-Electron Energy =               -1299.9321068936242227
    Two-Electron Energy =                 524.0436780538329913
    DFT Exchange-Correlation Energy =       0.0000000000000000
    Empirical Dispersion Energy =           0.0000000000000000
    PCM Polarization Energy =               0.0000000000000000
    EFP Energy =                            0.0000000000000000
    Total Energy =                       -384.0910498996338447
    Molecular point group: c1
  Basis Set: CC-PVTZ
  Basis Set:

  -Total Gradient:
     Atom            X                  Y                   Z
    ------   -----------------  -----------------  -----------------
       1        0.000001394040    -0.000001334073     0.000004623908
       2        0.000024580280    -0.000123577207    -0.000059004612
       3        0.000016711469    -0.000029739914    -0.000150694620
       4       -0.000155045421    -0.000752949321    -0.007484029462
       5       -0.000044394142     0.000142903804     0.000206424888
       6        0.005319161263     0.003964034555     0.003100825777
       7       -0.000622235845     0.000066778974     0.005841648268
       8        0.000000631142     0.000002705412     0.000002187890
       9        0.000015717085     0.000000105633     0.000014469588
      10       -0.004547799686    -0.003274718573    -0.001453701714
      11        0.000003770687     0.000002828436    -0.000009505518
      12       -0.000014643525     0.000005104104    -0.000009527945
      13       -0.000001475381     0.000005207532    -0.000001554400
      14        0.000001741162     0.000003941281     0.000006083798
      15        0.000001976703    -0.000003442882    -0.000004474230
      16       -0.000001481987    -0.000000513201    -0.000010527818
      17        0.000007505617    -0.000009601301     0.000000162005
      18        0.000000964850    -0.000002272635    -0.000001589814
      19       -0.000004428887     0.000006990237    -0.000000488941
      20       -0.000002649422    -0.000002450860     0.000008672952

  **** Optimization is complete! (in 19 steps) ****
    Final optimized geometry and variables:
    Molecular point group: c1

    Geometry (in Angstrom), charge = 0, multiplicity = 1:

    H            1.225458739558    -2.420229153443     1.383837764245
    O            1.335423236498    -1.966503808686     0.561297068317
    C            1.217384772967    -0.661630452240     0.784579163806
    C            1.457830405222     0.162460272380    -0.455191094558
    O            0.994474317808    -0.227693532259     1.862920081840
    C            0.584287768645     1.420785358002    -0.563881855334
    H            2.496702070911     0.461825158643    -0.347907698255
    H            1.378285542721    -0.470641244568    -1.325200937179
    C           -0.907805060236     1.229868699336    -0.271126655825
    H            0.661616288527     1.768915506042    -1.589233442769
    H            0.977380554308     2.191897065613     0.084514420883
    C           -1.609680399120     0.230811927409    -1.189875485803
    H           -1.388346475576     2.198128820543    -0.379396412624
    H           -1.047212236554     0.936333460482     0.761996632306
    C           -3.109062547962     0.140841621758    -0.924653153028
    H           -1.444167568233     0.514870452712    -2.226289575535
    H           -1.172590546408    -0.756532188462    -1.072558471754
    H           -3.582806018867    -0.575801215265    -1.585645377963
    H           -3.590980857814     1.100808589698    -1.076602249777
    H           -3.306504422626    -0.168636245904     0.096066194524

  Mulliken Charges: (a.u.)
   Center  Symbol    Alpha    Beta     Spin     Total
       1     H     0.38078  0.38078  0.00000  0.23844
       2     O     4.16157  4.16157  0.00000 -0.32314
       3     C     2.79636  2.79636  0.00000  0.40728
       4     C     3.12371  3.12371  0.00000 -0.24741
       5     O     4.19826  4.19826  0.00000 -0.39652
       6     C     3.09224  3.09224  0.00000 -0.18448
       7     H     0.43177  0.43177  0.00000  0.13646
       8     H     0.43101  0.43101  0.00000  0.13797
       9     C     3.11208  3.11208  0.00000 -0.22417
      10     H     0.44785  0.44785  0.00000  0.10429
      11     H     0.44023  0.44023  0.00000  0.11954
      12     C     3.08660  3.08660  0.00000 -0.17320
      13     H     0.44576  0.44576  0.00000  0.10849
      14     H     0.43809  0.43809  0.00000  0.12383
      15     C     3.14994  3.14994  0.00000 -0.29988
      16     H     0.45369  0.45369  0.00000  0.09262
      17     H     0.45411  0.45411  0.00000  0.09179
      18     H     0.44847  0.44847  0.00000  0.10305
      19     H     0.45443  0.45443  0.00000  0.09114
      20     H     0.45305  0.45305  0.00000  0.09391

   Total alpha = 32.00000, Total beta = 32.00000, Total charge = -0.00000

*** Psi4 exiting successfully. Buy a developer a beer!
