  ==> Input File <==

--------------------------------------------------------------------------
set {
	reference rhf
	basis cc-pvtz
}

set_num_threads( 4 )
memory 2 gb

molecule MOL {
0 1

H	 -1.088256	 -1.364742	 0.152233
O	 -1.432053	 -0.565244	 -0.200812
C	 -0.727158	 0.534527	 0.310686
C	 0.680222	 0.664433	 -0.252229
H	 -1.306802	 1.408001	 0.044211
H	 -0.690821	 0.490158	 1.397609
C	 1.431686	 -0.659835	 -0.350534
H	 0.619883	 1.125329	 -1.232619
H	 1.234360	 1.347640	 0.385586
H	 0.938666	 -1.348181	 -1.028203
H	 2.437076	 -0.508743	 -0.724586
H	 1.510246	 -1.140675	 0.619815

	symmetry c1
}
set optking {
	frozen_dihedral = ("
		8 4 3 2
	")
}

ee = optimize('scf')
oeprop('DIPOLE', 'QUADRUPOLE', 'MULLIKEN_CHARGES')
f=open( 'psi4out.xyz', 'w' )
f.write( "12  " )
f.write( str(ee) + "\n" )
f.write( MOL.save_string_xyz() )
f.close()
--------------------------------------------------------------------------

    Molecular point group: c1
  Charge       = 0
  Multiplicity = 1
  Basis Set: CC-PVTZ
  Basis Set:
  @DF-RHF Final Energy:  -193.18827229659266
    Total Energy =                       -193.1882722965927712
    Molecular point group: c1
  Basis Set: CC-PVTZ
  Basis Set:
  Basis Set: CC-PVTZ
  Basis Set:
  @DF-RHF Final Energy:  -193.18857488627413
    Total Energy =                       -193.1885748862742389
  Basis Set: CC-PVTZ
  Basis Set:
  Basis Set: CC-PVTZ
  Basis Set:
  @DF-RHF Final Energy:  -193.18865603219467
    Total Energy =                       -193.1886560321946718
  Basis Set: CC-PVTZ
  Basis Set:
  Basis Set: CC-PVTZ
  Basis Set:
  @DF-RHF Final Energy:  -193.18865852643665
    Total Energy =                       -193.1886585264368250
  Basis Set: CC-PVTZ
  Basis Set:
  Charge       = 0
  Multiplicity = 1
  Basis Set: CC-PVTZ
  Basis Set:

    Orbital Energies (a.u.)
    -----------------------

    Doubly Occupied:

       1A    -20.545681     2A    -11.266380     3A    -11.217446
       4A    -11.214595     5A     -1.364253     6A     -1.050523
       7A     -0.929858     8A     -0.808853     9A     -0.697714
      10A     -0.634997    11A     -0.611156    12A     -0.587571
      13A     -0.534977    14A     -0.512909    15A     -0.497253
      16A     -0.465495    17A     -0.431934

  @DF-RHF Final Energy:  -193.18865926256098

   => Energetics <=

    Nuclear Repulsion Energy =            133.5214718854600733
    One-Electron Energy =                -526.6770745736861272
    Two-Electron Energy =                 199.9669434256651641
    DFT Exchange-Correlation Energy =       0.0000000000000000
    Empirical Dispersion Energy =           0.0000000000000000
    PCM Polarization Energy =               0.0000000000000000
    EFP Energy =                            0.0000000000000000
    Total Energy =                       -193.1886592625608898
    Molecular point group: c1
  Basis Set: CC-PVTZ
  Basis Set:

  -Total Gradient:
     Atom            X                  Y                   Z
    ------   -----------------  -----------------  -----------------
       1        0.000000058530    -0.000013853141     0.000005310826
       2        0.001416608726    -0.002290711540     0.002918492609
       3       -0.001789567970     0.004276683767    -0.003518729726
       4       -0.000139447241    -0.006429974723    -0.001519761941
       5       -0.000021206516    -0.000009731532    -0.000005694147
       6       -0.000009865873    -0.000017924677    -0.000003593232
       7        0.000021737572     0.000012297787    -0.000016152498
       8        0.000502196423     0.004461729992     0.002120922911
       9        0.000030094885     0.000008938252     0.000016366096
      10       -0.000005892893     0.000010519654     0.000009493681
      11        0.000003264654    -0.000012184646    -0.000007283733
      12       -0.000007980297     0.000004210805     0.000000629154

  **** Optimization is complete! (in 5 steps) ****
    Final optimized geometry and variables:
    Molecular point group: c1

    Geometry (in Angstrom), charge = 0, multiplicity = 1:

    H           -1.068694180856    -1.315466099456     0.252973894485
    O           -1.419065504175    -0.506920627422    -0.070958181202
    C           -0.678510121756     0.573521644698     0.430157967267
    C            0.726690163149     0.693032979811    -0.156564426777
    H           -1.248405243821     1.464511916690     0.206780213671
    H           -0.610974101330     0.497970121376     1.513770958480
    C            1.497073465338    -0.619646058352    -0.227352317025
    H            0.676913039112     1.164078835464    -1.132847702358
    H            1.273525445026     1.393468932511     0.470330521828
    H            1.028078785881    -1.318038758550    -0.909274649185
    H            2.508981844561    -0.452507248012    -0.575488763700
    H            1.563104975618    -1.091448950846     0.749327029617

  Mulliken Charges: (a.u.)
   Center  Symbol    Alpha    Beta     Spin     Total
       1     H     0.39061  0.39061  0.00000  0.21878
       2     O     4.20581  4.20581  0.00000 -0.41163
       3     C     2.97772  2.97772  0.00000  0.04456
       4     C     3.08030  3.08030  0.00000 -0.16060
       5     H     0.45081  0.45081  0.00000  0.09837
       6     H     0.47031  0.47031  0.00000  0.05938
       7     C     3.16416  3.16416  0.00000 -0.32832
       8     H     0.45285  0.45285  0.00000  0.09431
       9     H     0.45788  0.45788  0.00000  0.08424
      10     H     0.44907  0.44907  0.00000  0.10186
      11     H     0.44511  0.44511  0.00000  0.10978
      12     H     0.45536  0.45536  0.00000  0.08928

   Total alpha = 17.00000, Total beta = 17.00000, Total charge = -0.00000
