  ==> Input File <==

--------------------------------------------------------------------------
set {
	reference rhf
	basis 6-31G*
}

set_num_threads( 4 )
memory 2 gb

molecule MOL {
0 1

O	 1.214711	 1.306902	 -0.000018
C	 1.122059	 0.121804	 -0.000188
C	 -0.170150	 -0.657997	 -0.000612
O	 2.172624	 -0.688929	 0.000216
C	 -1.412532	 0.227344	 -0.000452
H	 -0.153702	 -1.313099	 -0.867402
H	 -0.153924	 -1.313811	 0.865644
C	 -1.070597	 1.708954	 0.164712
H	 -2.077333	 -0.088163	 0.797670
H	 -1.959884	 0.076909	 -0.925805
C	 -2.309572	 2.603351	 0.164670
H	 -0.521592	 1.853978	 1.092956
H	 -0.402268	 2.019177	 -0.636018
H	 -2.982227	 2.340390	 0.975867
H	 -2.039573	 3.647993	 0.283418
H	 -2.861696	 2.507238	 -0.765685
C	 3.452279	 -0.082609	 0.000533
H	 3.583069	 0.529321	 -0.880332
H	 4.163299	 -0.894027	 0.001117
H	 3.582335	 0.529955	 0.881077

	symmetry c1
}
set optking {
	frozen_dihedral = ("
		9 5 3 6
	")
}

ee = optimize('scf')
oeprop('DIPOLE', 'QUADRUPOLE', 'MULLIKEN_CHARGES')
f=open( 'psi4out.xyz', 'w' )
f.write( "20  " )
f.write( str(ee) + "\n" )
f.write( MOL.save_string_xyz() )
f.close()
--------------------------------------------------------------------------

    Molecular point group: c1
  Charge       = 0
  Multiplicity = 1
  Basis Set: 6-31G*
  Basis Set:
  @DF-RHF Final Energy:  -383.90236124982829
    Total Energy =                       -383.9023612498282318
    Molecular point group: c1
  Basis Set: 6-31G*
  Basis Set:
  Basis Set: 6-31G*
  Basis Set:
  @DF-RHF Final Energy:  -383.92316869251329
    Total Energy =                       -383.9231686925132863
  Basis Set: 6-31G*
  Basis Set:
  Basis Set: 6-31G*
  Basis Set:
  @DF-RHF Final Energy:  -383.92696275179276
    Total Energy =                       -383.9269627517927574
  Basis Set: 6-31G*
  Basis Set:
  Basis Set: 6-31G*
  Basis Set:
  @DF-RHF Final Energy:  -383.92558603741560
    Total Energy =                       -383.9255860374155418
  Basis Set: 6-31G*
  Basis Set:
  @DF-RHF Final Energy:  -383.92884458014612
    Total Energy =                       -383.9288445801462331
  @DF-RHF Final Energy:  -383.92903012043132
    Total Energy =                       -383.9290301204313209
  @DF-RHF Final Energy:  -383.92902287071774
    Total Energy =                       -383.9290228707175174
  @DF-RHF Final Energy:  -383.92920368012830
    Total Energy =                       -383.9292036801280119
  @DF-RHF Final Energy:  -383.92944160160630
    Total Energy =                       -383.9294416016065270
  @DF-RHF Final Energy:  -383.92456325185424
    Total Energy =                       -383.9245632518538969
  @DF-RHF Final Energy:  -383.92962677343672
    Total Energy =                       -383.9296267734366666
  @DF-RHF Final Energy:  -383.93026956622845
    Total Energy =                       -383.9302695662283895
  @DF-RHF Final Energy:  -383.93066143299512
    Total Energy =                       -383.9306614329948388
  @DF-RHF Final Energy:  -383.93105668493911
    Total Energy =                       -383.9310566849392217
  @DF-RHF Final Energy:  -383.93132381204634
    Total Energy =                       -383.9313238120457754
  @DF-RHF Final Energy:  -383.93156063727105
    Total Energy =                       -383.9315606372708771
  @DF-RHF Final Energy:  -383.93197762598902
    Total Energy =                       -383.9319776259890205
  @DF-RHF Final Energy:  -383.93227360747835
    Total Energy =                       -383.9322736074784643
  @DF-RHF Final Energy:  -383.93234000078854
    Total Energy =                       -383.9323400007884857
  Basis Set: 6-31G*
  Basis Set:
  @DF-RHF Final Energy:  -383.93233740879845
    Total Energy =                       -383.9323374087981620
  Basis Set: 6-31G*
  Basis Set:
  Basis Set: 6-31G*
  Basis Set:
  @DF-RHF Final Energy:  -383.93238906463131
    Total Energy =                       -383.9323890646312520
  Basis Set: 6-31G*
  Basis Set:
  Basis Set: 6-31G*
  Basis Set:
  @DF-RHF Final Energy:  -383.93239114847319
    Total Energy =                       -383.9323911484732434
  Basis Set: 6-31G*
  Basis Set:
  Charge       = 0
  Multiplicity = 1
  Basis Set: 6-31G*
  Basis Set:

    Orbital Energies (a.u.)
    -----------------------

    Doubly Occupied:

       1A    -20.605000     2A    -20.542589     3A    -11.371085
       4A    -11.280618     5A    -11.233970     6A    -11.230783
       7A    -11.220009     8A    -11.212707     9A     -1.468928
      10A     -1.361029    11A     -1.087610    12A     -1.021938
      13A     -0.967766    14A     -0.890423    15A     -0.813486
      16A     -0.767883    17A     -0.687169    18A     -0.677810
      19A     -0.674056    20A     -0.644298    21A     -0.594582
      22A     -0.592662    23A     -0.581655    24A     -0.554498
      25A     -0.529594    26A     -0.519970    27A     -0.512967
      28A     -0.483916    29A     -0.472687    30A     -0.467212
      31A     -0.452427    32A     -0.431137

  @DF-RHF Final Energy:  -383.93239139623614

   => Energetics <=

    Nuclear Repulsion Energy =            394.9925610852440627
    One-Electron Energy =               -1305.9449770152300516
    Two-Electron Energy =                 527.0200245337500746
    DFT Exchange-Correlation Energy =       0.0000000000000000
    Empirical Dispersion Energy =           0.0000000000000000
    PCM Polarization Energy =               0.0000000000000000
    EFP Energy =                            0.0000000000000000
    Total Energy =                       -383.9323913962359711
    Molecular point group: c1
  Basis Set: 6-31G*
  Basis Set:

  -Total Gradient:
     Atom            X                  Y                   Z
    ------   -----------------  -----------------  -----------------
       1        0.000000055237    -0.000007866197     0.000009739795
       2       -0.000007784088     0.000020756583    -0.000041493726
       3       -0.001028257586    -0.001636531641     0.001433892467
       4        0.000012017665    -0.000019771708     0.000023744378
       5       -0.001276122649    -0.000707455739    -0.001806066395
       6        0.001064512945     0.001480172967    -0.000924275349
       7       -0.000005826620    -0.000001647498    -0.000003265311
       8       -0.000006925860    -0.000015157645    -0.000006130940
       9        0.001252368072     0.000884376378     0.001309880168
      10       -0.000002329467    -0.000005205242     0.000000954100
      11       -0.000000290137    -0.000000077798    -0.000000917553
      12        0.000007472310    -0.000006174788     0.000008659091
      13        0.000000484553     0.000001409914    -0.000006631985
      14        0.000002398731     0.000001411619     0.000003632944
      15        0.000001706236    -0.000001409277    -0.000003921300
      16       -0.000000990313    -0.000003805991     0.000000477074
      17       -0.000024392685     0.000030024224     0.000004227636
      18       -0.000003903217    -0.000006550895    -0.000002952249
      19        0.000001168879    -0.000005472405    -0.000001174536
      20        0.000014637992    -0.000001024861     0.000001621696

  **** Optimization is complete! (in 23 steps) ****
    Final optimized geometry and variables:
    Molecular point group: c1

    Geometry (in Angstrom), charge = 0, multiplicity = 1:

    O            1.151692911495    -0.229849691559    -1.523625389353
    C            0.710188024457    -0.684619985761    -0.516855538931
    C           -0.670658260689    -1.280704605198    -0.376319231673
    O            1.391098640630    -0.717069270316     0.621496378178
    C           -1.777527778666    -0.248194303233    -0.007092578574
    H           -0.893873753493    -1.725283011758    -1.336969842718
    H           -0.626885385866    -2.065892522245     0.366492430089
    C           -1.298091073170     1.150775835220     0.397349295019
    H           -2.355557165478    -0.654110110931     0.816824382696
    H           -2.456446842605    -0.151707396658    -0.847370520998
    C           -2.465207784148     2.073112336354     0.747457600528
    H           -0.630051594134     1.075778289613     1.250719994645
    H           -0.724273296514     1.590240551744    -0.413199794096
    H           -3.043071337660     1.679164147068     1.578759766078
    H           -2.111100994503     3.059633639515     1.029103516706
    H           -3.138390784147     2.192132061890    -0.096656769076
    C            2.693568595165    -0.161384189531     0.605706238260
    H            3.319705025210    -0.683061422748    -0.103519408739
    H            3.078745034057    -0.283500892418     1.606048118245
    H            2.656393489756     0.886177757974     0.343479296792

  Mulliken Charges: (a.u.)
   Center  Symbol    Alpha    Beta     Spin     Total
       1     O     4.28507  4.28507  0.00000 -0.57014
       2     C     2.61947  2.61947  0.00000  0.76106
       3     C     3.19798  3.19798  0.00000 -0.39597
       4     O     4.30204  4.30204  0.00000 -0.60409
       5     C     3.15381  3.15381  0.00000 -0.30763
       6     H     0.39801  0.39801  0.00000  0.20397
       7     H     0.40167  0.40167  0.00000  0.19666
       8     C     3.17099  3.17099  0.00000 -0.34197
       9     H     0.41563  0.41563  0.00000  0.16874
      10     H     0.41307  0.41307  0.00000  0.17387
      11     C     3.23968  3.23968  0.00000 -0.47936
      12     H     0.41458  0.41458  0.00000  0.17084
      13     H     0.41016  0.41016  0.00000  0.17968
      14     H     0.42142  0.42142  0.00000  0.15716
      15     H     0.41709  0.41709  0.00000  0.16582
      16     H     0.42009  0.42009  0.00000  0.15981
      17     C     3.09295  3.09295  0.00000 -0.18589
      18     H     0.40821  0.40821  0.00000  0.18358
      19     H     0.40883  0.40883  0.00000  0.18234
      20     H     0.40925  0.40925  0.00000  0.18150

   Total alpha = 32.00000, Total beta = 32.00000, Total charge =  0.00000
