                              Psi4 1.0.54 Driver

  ==> Input File <==

--------------------------------------------------------------------------
set {
	reference rhf
	basis cc-pvtz
}

set_num_threads( 4 )
memory 2 gb

molecule MOL {
0 1

O	 0.579920	 -0.208286	 -0.172106
C	 1.704209	 0.119472	 -0.000093
C	 2.177669	 1.529436	 0.243790
O	 2.715427	 -0.733672	 0.000025
C	 1.057354	 2.559531	 0.254838
H	 2.719375	 1.527760	 1.184003
H	 2.913679	 1.757333	 -0.520274
C	 1.571899	 3.974190	 0.503839
H	 0.333254	 2.291754	 1.015922
H	 0.527612	 2.521407	 -0.690260
C	 0.462415	 5.021718	 0.517954
H	 2.104276	 4.004963	 1.451931
H	 2.299961	 4.235297	 -0.261005
C	 0.976555	 6.435542	 0.767300
H	 -0.264847	 4.762445	 1.282168
H	 -0.068953	 4.992994	 -0.429138
H	 1.483535	 6.504961	 1.724058
H	 0.164469	 7.153341	 0.771247
H	 1.680677	 6.737490	 -0.000993
C	 4.020999	 -0.192556	 0.000019
H	 4.182809	 0.412891	 -0.879449
H	 4.692590	 -1.035653	 0.000152
H	 4.182726	 0.413087	 0.879368

	symmetry c1
}
set optking {
	frozen_dihedral = ("
		1 2 4 20
	")
}

ee,wfn = optimize('scf', return_wfn=True)
oeprop( wfn, 'DIPOLE', 'QUADRUPOLE', 'MULLIKEN_CHARGES')
f=open( 'psi4out.xyz', 'w' )
f.write( "23  " )
f.write( str(ee) + "\n" )
f.write( MOL.save_string_xyz() )
f.close()
--------------------------------------------------------------------------

    Molecular point group: c1
  Charge       = 0
  Multiplicity = 1
  Basis Set: CC-PVTZ
  Basis Set:
  @DF-RHF Final Energy:  -423.10551182385825
    Total Energy =                       -423.1055118238577961
    Molecular point group: c1
  Basis Set: CC-PVTZ
  Basis Set:
  Basis Set: CC-PVTZ
  Basis Set:
  @DF-RHF Final Energy:  -423.04352300858523
    Total Energy =                       -423.0435230085855665
  Basis Set: CC-PVTZ
  Basis Set:
  Basis Set: CC-PVTZ
  Basis Set:
  @DF-RHF Final Energy:  -423.10668488606007
    Total Energy =                       -423.1066848860597247
  Basis Set: CC-PVTZ
  Basis Set:
  Basis Set: CC-PVTZ
  Basis Set:
  @DF-RHF Final Energy:  -423.11528417222206
    Total Energy =                       -423.1152841722212088
  Basis Set: CC-PVTZ
  Basis Set:
  @DF-RHF Final Energy:  -423.11670239271177
    Total Energy =                       -423.1167023927122273
  Basis Set: CC-PVTZ
  Basis Set:
  @DF-RHF Final Energy:  -423.11650973762369
    Total Energy =                       -423.1165097376241420
  Basis Set: CC-PVTZ
  Basis Set:
  Basis Set: CC-PVTZ
  Basis Set:
  @DF-RHF Final Energy:  -423.11674451129687
    Total Energy =                       -423.1167445112967016
  Basis Set: CC-PVTZ
  Basis Set:
  Basis Set: CC-PVTZ
  Basis Set:
  @DF-RHF Final Energy:  -423.11675096519713
    Total Energy =                       -423.1167509651969567
  Basis Set: CC-PVTZ
  Basis Set:
  Charge       = 0
  Multiplicity = 1
  Basis Set: CC-PVTZ
  Basis Set:

    Orbital Energies (a.u.)
    -----------------------

    Doubly Occupied:

       1A    -20.594549     2A    -20.527594     3A    -11.365976
       4A    -11.293140     5A    -11.243370     6A    -11.221114
       7A    -11.219763     8A    -11.217283     9A    -11.210263
      10A     -1.465641    11A     -1.367104    12A     -1.097701
      13A     -1.042848    14A     -0.987478    15A     -0.953421
      16A     -0.855048    17A     -0.799789    18A     -0.767537
      19A     -0.702357    20A     -0.692135    21A     -0.675097
      22A     -0.656195    23A     -0.613397    24A     -0.604240
      25A     -0.580411    26A     -0.567679    27A     -0.564173
      28A     -0.537533    29A     -0.522783    30A     -0.511113
      31A     -0.490282    32A     -0.472926    33A     -0.469671
      34A     -0.465665    35A     -0.450388    36A     -0.432190

  @DF-RHF Final Energy:  -423.11675139521446

   => Energetics <=

    Nuclear Repulsion Energy =            455.6938138927040427
    One-Electron Energy =               -1479.1454279826280072
    Two-Electron Energy =                 600.3348626947097273
    DFT Exchange-Correlation Energy =       0.0000000000000000
    Empirical Dispersion Energy =           0.0000000000000000
    PCM Polarization Energy =               0.0000000000000000
    EFP Energy =                            0.0000000000000000
    Total Energy =                       -423.1167513952142372
    Molecular point group: c1
  Basis Set: CC-PVTZ
  Basis Set:

  -Total Gradient:
     Atom            X                  Y                   Z
    ------   -----------------  -----------------  -----------------
       1        0.000162486874     0.000342042586    -0.000993428356
       2       -0.000201961830    -0.000409505439     0.000848663095
       3        0.000007030981    -0.000009365768     0.000026761126
       4       -0.000135894008    -0.000125666374     0.001017811441
       5       -0.000011980755    -0.000000236101    -0.000007192913
       6        0.000001916782     0.000015832533     0.000006344522
       7        0.000019266160    -0.000006366798    -0.000007990867
       8        0.000012401330    -0.000010255620    -0.000000589287
       9       -0.000002821663     0.000006379924    -0.000001693079
      10       -0.000002346891     0.000001971150     0.000006173843
      11       -0.000005848119    -0.000000683898    -0.000001049220
      12        0.000001249312    -0.000001022046    -0.000002594269
      13        0.000001188931    -0.000003955938     0.000000814010
      14        0.000000754985    -0.000009858758    -0.000003199212
      15       -0.000000810747     0.000004813769    -0.000000990507
      16       -0.000000509304     0.000002630359     0.000004056032
      17       -0.000000010427    -0.000001110900    -0.000003572073
      18       -0.000003017326    -0.000000302071    -0.000000470679
      19       -0.000000363669    -0.000002686685     0.000001177770
      20        0.000095358454     0.000219362156    -0.000858855893
      21       -0.000000544883     0.000020427830    -0.000015266245
      22        0.000033954429    -0.000024712139    -0.000004816931
      23        0.000030501382    -0.000007731773    -0.000010092310

  **** Optimization is complete! (in 9 steps) ****
    Final optimized geometry and variables:
    Molecular point group: c1

    Geometry (in Angstrom), charge = 0, multiplicity = 1:

    O           -1.034948016227    -1.995837391857    -0.959767005409
    C            0.070013205407    -1.761322355357    -0.622109884418
    C            0.495635797023    -0.434976797154    -0.030668952875
    O            0.995941868133    -2.710529104655    -0.748749027267
    C           -0.650396831011     0.561416449737     0.083205328502
    H            0.931149089365    -0.625500306748     0.945381814919
    H            1.294149231614    -0.023707731332    -0.639588441822
    C           -0.204242587123     1.890901326863     0.684526532251
    H           -1.439157697354     0.128215851458     0.686318336496
    H           -1.078477504269     0.724120421104    -0.898655447999
    C           -1.340285639774     2.902323656823     0.807261083339
    H            0.227777335362     1.718947813172     1.668108632487
    H            0.589295760540     2.318332140177     0.075155117984
    C           -0.896302358763     4.231668304916     1.408013494070
    H           -2.132774448103     2.477621314016     1.416728353239
    H           -1.771937614046     3.076090360673    -0.174258689220
    H           -0.491249169769     4.095214316954     2.405300681138
    H           -1.725770411010     4.925376782066     1.480880350236
    H           -0.127484747780     4.698656617593     0.801271399118
    C            2.369727900362    -2.476548671147    -0.571069078855
    H            2.744597318500    -1.753123766802    -1.283297116930
    H            2.855485063334    -3.422433165650    -0.747608356972
    H            2.599139038959    -2.148108282986     0.433653496334

  Mulliken Charges: (a.u.)
   Center  Symbol    Alpha    Beta     Spin     Total
       1     O     4.18130  4.18130  0.00000 -0.36261
       2     C     2.80314  2.80314  0.00000  0.39372
       3     C     3.13896  3.13896  0.00000 -0.27793
       4     O     4.12856  4.12856  0.00000 -0.25711
       5     C     3.08230  3.08230  0.00000 -0.16459
       6     H     0.43947  0.43947  0.00000  0.12106
       7     H     0.44130  0.44130  0.00000  0.11739
       8     C     3.08777  3.08777  0.00000 -0.17553
       9     H     0.44310  0.44310  0.00000  0.11380
      10     H     0.44363  0.44363  0.00000  0.11275
      11     C     3.08528  3.08528  0.00000 -0.17055
      12     H     0.45642  0.45642  0.00000  0.08716
      13     H     0.45668  0.45668  0.00000  0.08665
      14     C     3.15018  3.15018  0.00000 -0.30036
      15     H     0.45232  0.45232  0.00000  0.09535
      16     H     0.45246  0.45246  0.00000  0.09509
      17     H     0.45542  0.45542  0.00000  0.08917
      18     H     0.44712  0.44712  0.00000  0.10575
      19     H     0.45551  0.45551  0.00000  0.08899
      20     C     3.04604  3.04604  0.00000 -0.09208
      21     H     0.45975  0.45975  0.00000  0.08051
      22     H     0.43226  0.43226  0.00000  0.13547
      23     H     0.46104  0.46104  0.00000  0.07791

   Total alpha = 36.00000, Total beta = 36.00000, Total charge =  0.00000

*** Psi4 exiting successfully. Buy a developer a beer!
