  ==> Input File <==

--------------------------------------------------------------------------
set {
	reference rhf
	basis 6-31G*
}

set_num_threads( 1 )
memory 2 gb

molecule MOL {
0 1

H	 -3.020838	 0.080141	 -0.472852
O	 -2.347518	 -0.290803	 0.079804
C	 -1.184022	 0.487508	 -0.006784
C	 0.062599	 -0.378592	 0.031606
H	 -1.176523	 1.099369	 -0.904519
H	 -1.187323	 1.153111	 0.844927
O	 1.171513	 0.459272	 -0.058250
H	 0.050699	 -1.089204	 -0.797170
H	 0.078739	 -0.954914	 0.954740
C	 2.397842	 -0.198080	 -0.002151
H	 2.508049	 -0.905315	 -0.822092
H	 3.173794	 0.550865	 -0.078850
H	 2.517602	 -0.735921	 0.936026

	symmetry c1
}
set optking {
	frozen_dihedral = ("
		8 4 3 5,
		10 7 4 8,
		4 7 10 13
	")
}

ee = energy('scf')
oeprop('DIPOLE', 'QUADRUPOLE', 'MULLIKEN_CHARGES')
f=open( 'psi4out.xyz', 'w' )
f.write( "13  " )
f.write( str(ee) + "\n" )
f.write( MOL.save_string_xyz() )
f.close()
--------------------------------------------------------------------------

    Molecular point group: c1

    Geometry (in Angstrom), charge = 0, multiplicity = 1:

       Center              X                  Y                   Z               Mass
    ------------   -----------------  -----------------  -----------------  -----------------
           H         -3.013923899832     0.069404503696    -0.476459478734     1.007825032070
           O         -2.340603899832    -0.301539496304     0.076196521266    15.994914619560
           C         -1.177107899832     0.476771503696    -0.010391478734    12.000000000000
           C          0.069513100168    -0.389328496304     0.027998521266    12.000000000000
           H         -1.169608899832     1.088632503696    -0.908126478734     1.007825032070
           H         -1.180408899832     1.142374503696     0.841319521266     1.007825032070
           O          1.178427100168     0.448535503696    -0.061857478734    15.994914619560
           H          0.057613100168    -1.099940496304    -0.800777478734     1.007825032070
           H          0.085653100168    -0.965650496304     0.951132521266     1.007825032070
           C          2.404756100168    -0.208816496304    -0.005758478734    12.000000000000
           H          2.514963100168    -0.916051496304    -0.825699478734     1.007825032070
           H          3.180708100168     0.540128503696    -0.082457478734     1.007825032070
           H          2.524516100168    -0.746657496304     0.932418521266     1.007825032070

  Charge       = 0
  Multiplicity = 1
  Basis Set: 6-31G*
  Basis Set:

    Orbital Energies (a.u.)
    -----------------------

    Doubly Occupied:

       1A    -20.560150     2A    -20.556956     3A    -11.268758
       4A    -11.268340     5A    -11.268080     6A     -1.386370
       7A     -1.363082     8A     -1.017516     9A     -0.911701
      10A     -0.832927    11A     -0.709644    12A     -0.679763
      13A     -0.643719    14A     -0.641151    15A     -0.612058
      16A     -0.551549    17A     -0.542814    18A     -0.494443
      19A     -0.473415    20A     -0.436495    21A     -0.418612

  @DF-RHF Final Energy:  -267.94884921585913

   => Energetics <=

    Nuclear Repulsion Energy =            189.8829115869013151
    One-Electron Energy =                -742.3883519688106389
    Two-Electron Energy =                 284.5565911660496567
    DFT Exchange-Correlation Energy =       0.0000000000000000
    Empirical Dispersion Energy =           0.0000000000000000
    PCM Polarization Energy =               0.0000000000000000
    EFP Energy =                            0.0000000000000000
    Total Energy =                       -267.9488492158596955

  Mulliken Charges: (a.u.)
   Center  Symbol    Alpha    Beta     Spin     Total
       1     H     0.27744  0.27744  0.00000  0.44513
       2     O     4.37559  4.37559  0.00000 -0.75119
       3     C     3.00212  3.00212  0.00000 -0.00424
       4     C     2.99340  2.99340  0.00000  0.01319
       5     H     0.42431  0.42431  0.00000  0.15137
       6     H     0.41982  0.41982  0.00000  0.16036
       7     O     4.30837  4.30837  0.00000 -0.61675
       8     H     0.42767  0.42767  0.00000  0.14465
       9     H     0.42398  0.42398  0.00000  0.15204
      10     C     3.07957  3.07957  0.00000 -0.15913
      11     H     0.42861  0.42861  0.00000  0.14278
      12     H     0.41128  0.41128  0.00000  0.17743
      13     H     0.42783  0.42783  0.00000  0.14434

   Total alpha = 21.00000, Total beta = 21.00000, Total charge =  0.00000
