  ==> Input File <==

--------------------------------------------------------------------------
set {
	reference rhf
	basis 6-31G*
}

set_num_threads( 1 )
memory 2 gb

molecule MOL {
0 1

O	 0.749854	 1.307668	 -0.000040
C	 0.576249	 0.131685	 -0.000108
C	 -0.766779	 -0.556801	 -0.000461
O	 1.568443	 -0.749345	 -0.000005
C	 -1.945214	 0.412366	 0.000161
H	 -0.796911	 -1.211249	 -0.867467
H	 -0.796854	 -1.212390	 0.865687
C	 -1.490218	 1.868712	 -0.081106
H	 -2.534946	 0.258325	 0.897429
H	 -2.598747	 0.181760	 -0.834279
H	 -0.858493	 2.133648	 0.762212
H	 -2.341974	 2.540953	 -0.078868
H	 -0.924001	 2.056506	 -0.989183
C	 2.886820	 -0.232538	 0.000322
H	 3.059106	 0.369571	 -0.880203
H	 3.540187	 -1.091012	 0.000050
H	 3.059019	 0.368956	 0.881266

	symmetry c1
}
set optking {
	frozen_dihedral = ("
		1 2 3 6,
		14 4 2 1
	")
}

ee = energy('scf')
oeprop('DIPOLE', 'QUADRUPOLE', 'MULLIKEN_CHARGES')
f=open( 'psi4out.xyz', 'w' )
f.write( "17  " )
f.write( str(ee) + "\n" )
f.write( MOL.save_string_xyz() )
f.close()
--------------------------------------------------------------------------

    Molecular point group: c1

    Geometry (in Angstrom), charge = 0, multiplicity = 1:

       Center              X                  Y                   Z               Mass
    ------------   -----------------  -----------------  -----------------  -----------------
           O          0.485243314402     0.985913378919     0.011915589298    15.994914619560
           C          0.311638314402    -0.190069621081     0.011847589298    12.000000000000
           C         -1.031389685598    -0.878555621081     0.011494589298    12.000000000000
           O          1.303832314402    -1.071099621081     0.011950589298    15.994914619560
           C         -2.209824685598     0.090611378919     0.012116589298    12.000000000000
           H         -1.061521685598    -1.533003621081    -0.855511410702     1.007825032070
           H         -1.061464685598    -1.534144621081     0.877642589298     1.007825032070
           C         -1.754828685598     1.546957378919    -0.069150410702    12.000000000000
           H         -2.799556685598    -0.063429621081     0.909384589298     1.007825032070
           H         -2.863357685598    -0.139994621081    -0.822323410702     1.007825032070
           H         -1.123103685598     1.811893378919     0.774167589298     1.007825032070
           H         -2.606584685598     2.219198378919    -0.066912410702     1.007825032070
           H         -1.188611685598     1.734751378919    -0.977227410702     1.007825032070
           C          2.622209314402    -0.554292621081     0.012277589298    12.000000000000
           H          2.794495314402     0.047816378919    -0.868247410702     1.007825032070
           H          3.275576314402    -1.412766621081     0.012005589298     1.007825032070
           H          2.794408314402     0.047201378919     0.893221589298     1.007825032070

  Charge       = 0
  Multiplicity = 1
  Basis Set: 6-31G*
  Basis Set:

    Orbital Energies (a.u.)
    -----------------------

    Doubly Occupied:

       1A    -20.605105     2A    -20.540599     3A    -11.375119
       4A    -11.282168     5A    -11.235640     6A    -11.218388
       7A    -11.184686     8A     -1.472333     9A     -1.368521
      10A     -1.077311    11A     -0.997983    12A     -0.930974
      13A     -0.825134    14A     -0.773671    15A     -0.697050
      16A     -0.685875    17A     -0.667107    18A     -0.633288
      19A     -0.613558    20A     -0.555772    21A     -0.549188
      22A     -0.536914    23A     -0.522669    24A     -0.511298
      25A     -0.475702    26A     -0.468570    27A     -0.444761
      28A     -0.408597

  @DF-RHF Final Energy:  -344.86863092632785

   => Energetics <=

    Nuclear Repulsion Energy =            325.5661370846202658
    One-Electron Energy =               -1115.5535558878900702
    Two-Electron Energy =                 445.1187878769427471
    DFT Exchange-Correlation Energy =       0.0000000000000000
    Empirical Dispersion Energy =           0.0000000000000000
    PCM Polarization Energy =               0.0000000000000000
    EFP Energy =                            0.0000000000000000
    Total Energy =                       -344.8686309263270005

  Mulliken Charges: (a.u.)
   Center  Symbol    Alpha    Beta     Spin     Total
       1     O     4.28362  4.28362  0.00000 -0.56724
       2     C     2.60982  2.60982  0.00000  0.78037
       3     C     3.21075  3.21075  0.00000 -0.42150
       4     O     4.30612  4.30612  0.00000 -0.61225
       5     C     3.15811  3.15811  0.00000 -0.31623
       6     H     0.39687  0.39687  0.00000  0.20625
       7     H     0.39674  0.39674  0.00000  0.20652
       8     C     3.23232  3.23232  0.00000 -0.46464
       9     H     0.41759  0.41759  0.00000  0.16481
      10     H     0.41755  0.41755  0.00000  0.16490
      11     H     0.40603  0.40603  0.00000  0.18794
      12     H     0.43088  0.43088  0.00000  0.13824
      13     H     0.41465  0.41465  0.00000  0.17069
      14     C     3.09227  3.09227  0.00000 -0.18454
      15     H     0.40921  0.40921  0.00000  0.18157
      16     H     0.40816  0.40816  0.00000  0.18368
      17     H     0.40929  0.40929  0.00000  0.18143

   Total alpha = 28.00000, Total beta = 28.00000, Total charge =  0.00000
