  ==> Input File <==

--------------------------------------------------------------------------
set {
	reference rhf
	basis 6-31G*
}

set_num_threads( 4 )
memory 2 gb

molecule MOL {
0 1

H	 1.376120	 -2.765575	 -1.403261
C	 1.284507	 -1.697740	 -1.225579
C	 0.191595	 -1.422111	 -0.197624
H	 1.044397	 -1.211000	 -2.164298
H	 2.254382	 -1.335979	 -0.901531
N	 -0.000257	 -0.000071	 0.054619
H	 -0.736720	 -1.829862	 -0.577556
H	 0.403314	 -1.962310	 0.729763
C	 -1.363055	 0.315058	 0.462241
C	 0.995221	 0.543191	 0.969248
C	 -2.412078	 -0.285320	 -0.468531
H	 -1.482241	 1.391144	 0.451970
H	 -1.549931	 -0.001174	 1.492681
C	 1.270339	 2.024739	 0.731407
H	 1.922207	 0.002796	 0.824940
H	 0.706179	 0.377235	 2.011218
H	 -2.262839	 0.075384	 -1.480151
H	 -2.369300	 -1.368867	 -0.491760
H	 -3.410332	 -0.003975	 -0.144961
H	 1.614173	 2.181457	 -0.284886
H	 0.387284	 2.636350	 0.882065
H	 2.036137	 2.381745	 1.414360

	symmetry c1
}
set optking {
	frozen_dihedral = ("
		3 6 9 11
	")
}

ee = optimize('scf')
oeprop('DIPOLE', 'QUADRUPOLE', 'MULLIKEN_CHARGES')
f=open( 'psi4out.xyz', 'w' )
f.write( "22  " )
f.write( str(ee) + "\n" )
f.write( MOL.save_string_xyz() )
f.close()
--------------------------------------------------------------------------

    Molecular point group: c1
  Charge       = 0
  Multiplicity = 1
  Basis Set: 6-31G*
  Basis Set:
  @DF-RHF Final Energy:  -290.36512398913885
    Total Energy =                       -290.3651239891387377
    Molecular point group: c1
  Basis Set: 6-31G*
  Basis Set:
  Basis Set: 6-31G*
  Basis Set:
  @DF-RHF Final Energy:  -290.36288623464111
    Total Energy =                       -290.3628862346409960
  Basis Set: 6-31G*
  Basis Set:
  Basis Set: 6-31G*
  Basis Set:
  @DF-RHF Final Energy:  -290.36877522150058
    Total Energy =                       -290.3687752215007549
  Basis Set: 6-31G*
  Basis Set:
  Basis Set: 6-31G*
  Basis Set:
  @DF-RHF Final Energy:  -290.36942724180074
    Total Energy =                       -290.3694272418007358
  Basis Set: 6-31G*
  Basis Set:
  @DF-RHF Final Energy:  -290.36947726739089
    Total Energy =                       -290.3694772673907210
  Basis Set: 6-31G*
  Basis Set:
  @DF-RHF Final Energy:  -290.36948943157284
    Total Energy =                       -290.3694894315727311
  Basis Set: 6-31G*
  Basis Set:
  Basis Set: 6-31G*
  Basis Set:
  @DF-RHF Final Energy:  -290.36949336606216
    Total Energy =                       -290.3694933660616471
  Basis Set: 6-31G*
  Basis Set:
  Basis Set: 6-31G*
  Basis Set:
  @DF-RHF Final Energy:  -290.36949551005205
    Total Energy =                       -290.3694955100525021
  Basis Set: 6-31G*
  Basis Set:
  Charge       = 0
  Multiplicity = 1
  Basis Set: 6-31G*
  Basis Set:

    Orbital Energies (a.u.)
    -----------------------

    Doubly Occupied:

       1A    -15.536694     2A    -11.240511     3A    -11.238936
       4A    -11.238894     5A    -11.209635     6A    -11.204759
       7A    -11.204747     8A     -1.222064     9A     -1.023959
      10A     -1.022734    11A     -0.956630    12A     -0.853093
      13A     -0.843990    14A     -0.765057    15A     -0.647855
      16A     -0.637009    17A     -0.631916    18A     -0.594479
      19A     -0.591176    20A     -0.547434    21A     -0.529206
      22A     -0.521706    23A     -0.516766    24A     -0.500035
      25A     -0.491652    26A     -0.485799    27A     -0.462257
      28A     -0.460782    29A     -0.337499

  @DF-RHF Final Energy:  -290.36949614128372

   => Energetics <=

    Nuclear Repulsion Energy =            337.3663907411097966
    One-Electron Energy =               -1060.4372255197235972
    Two-Electron Energy =                 432.7013386373299682
    DFT Exchange-Correlation Energy =       0.0000000000000000
    Empirical Dispersion Energy =           0.0000000000000000
    PCM Polarization Energy =               0.0000000000000000
    EFP Energy =                            0.0000000000000000
    Total Energy =                       -290.3694961412837756
    Molecular point group: c1
  Basis Set: 6-31G*
  Basis Set:

  -Total Gradient:
     Atom            X                  Y                   Z
    ------   -----------------  -----------------  -----------------
       1       -0.000013179213    -0.000009185813     0.000009422981
       2        0.000019740092     0.000027429298     0.000023806661
       3       -0.000854062654     0.000420937741    -0.003134954652
       4       -0.000011696852    -0.000000022163     0.000004869441
       5        0.000007664049    -0.000012682916    -0.000023727800
       6        0.001116732420    -0.001891804318     0.005307978643
       7       -0.000011831471    -0.000004092422    -0.000050619220
       8        0.000004631490    -0.000002439477    -0.000004875350
       9       -0.000227381552     0.004008962460    -0.003885539664
      10        0.000101842324     0.000048453763     0.000035924836
      11       -0.000158514162    -0.002641675292     0.001733355329
      12        0.000055146598     0.000071341618     0.000025650048
      13        0.000036804857    -0.000030686077    -0.000045352215
      14       -0.000026053160    -0.000000737393    -0.000001199755
      15        0.000002542726     0.000010592113     0.000028193253
      16       -0.000008756982     0.000004448906    -0.000038061363
      17       -0.000009977394    -0.000000589985     0.000021279839
      18       -0.000007884366    -0.000005164180    -0.000013647492
      19        0.000023675359     0.000013635298     0.000012332723
      20       -0.000003564773    -0.000007021808     0.000005198489
      21       -0.000041188595     0.000002763650    -0.000019096260
      22        0.000005311258    -0.000002463006     0.000009061529

  **** Optimization is complete! (in 9 steps) ****
    Final optimized geometry and variables:
    Molecular point group: c1

    Geometry (in Angstrom), charge = 0, multiplicity = 1:

    H            1.465775632391    -2.675438001317    -1.461640155183
    C            1.376126272506    -1.614885585281    -1.243737686582
    C            0.228161483729    -1.377553579237    -0.264972075807
    H            1.187247249458    -1.087389387812    -2.172183734535
    H            2.333044769878    -1.281505593298    -0.858389164891
    N            0.002341942721     0.034745707764     0.003792500069
    H           -0.662915649252    -1.792897830506    -0.709965234402
    H            0.403130565846    -1.941721589282     0.657099613375
    C           -1.349373264751     0.390918705304     0.413728359156
    C            0.997727168220     0.609582133020     0.895997344792
    C           -2.467180996073    -0.149753020594    -0.475028724263
    H           -1.413811551687     1.471520887349     0.410922858967
    H           -1.543817469237     0.074615002945     1.445221875385
    C            1.212205295376     2.106804354955     0.687295480497
    H            1.942082624340     0.112536736479     0.719122456918
    H            0.742406142761     0.415293127687     1.942560682102
    H           -2.251556046721     0.031291184356    -1.523129242147
    H           -2.640230803535    -1.210183970540    -0.337728633450
    H           -3.394032255711     0.359582183776    -0.229756422678
    H            1.466519209046     2.307685834964    -0.347618805441
    H            0.335367006940     2.692590259601     0.938634221146
    H            2.026041829242     2.456645556654     1.316000553403

  Mulliken Charges: (a.u.)
   Center  Symbol    Alpha    Beta     Spin     Total
       1     H     0.42330  0.42330  0.00000  0.15339
       2     C     3.23667  3.23667  0.00000 -0.47334
       3     C     3.05712  3.05712  0.00000 -0.11423
       4     H     0.41538  0.41538  0.00000  0.16925
       5     H     0.42138  0.42138  0.00000  0.15725
       6     N     3.79019  3.79019  0.00000 -0.58039
       7     H     0.41492  0.41492  0.00000  0.17016
       8     H     0.43434  0.43434  0.00000  0.13132
       9     C     3.04636  3.04636  0.00000 -0.09272
      10     C     3.05688  3.05688  0.00000 -0.11376
      11     C     3.25190  3.25190  0.00000 -0.50380
      12     H     0.41680  0.41680  0.00000  0.16640
      13     H     0.43664  0.43664  0.00000  0.12672
      14     C     3.23845  3.23845  0.00000 -0.47690
      15     H     0.41788  0.41788  0.00000  0.16424
      16     H     0.43298  0.43298  0.00000  0.13404
      17     H     0.41362  0.41362  0.00000  0.17276
      18     H     0.41888  0.41888  0.00000  0.16224
      19     H     0.41787  0.41787  0.00000  0.16427
      20     H     0.41485  0.41485  0.00000  0.17031
      21     H     0.42083  0.42083  0.00000  0.15834
      22     H     0.42277  0.42277  0.00000  0.15446

   Total alpha = 29.00000, Total beta = 29.00000, Total charge =  0.00000
