  ==> Input File <==

--------------------------------------------------------------------------
set {
	reference rhf
	basis 6-31G*
}

set_num_threads( 4 )
memory 2 gb

molecule MOL {
0 1

O	 -0.014285	 -0.195477	 2.022976
C	 -0.122190	 0.430175	 1.002379
C	 -1.131783	 1.558530	 0.904273
N	 0.623947	 0.147590	 -0.102813
H	 -1.855012	 1.377423	 0.116731
H	 -1.646253	 1.614263	 1.851512
H	 -0.649178	 2.509478	 0.705850
C	 1.665360	 -0.855771	 0.000151
C	 0.697548	 0.998989	 -1.269839
H	 2.465253	 -0.618490	 -0.692587
H	 1.257730	 -1.821716	 -0.242189
H	 2.081488	 -0.891645	 1.004627
H	 0.855161	 0.383862	 -2.147800
H	 -0.217619	 1.549921	 -1.417745
H	 1.521254	 1.707549	 -1.204548

	symmetry c1
}
set optking {
	frozen_dihedral = ("
		2 4 8 10
	")
}

ee = optimize('scf')
oeprop('DIPOLE', 'QUADRUPOLE', 'MULLIKEN_CHARGES')
f=open( 'psi4out.xyz', 'w' )
f.write( "15  " )
f.write( str(ee) + "\n" )
f.write( MOL.save_string_xyz() )
f.close()
--------------------------------------------------------------------------

    Molecular point group: c1
  Charge       = 0
  Multiplicity = 1
  Basis Set: 6-31G*
  Basis Set:
  @DF-RHF Final Energy:  -286.02777639376177
    Total Energy =                       -286.0277763937615987
    Molecular point group: c1
  Basis Set: 6-31G*
  Basis Set:
  Basis Set: 6-31G*
  Basis Set:
  @DF-RHF Final Energy:  -286.02845175956878
    Total Energy =                       -286.0284517595689522
  Basis Set: 6-31G*
  Basis Set:
  Basis Set: 6-31G*
  Basis Set:
  @DF-RHF Final Energy:  -286.02859574768667
    Total Energy =                       -286.0285957476866088
  Basis Set: 6-31G*
  Basis Set:
  Basis Set: 6-31G*
  Basis Set:
  @DF-RHF Final Energy:  -286.02882276806082
    Total Energy =                       -286.0288227680608770
  Basis Set: 6-31G*
  Basis Set:
  @DF-RHF Final Energy:  -286.02906680633953
    Total Energy =                       -286.0290668063396424
  @DF-RHF Final Energy:  -286.02917678046163
    Total Energy =                       -286.0291767804613983
  @DF-RHF Final Energy:  -286.02922019260143
    Total Energy =                       -286.0292201926016560
  @DF-RHF Final Energy:  -286.02925347288817
    Total Energy =                       -286.0292534728882856
  @DF-RHF Final Energy:  -286.02934365510305
    Total Energy =                       -286.0293436551031050
  @DF-RHF Final Energy:  -286.02956071631945
    Total Energy =                       -286.0295607163196792
  @DF-RHF Final Energy:  -286.02968787318162
    Total Energy =                       -286.0296878731816719
  Basis Set: 6-31G*
  Basis Set:
  @DF-RHF Final Energy:  -286.02977602596025
    Total Energy =                       -286.0297760259602455
  Basis Set: 6-31G*
  Basis Set:
  Basis Set: 6-31G*
  Basis Set:
  @DF-RHF Final Energy:  -286.02978760533449
    Total Energy =                       -286.0297876053344339
  Basis Set: 6-31G*
  Basis Set:
  Basis Set: 6-31G*
  Basis Set:
  @DF-RHF Final Energy:  -286.02979076761108
    Total Energy =                       -286.0297907676108480
  Basis Set: 6-31G*
  Basis Set:
  Charge       = 0
  Multiplicity = 1
  Basis Set: 6-31G*
  Basis Set:

    Orbital Energies (a.u.)
    -----------------------

    Doubly Occupied:

       1A    -20.514916     2A    -15.583662     3A    -11.341321
       4A    -11.266391     5A    -11.247868     6A    -11.228373
       7A     -1.384710     8A     -1.243402     9A     -1.014148
      10A     -0.972656    11A     -0.918717    12A     -0.737690
      13A     -0.680889    14A     -0.658973    15A     -0.651334
      16A     -0.589104    17A     -0.576325    18A     -0.568132
      19A     -0.561876    20A     -0.546461    21A     -0.529691
      22A     -0.502841    23A     -0.410692    24A     -0.367011

  @DF-RHF Final Energy:  -286.02979115259063

   => Energetics <=

    Nuclear Repulsion Energy =            252.4587268143325218
    One-Electron Energy =                -888.7826727624888008
    Two-Electron Energy =                 350.2941547955658734
    DFT Exchange-Correlation Energy =       0.0000000000000000
    Empirical Dispersion Energy =           0.0000000000000000
    PCM Polarization Energy =               0.0000000000000000
    EFP Energy =                            0.0000000000000000
    Total Energy =                       -286.0297911525904055
    Molecular point group: c1
  Basis Set: 6-31G*
  Basis Set:

  -Total Gradient:
     Atom            X                  Y                   Z
    ------   -----------------  -----------------  -----------------
       1       -0.000007967236     0.000012795819     0.000003357132
       2       -0.000103879649    -0.000113278590    -0.000086095327
       3       -0.000010390707    -0.000013444747    -0.000017648193
       4        0.000153020316     0.000131057801     0.000113047004
       5        0.000004834271     0.000001656151     0.000004973537
       6        0.000013733401    -0.000006261382     0.000006100763
       7        0.000003456563     0.000003390104     0.000004949916
       8        0.000017199354     0.000026114292     0.000206214384
       9       -0.000008728639    -0.000007729687    -0.000044696347
      10       -0.000066943977    -0.000058631856    -0.000185189192
      11       -0.000005924247     0.000021841964    -0.000002019948
      12       -0.000002268405     0.000009162997    -0.000014522757
      13        0.000003222344     0.000000973376    -0.000010410999
      14        0.000007432013    -0.000006951534     0.000012662715
      15        0.000003204598    -0.000000694711     0.000009277311

  **** Optimization is complete! (in 15 steps) ****
    Final optimized geometry and variables:
    Molecular point group: c1

    Geometry (in Angstrom), charge = 0, multiplicity = 1:

    O           -0.393386096269    -0.642720783491     1.542060665772
    C           -0.422982101951     0.072549573406     0.576837895474
    C           -1.482874287863     1.151446346359     0.458609164648
    N            0.494789732687    -0.031474588325    -0.426588549853
    H           -2.128408161435     0.982285194288    -0.396658881781
    H           -2.076453673411     1.121128647558     1.359648977628
    H           -1.039696389781     2.135842670385     0.356170610819
    C            1.439635470526    -1.130665828466    -0.374243082093
    C            0.347397693050     0.603925628934    -1.718228451129
    H            2.364923656005    -0.827818195019    -0.850316452098
    H            1.059411668929    -2.009465207073    -0.890492329293
    H            1.633862082804    -1.390780157265     0.652097434122
    H           -0.181284741916    -0.030442581245    -2.427630224164
    H           -0.178692290522     1.542105289094    -1.639294553286
    H            1.329686613715     0.812804129469    -2.124166345803

  Mulliken Charges: (a.u.)
   Center  Symbol    Alpha    Beta     Spin     Total
       1     O     4.30386  4.30386  0.00000 -0.60772
       2     C     2.62435  2.62435  0.00000  0.75129
       3     C     3.29851  3.29851  0.00000 -0.59701
       4     N     3.82298  3.82298  0.00000 -0.64596
       5     H     0.40767  0.40767  0.00000  0.18467
       6     H     0.39055  0.39055  0.00000  0.21891
       7     H     0.40651  0.40651  0.00000  0.18697
       8     C     3.14330  3.14330  0.00000 -0.28660
       9     C     3.14226  3.14226  0.00000 -0.28452
      10     H     0.41904  0.41904  0.00000  0.16192
      11     H     0.41920  0.41920  0.00000  0.16160
      12     H     0.38725  0.38725  0.00000  0.22549
      13     H     0.41697  0.41697  0.00000  0.16606
      14     H     0.40724  0.40724  0.00000  0.18551
      15     H     0.41031  0.41031  0.00000  0.17938

   Total alpha = 24.00000, Total beta = 24.00000, Total charge =  0.00000
