                              Psi4 1.0.54 Driver

  ==> Input File <==

--------------------------------------------------------------------------
set {
	reference rhf
	basis cc-pvtz
}

set_num_threads( 4 )
memory 2 gb

molecule MOL {
0 1

H	 -0.685800	 1.796499	 0.133559
O	 0.057669	 1.301365	 -0.158528
C	 0.004145	 -0.005141	 0.363049
C	 1.199168	 -0.827145	 -0.096690
C	 -1.316386	 -0.602081	 -0.083515
H	 0.012026	 0.043363	 1.450619
H	 1.216685	 -0.896776	 -1.178167
H	 2.129940	 -0.372354	 0.228035
H	 1.160783	 -1.829622	 0.314294
H	 -1.357882	 -0.655920	 -1.165207
H	 -2.140147	 0.011735	 0.257253
H	 -1.440790	 -1.601175	 0.317669

	symmetry c1
}
set optking {
	frozen_dihedral = ("
		1 2 3 4
	")
}

ee,wfn = optimize('scf', return_wfn=True)
oeprop( wfn, 'DIPOLE', 'QUADRUPOLE', 'MULLIKEN_CHARGES')
f=open( 'psi4out.xyz', 'w' )
f.write( "12  " )
f.write( str(ee) + "\n" )
f.write( MOL.save_string_xyz() )
f.close()
--------------------------------------------------------------------------

    Molecular point group: c1
  Charge       = 0
  Multiplicity = 1
  Basis Set: CC-PVTZ
  Basis Set:
  @DF-RHF Final Energy:  -193.19412821987177
    Total Energy =                       -193.1941282198717715
    Molecular point group: c1
  Basis Set: CC-PVTZ
  Basis Set:
  Basis Set: CC-PVTZ
  Basis Set:
  @DF-RHF Final Energy:  -193.13931698459186
    Total Energy =                       -193.1393169845919431
  Basis Set: CC-PVTZ
  Basis Set:
  Basis Set: CC-PVTZ
  Basis Set:
  @DF-RHF Final Energy:  -193.19283232008146
    Total Energy =                       -193.1928323200815498
  Basis Set: CC-PVTZ
  Basis Set:
  Basis Set: CC-PVTZ
  Basis Set:
  @DF-RHF Final Energy:  -193.19593748128341
    Total Energy =                       -193.1959374812834085
  Basis Set: CC-PVTZ
  Basis Set:
  Basis Set: CC-PVTZ
  Basis Set:
  @DF-RHF Final Energy:  -193.19604831192967
    Total Energy =                       -193.1960483119297862
  Basis Set: CC-PVTZ
  Basis Set:
  Basis Set: CC-PVTZ
  Basis Set:
  @DF-RHF Final Energy:  -193.19606035091405
    Total Energy =                       -193.1960603509141094
  Basis Set: CC-PVTZ
  Basis Set:
  Charge       = 0
  Multiplicity = 1
  Basis Set: CC-PVTZ
  Basis Set:

    Orbital Energies (a.u.)
    -----------------------

    Doubly Occupied:

       1A    -20.544284     2A    -11.274043     3A    -11.211421
       4A    -11.205122     5A     -1.364793     6A     -1.043351
       7A     -0.940626     8A     -0.803899     9A     -0.701537
      10A     -0.628686    11A     -0.606090    12A     -0.546847
      13A     -0.535039    14A     -0.530619    15A     -0.511800
      16A     -0.469064    17A     -0.433093

  @DF-RHF Final Energy:  -193.19606054037845

   => Energetics <=

    Nuclear Repulsion Energy =            135.7542075815372016
    One-Electron Energy =                -531.1999083058440192
    Two-Electron Energy =                 202.2496401839282214
    DFT Exchange-Correlation Energy =       0.0000000000000000
    Empirical Dispersion Energy =           0.0000000000000000
    PCM Polarization Energy =               0.0000000000000000
    EFP Energy =                            0.0000000000000000
    Total Energy =                       -193.1960605403785678
    Molecular point group: c1
  Basis Set: CC-PVTZ
  Basis Set:

  -Total Gradient:
     Atom            X                  Y                   Z
    ------   -----------------  -----------------  -----------------
       1       -0.000088430275    -0.000038019376    -0.000128326245
       2        0.000064800705     0.000075041163     0.000116315579
       3        0.000075912556     0.000071743602     0.000094449899
       4       -0.000086872453    -0.000055502932    -0.000070384342
       5        0.000023752856    -0.000014300997    -0.000013476599
       6        0.000005515926    -0.000023784274    -0.000000208937
       7        0.000002554644    -0.000000248761    -0.000007816206
       8       -0.000025058009    -0.000004688073     0.000018451934
       9        0.000006381831    -0.000012072379    -0.000007972459
      10       -0.000002033612     0.000004041139    -0.000000492517
      11        0.000024527371     0.000006003585    -0.000000262430
      12       -0.000001051542    -0.000008212699    -0.000000277678

  **** Optimization is complete! (in 7 steps) ****
    Final optimized geometry and variables:
    Molecular point group: c1

    Geometry (in Angstrom), charge = 0, multiplicity = 1:

    H           -1.008776648526     1.518810901160     0.613202406625
    O           -0.253515836873     1.283404358596     0.105847197618
    C            0.091859006652    -0.059852043433     0.346589257592
    C            1.311320711929    -0.358643098924    -0.503730386040
    C           -1.073121654154    -0.988571595233     0.037826607454
    H            0.362793096635    -0.177282930140     1.394471018549
    H            1.074015575864    -0.243684712691    -1.554981313536
    H            2.114658273924     0.324789661782    -0.260708830535
    H            1.657147448664    -1.371961839207    -0.335665980896
    H           -1.364987348778    -0.896686261742    -1.001969768831
    H           -1.934193377105    -0.747558953594     0.653605684432
    H           -0.807121546392    -2.021281789078     0.232832507521

  Mulliken Charges: (a.u.)
   Center  Symbol    Alpha    Beta     Spin     Total
       1     H     0.39601  0.39601  0.00000  0.20799
       2     O     4.20437  4.20437  0.00000 -0.40873
       3     C     2.92161  2.92161  0.00000  0.15678
       4     C     3.14228  3.14228  0.00000 -0.28457
       5     C     3.14589  3.14589  0.00000 -0.29177
       6     H     0.46659  0.46659  0.00000  0.06681
       7     H     0.45291  0.45291  0.00000  0.09418
       8     H     0.44640  0.44640  0.00000  0.10721
       9     H     0.45890  0.45890  0.00000  0.08220
      10     H     0.45082  0.45082  0.00000  0.09835
      11     H     0.45815  0.45815  0.00000  0.08370
      12     H     0.45607  0.45607  0.00000  0.08786

   Total alpha = 17.00000, Total beta = 17.00000, Total charge = -0.00000

*** Psi4 exiting successfully. Buy a developer a beer!
