  ==> Input File <==

--------------------------------------------------------------------------
set {
	reference rhf
	basis 6-31G*
}

set_num_threads( 1 )
memory 2 gb

molecule MOL {
0 1

H	 -3.489920	 -2.291572	 0.986574
O	 -3.070195	 -1.719082	 0.360483
C	 -1.821101	 -1.311413	 0.856630
C	 -1.177863	 -0.397191	 -0.171080
H	 -1.938051	 -0.784849	 1.802865
H	 -1.181781	 -2.173889	 1.040331
C	 0.198102	 0.111031	 0.262842
H	 -1.846917	 0.440089	 -0.350128
H	 -1.098702	 -0.939585	 -1.109173
C	 1.331804	 -0.827780	 -0.158768
H	 0.361943	 1.100838	 -0.156218
H	 0.217265	 0.229072	 1.345532
C	 2.723619	 -0.410569	 0.329459
H	 1.342964	 -0.912588	 -1.244120
H	 1.116806	 -1.824343	 0.220779
C	 3.243875	 0.895854	 -0.272975
H	 3.424222	 -1.207124	 0.091250
H	 2.714788	 -0.329854	 1.414619
H	 3.251977	 0.848779	 -1.358681
H	 2.637085	 1.747371	 0.016682
H	 4.259473	 1.094070	 0.055697

	symmetry c1
}
set optking {
	frozen_dihedral = ("
		2 3 4 8,
		4 7 10 14,
		16 13 10 14,
		1 2 3 5
	")
}

ee = energy('scf')
oeprop('DIPOLE', 'QUADRUPOLE', 'MULLIKEN_CHARGES')
f=open( 'psi4out.xyz', 'w' )
f.write( "21  " )
f.write( str(ee) + "\n" )
f.write( MOL.save_string_xyz() )
f.close()
--------------------------------------------------------------------------

    Molecular point group: c1

    Geometry (in Angstrom), charge = 0, multiplicity = 1:

       Center              X                  Y                   Z               Mass
    ------------   -----------------  -----------------  -----------------  -----------------
           H         -3.634099166675    -1.744875790489     0.803459915292     1.007825032070
           O         -3.214374166675    -1.172385790489     0.177368915292    15.994914619560
           C         -1.965280166675    -0.764716790489     0.673515915292    12.000000000000
           C         -1.322042166675     0.149505209511    -0.354194084708    12.000000000000
           H         -2.082230166675    -0.238152790489     1.619750915292     1.007825032070
           H         -1.325960166675    -1.627192790489     0.857216915292     1.007825032070
           C          0.053922833325     0.657727209511     0.079727915292    12.000000000000
           H         -1.991096166675     0.986785209511    -0.533242084708     1.007825032070
           H         -1.242881166675    -0.392888790489    -1.292287084708     1.007825032070
           C          1.187624833325    -0.281083790489    -0.341882084708    12.000000000000
           H          0.217763833325     1.647534209511    -0.339332084708     1.007825032070
           H          0.073085833325     0.775768209511     1.162417915292     1.007825032070
           C          2.579439833325     0.136127209511     0.146344915292    12.000000000000
           H          1.198784833325    -0.365891790489    -1.427234084708     1.007825032070
           H          0.972626833325    -1.277646790489     0.037664915292     1.007825032070
           C          3.099695833325     1.442550209511    -0.456089084708    12.000000000000
           H          3.280042833325    -0.660427790489    -0.091864084708     1.007825032070
           H          2.570608833325     0.216842209511     1.231504915292     1.007825032070
           H          3.107797833325     1.395475209511    -1.541795084708     1.007825032070
           H          2.492905833325     2.294067209511    -0.166432084708     1.007825032070
           H          4.115293833325     1.640766209511    -0.127417084708     1.007825032070

  Charge       = 0
  Multiplicity = 1
  Basis Set: 6-31G*
  Basis Set:

    Orbital Energies (a.u.)
    -----------------------

    Doubly Occupied:

       1A    -20.551827     2A    -11.267122     3A    -11.215545
       4A    -11.215055     5A    -11.214023     6A    -11.209884
       7A    -11.208293     8A     -1.358646     9A     -1.087381
      10A     -1.032791    11A     -0.952019    12A     -0.880012
      13A     -0.809129    14A     -0.776669    15A     -0.694448
      16A     -0.649298    17A     -0.631527    18A     -0.609174
      19A     -0.587256    20A     -0.563241    21A     -0.543151
      22A     -0.517950    23A     -0.511969    24A     -0.493559
      25A     -0.475829    26A     -0.461122    27A     -0.452204
      28A     -0.446614    29A     -0.429978

  @DF-RHF Final Energy:  -310.20975583540644

   => Energetics <=

    Nuclear Repulsion Energy =            315.2658666052079752
    One-Electron Energy =               -1045.2598532902029547
    Two-Electron Energy =                 419.7842308495885391
    DFT Exchange-Correlation Energy =       0.0000000000000000
    Empirical Dispersion Energy =           0.0000000000000000
    PCM Polarization Energy =               0.0000000000000000
    EFP Energy =                            0.0000000000000000
    Total Energy =                       -310.2097558354064404

  Mulliken Charges: (a.u.)
   Center  Symbol    Alpha    Beta     Spin     Total
       1     H     0.28128  0.28128  0.00000  0.43743
       2     O     4.37163  4.37163  0.00000 -0.74326
       3     C     2.99150  2.99150  0.00000  0.01700
       4     C     3.16131  3.16131  0.00000 -0.32262
       5     H     0.43239  0.43239  0.00000  0.13522
       6     H     0.43245  0.43245  0.00000  0.13511
       7     C     3.16500  3.16500  0.00000 -0.33000
       8     H     0.41259  0.41259  0.00000  0.17482
       9     H     0.41354  0.41354  0.00000  0.17292
      10     C     3.15356  3.15356  0.00000 -0.30711
      11     H     0.41599  0.41599  0.00000  0.16802
      12     H     0.42434  0.42434  0.00000  0.15131
      13     C     3.15230  3.15230  0.00000 -0.30460
      14     H     0.42204  0.42204  0.00000  0.15592
      15     H     0.42276  0.42276  0.00000  0.15449
      16     C     3.24125  3.24125  0.00000 -0.48250
      17     H     0.42100  0.42100  0.00000  0.15800
      18     H     0.42401  0.42401  0.00000  0.15198
      19     H     0.42183  0.42183  0.00000  0.15635
      20     H     0.42005  0.42005  0.00000  0.15990
      21     H     0.41919  0.41919  0.00000  0.16163

   Total alpha = 29.00000, Total beta = 29.00000, Total charge = -0.00000
