                              Psi4 1.0.54 Driver

  ==> Input File <==

--------------------------------------------------------------------------
set {
	reference rhf
	basis cc-pvtz
}

set_num_threads( 4 )
memory 2 gb

molecule MOL {
0 1

H	 -3.258660	 -0.290394	 1.471450
C	 -3.307964	 -0.275695	 0.374072
C	 -2.653809	 0.914422	 -0.273689
O	 -3.855140	 -1.148880	 -0.205112
C	 -1.216901	 1.136108	 0.207794
H	 -2.700131	 0.790676	 -1.347875
H	 -3.256452	 1.781007	 -0.010713
C	 -0.247837	 0.040196	 -0.230469
H	 -0.872882	 2.093195	 -0.169002
H	 -1.209325	 1.218376	 1.291938
C	 1.181757	 0.280428	 0.247371
H	 -0.259600	 -0.030819	 -1.314870
H	 -0.591284	 -0.923375	 0.136958
C	 2.151032	 -0.811012	 -0.202643
H	 1.515939	 1.247397	 -0.115449
H	 1.191514	 0.341223	 1.333422
C	 3.580021	 -0.656538	 0.320835
H	 2.170545	 -0.847575	 -1.289412
H	 1.766632	 -1.772905	 0.124928
C	 4.301499	 0.602495	 -0.153917
H	 4.153793	 -1.523822	 0.009393
H	 3.567888	 -0.676955	 1.407455
H	 4.323357	 0.653320	 -1.237861
H	 3.825604	 1.505191	 0.209880
H	 5.327151	 0.612557	 0.196655

	symmetry c1
}
set optking {
	frozen_dihedral = ("
		20 17 14 18
	")
}

ee,wfn = optimize('scf', return_wfn=True)
oeprop( wfn, 'DIPOLE', 'QUADRUPOLE', 'MULLIKEN_CHARGES')
f=open( 'psi4out.xyz', 'w' )
f.write( "25  " )
f.write( str(ee) + "\n" )
f.write( MOL.save_string_xyz() )
f.close()
--------------------------------------------------------------------------

    Molecular point group: c1
  Charge       = 0
  Multiplicity = 1
  Basis Set: CC-PVTZ
  Basis Set:
  @DF-RHF Final Energy:  -387.26037298156859
    Total Energy =                       -387.2603729815685938
    Molecular point group: c1
  Basis Set: CC-PVTZ
  Basis Set:
  Basis Set: CC-PVTZ
  Basis Set:
  @DF-RHF Final Energy:  -387.26036738414848
    Total Energy =                       -387.2603673841481395
  Basis Set: CC-PVTZ
  Basis Set:
  Basis Set: CC-PVTZ
  Basis Set:
  @DF-RHF Final Energy:  -387.26038391582836
    Total Energy =                       -387.2603839158282426
  Basis Set: CC-PVTZ
  Basis Set:
  Basis Set: CC-PVTZ
  Basis Set:
  @DF-RHF Final Energy:  -387.26034496665199
    Total Energy =                       -387.2603449666520419
  Basis Set: CC-PVTZ
  Basis Set:
  Basis Set: CC-PVTZ
  Basis Set:
  @DF-RHF Final Energy:  -387.26038444570048
    Total Energy =                       -387.2603844457007654
  Basis Set: CC-PVTZ
  Basis Set:
  Charge       = 0
  Multiplicity = 1
  Basis Set: CC-PVTZ
  Basis Set:

    Orbital Energies (a.u.)
    -----------------------

    Doubly Occupied:

       1A    -20.551380     2A    -11.320984     3A    -11.233798
       4A    -11.232846     5A    -11.221731     6A    -11.217739
       7A    -11.216274     8A    -11.215037     9A    -11.208825
      10A     -1.406396    11A     -1.105389    12A     -1.071023
      13A     -1.014585    14A     -0.943532    15A     -0.876368
      16A     -0.821253    17A     -0.788762    18A     -0.781213
      19A     -0.668153    20A     -0.663502    21A     -0.635492
      22A     -0.627329    23A     -0.602719    24A     -0.595793
      25A     -0.577311    26A     -0.550389    27A     -0.536788
      28A     -0.528299    29A     -0.508992    30A     -0.497439
      31A     -0.492275    32A     -0.479804    33A     -0.464521
      34A     -0.459584    35A     -0.442953    36A     -0.411893

  @DF-RHF Final Energy:  -387.26038449956638

   => Energetics <=

    Nuclear Repulsion Energy =            439.8544095403373149
    One-Electron Energy =               -1396.2888416780083389
    Two-Electron Energy =                 569.1740476381048666
    DFT Exchange-Correlation Energy =       0.0000000000000000
    Empirical Dispersion Energy =           0.0000000000000000
    PCM Polarization Energy =               0.0000000000000000
    EFP Energy =                            0.0000000000000000
    Total Energy =                       -387.2603844995661575
    Molecular point group: c1
  Basis Set: CC-PVTZ
  Basis Set:

  -Total Gradient:
     Atom            X                  Y                   Z
    ------   -----------------  -----------------  -----------------
       1       -0.000003053233     0.000002696894     0.000001158188
       2        0.000009562289     0.000006512543     0.000001229826
       3       -0.000020092065    -0.000004541105     0.000005289720
       4       -0.000000743433    -0.000002522369    -0.000003103785
       5        0.000001225146    -0.000016360577     0.000025805350
       6        0.000004147557    -0.000002076148     0.000001746598
       7        0.000004844562     0.000001973944     0.000000326889
       8        0.000010228709    -0.000003997409    -0.000023706480
       9       -0.000004068809    -0.000009277970    -0.000004871652
      10       -0.000001648112     0.000007251313     0.000005128887
      11        0.000017014435     0.000028180807    -0.000035062107
      12        0.000005514981     0.000004429002     0.000000512677
      13       -0.000002697801    -0.000000689528    -0.000009688915
      14       -0.000131686387     0.000769301645     0.000155833664
      15        0.000006622685     0.000002767270    -0.000004530420
      16        0.000013137202    -0.000007570825    -0.000014269952
      17        0.000202415750    -0.000406506820    -0.000443588930
      18        0.000035610760    -0.000547804631     0.000026438864
      19       -0.000007064946    -0.000019767302    -0.000007456197
      20       -0.000137257857     0.000199165250     0.000327956040
      21       -0.000008251959     0.000014289399    -0.000008317466
      22        0.000007304022    -0.000006949954     0.000009825495
      23        0.000007355085     0.000005680513    -0.000005565240
      24       -0.000006041177    -0.000016019396    -0.000000741898
      25       -0.000002377410     0.000001835454    -0.000000349156

  **** Optimization is complete! (in 6 steps) ****
    Final optimized geometry and variables:
    Molecular point group: c1

    Geometry (in Angstrom), charge = 0, multiplicity = 1:

    H           -3.239712382232    -0.321063311067     1.486633505566
    C           -3.300129706599    -0.301091414230     0.389879942791
    C           -2.660189731202     0.896516201328    -0.258309465667
    O           -3.847625536545    -1.174709961326    -0.188337549094
    C           -1.220695620430     1.126294201726     0.211270820494
    H           -2.715344340836     0.777345812289    -1.332605996520
    H           -3.266675986642     1.757521293967     0.013991395231
    C           -0.247938216108     0.039379226426    -0.240977420065
    H           -0.886904220536     2.087573717231    -0.164020479060
    H           -1.203947756482     1.203483062167     1.295695936398
    C            1.184206294375     0.287713339516     0.224908106020
    H           -0.269127252406    -0.026710827649    -1.325560867168
    H           -0.581153433129    -0.928286715153     0.125067270613
    C            2.156001160267    -0.795573207221    -0.238140363966
    H            1.508487967257     1.258165691179    -0.137366263047
    H            1.203389266397     0.344548614515     1.311115400731
    C            3.584273189272    -0.649712171234     0.289484719116
    H            2.176910036594    -0.821137170609    -1.325225272649
    H            1.773042471078    -1.762647978388     0.076189331517
    C            4.311603537188     0.611708262065    -0.169679555075
    H            4.155174005720    -1.517036462320    -0.026884089504
    H            3.568453398494    -0.678517092316     1.375940529098
    H            4.328845970636     0.680133396920    -1.252856588544
    H            3.843375271812     1.511265951895     0.211097319592
    H            5.338940919079     0.609273301306     0.176021370774

  Mulliken Charges: (a.u.)
   Center  Symbol    Alpha    Beta     Spin     Total
       1     H     0.46421  0.46421  0.00000  0.07157
       2     C     2.90482  2.90482  0.00000  0.19036
       3     C     3.08914  3.08914  0.00000 -0.17828
       4     O     4.16627  4.16627  0.00000 -0.33253
       5     C     3.11600  3.11600  0.00000 -0.23200
       6     H     0.44289  0.44289  0.00000  0.11422
       7     H     0.44051  0.44051  0.00000  0.11899
       8     C     3.08983  3.08983  0.00000 -0.17965
       9     H     0.44309  0.44309  0.00000  0.11382
      10     H     0.44990  0.44990  0.00000  0.10021
      11     C     3.09329  3.09329  0.00000 -0.18657
      12     H     0.44980  0.44980  0.00000  0.10039
      13     H     0.44783  0.44783  0.00000  0.10434
      14     C     3.09583  3.09583  0.00000 -0.19167
      15     H     0.45117  0.45117  0.00000  0.09766
      16     H     0.45417  0.45417  0.00000  0.09167
      17     C     3.09064  3.09064  0.00000 -0.18128
      18     H     0.45261  0.45261  0.00000  0.09478
      19     H     0.44812  0.44812  0.00000  0.10376
      20     C     3.15346  3.15346  0.00000 -0.30693
      21     H     0.44767  0.44767  0.00000  0.10465
      22     H     0.45456  0.45456  0.00000  0.09088
      23     H     0.45444  0.45444  0.00000  0.09112
      24     H     0.45406  0.45406  0.00000  0.09188
      25     H     0.44569  0.44569  0.00000  0.10862

   Total alpha = 36.00000, Total beta = 36.00000, Total charge = -0.00000

*** Psi4 exiting successfully. Buy a developer a beer!
