  ==> Input File <==

--------------------------------------------------------------------------
set {
	reference rhf
	basis 6-31G*
}

set_num_threads( 4 )
memory 2 gb

molecule MOL {
0 1

O	 3.225979	 0.970355	 -0.599647
C	 2.701189	 0.057885	 -0.047330
C	 1.245376	 -0.013843	 0.345420
O	 3.347903	 -1.046386	 0.304773
C	 0.301476	 -0.051142	 -0.854488
H	 1.129818	 -0.885432	 0.981165
H	 1.038998	 0.845102	 0.978916
C	 -1.182542	 -0.018154	 -0.473570
H	 0.509530	 -0.936991	 -1.447028
H	 0.522719	 0.795871	 -1.494834
C	 -1.683307	 -1.254307	 0.278938
H	 -1.762396	 0.090913	 -1.387133
H	 -1.384828	 0.872334	 0.119829
C	 -3.190770	 -1.222466	 0.538826
H	 -1.436128	 -2.146530	 -0.294350
H	 -1.164986	 -1.349228	 1.230414
C	 -3.701567	 -2.450344	 1.294824
H	 -3.717812	 -1.140944	 -0.410286
H	 -3.440066	 -0.325001	 1.102837
C	 -5.208453	 -2.412566	 1.546950
H	 -3.452397	 -3.348128	 0.733094
H	 -3.179025	 -2.531062	 2.245726
H	 -5.540055	 -3.295699	 2.084280
H	 -5.761185	 -2.366930	 0.612819
H	 -5.485673	 -1.543220	 2.136578
C	 4.728119	 -1.109107	 -0.004993
H	 4.882018	 -1.033965	 -1.071845
H	 5.068212	 -2.067527	 0.355250
H	 5.265056	 -0.311663	 0.488280

	symmetry c1
}
set optking {
	frozen_dihedral = ("
		6 3 2 1
	")
}

ee = optimize('scf')
oeprop('DIPOLE', 'QUADRUPOLE', 'MULLIKEN_CHARGES')
f=open( 'psi4out.xyz', 'w' )
f.write( "29  " )
f.write( str(ee) + "\n" )
f.write( MOL.save_string_xyz() )
f.close()
--------------------------------------------------------------------------

    Molecular point group: c1
  Charge       = 0
  Multiplicity = 1
  Basis Set: 6-31G*
  Basis Set:
  @DF-RHF Final Energy:  -501.04190128580797
    Total Energy =                       -501.0419012858073984
    Molecular point group: c1
  Basis Set: 6-31G*
  Basis Set:
  Basis Set: 6-31G*
  Basis Set:
  @DF-RHF Final Energy:  -501.04256727558584
    Total Energy =                       -501.0425672755854976
  Basis Set: 6-31G*
  Basis Set:
  Basis Set: 6-31G*
  Basis Set:
  @DF-RHF Final Energy:  -501.04257932172254
    Total Energy =                       -501.0425793217229966
  Basis Set: 6-31G*
  Basis Set:
  Basis Set: 6-31G*
  Basis Set:
  @DF-RHF Final Energy:  -501.04250660737773
    Total Energy =                       -501.0425066073773905
  Basis Set: 6-31G*
  Basis Set:
  Basis Set: 6-31G*
  Basis Set:
  @DF-RHF Final Energy:  -501.04262045457529
    Total Energy =                       -501.0426204545751716
  Basis Set: 6-31G*
  Basis Set:
  Basis Set: 6-31G*
  Basis Set:
  @DF-RHF Final Energy:  -501.04261530975168
    Total Energy =                       -501.0426153097519091
  Basis Set: 6-31G*
  Basis Set:
  Basis Set: 6-31G*
  Basis Set:
  @DF-RHF Final Energy:  -501.04262088241023
    Total Energy =                       -501.0426208824105743
  Basis Set: 6-31G*
  Basis Set:
  Charge       = 0
  Multiplicity = 1
  Basis Set: 6-31G*
  Basis Set:

    Orbital Energies (a.u.)
    -----------------------

    Doubly Occupied:

       1A    -20.605460     2A    -20.541628     3A    -11.370793
       4A    -11.280475     5A    -11.232703     6A    -11.227160
       7A    -11.220473     8A    -11.217466     9A    -11.216725
      10A    -11.215589    11A    -11.209710    12A     -1.468997
      13A     -1.360740    14A     -1.100115    15A     -1.067822
      16A     -1.019348    17A     -0.976937    18A     -0.930215
      19A     -0.863186    20A     -0.799612    21A     -0.791061
      22A     -0.770712    23A     -0.698520    24A     -0.678505
      25A     -0.673021    26A     -0.652181    27A     -0.626685
      28A     -0.606602    29A     -0.593936    30A     -0.580148
      31A     -0.562444    32A     -0.559943    33A     -0.535577
      34A     -0.528098    35A     -0.519454    36A     -0.515422
      37A     -0.496620    38A     -0.479870    39A     -0.471225
      40A     -0.463950    41A     -0.460166    42A     -0.454415
      43A     -0.443507    44A     -0.430534

  @DF-RHF Final Energy:  -501.04262096259254

   => Energetics <=

    Nuclear Repulsion Energy =            611.6202004753604342
    One-Electron Energy =               -1894.2901432033954734
    Two-Electron Energy =                 781.6273217654421614
    DFT Exchange-Correlation Energy =       0.0000000000000000
    Empirical Dispersion Energy =           0.0000000000000000
    PCM Polarization Energy =               0.0000000000000000
    EFP Energy =                            0.0000000000000000
    Total Energy =                       -501.0426209625928777
    Molecular point group: c1
  Basis Set: 6-31G*
  Basis Set:

  -Total Gradient:
     Atom            X                  Y                   Z
    ------   -----------------  -----------------  -----------------
       1        0.000082409343     0.000119155777     0.000166672499
       2       -0.000075522644    -0.000131466483    -0.000200701926
       3       -0.000008858129    -0.000122799968    -0.000125014050
       4       -0.000031517578     0.000032569480    -0.000025739481
       5       -0.000020530837     0.000020253669     0.000002865247
       6        0.000029530543     0.000103488427     0.000201968468
       7       -0.000010874151    -0.000025856867    -0.000016120000
       8        0.000014388493     0.000013680328     0.000002659256
       9        0.000006489041     0.000007116777     0.000022288805
      10       -0.000004558277     0.000005339783    -0.000015089336
      11        0.000006575898    -0.000010199744    -0.000004412805
      12        0.000002168730    -0.000002487586    -0.000002414934
      13       -0.000001131764     0.000002539835    -0.000009415795
      14        0.000000373767    -0.000000067160    -0.000000397658
      15       -0.000006898779    -0.000000865353    -0.000004622660
      16        0.000006738698    -0.000007633418    -0.000000443793
      17        0.000004032597     0.000003654360     0.000006478086
      18        0.000000971596    -0.000007324451    -0.000001329030
      19       -0.000004118749     0.000003838069    -0.000005315371
      20        0.000001110770     0.000003985922     0.000004417603
      21       -0.000002047262     0.000002988564    -0.000001684880
      22        0.000001930579    -0.000003960060     0.000000622739
      23        0.000000550055     0.000000504465     0.000000738321
      24        0.000001323694    -0.000000348440    -0.000000073048
      25       -0.000001436112     0.000000161362    -0.000000071051
      26        0.000023604450    -0.000001529047     0.000004874005
      27       -0.000004493804    -0.000000138623     0.000000296091
      28       -0.000006588530    -0.000001355460     0.000000523631
      29       -0.000003621649    -0.000003244156    -0.000001558931

  **** Optimization is complete! (in 8 steps) ****
    Final optimized geometry and variables:
    Molecular point group: c1

    Geometry (in Angstrom), charge = 0, multiplicity = 1:

    O            3.077361727961     1.769999381066    -0.779303502476
    C            2.603473309814     0.829005112835    -0.226179042726
    C            1.157143212550     0.732715162355     0.195843233749
    O            3.295521246421    -0.261419964863     0.071175780664
    C            0.232751590073     0.689090505013    -1.030630057790
    H            1.024437176655    -0.135189529528     0.826492537231
    H            0.937342357141     1.619462686500     0.781797030773
    C           -1.258736388139     0.735044598045    -0.683997079636
    H            0.443343396776    -0.209386880644    -1.606828461215
    H            0.476051389650     1.533148300538    -1.666822772029
    C           -1.782094798073    -0.486589749929     0.076212837489
    H           -1.816686286267     0.833885504654    -1.612339264768
    H           -1.465405379414     1.636241409398    -0.109377768826
    C           -3.293981077437    -0.439840663484     0.306602564078
    H           -1.530568887437    -1.388936077524    -0.479038232719
    H           -1.282102354797    -0.570762389623     1.038159027925
    C           -3.827442529147    -1.651462153669     1.073086338232
    H           -3.802585209992    -0.370569695951    -0.653499245501
    H           -3.547367342720     0.468548494558     0.850861211493
    C           -5.338252458700    -1.598432494104     1.297388414002
    H           -3.575084478216    -2.560119170322     0.530587897965
    H           -3.322560397621    -1.720374016457     2.034354460204
    H           -5.686019137309    -2.470113425391     1.843098450390
    H           -5.873887234356    -1.564225677262     0.352867032801
    H           -5.619305739576    -0.717476589062     1.867605468075
    C            4.661723394189    -0.275245660288    -0.302139726359
    H            4.763425120423    -0.172339747774    -1.372861509429
    H            5.046060862302    -1.230182578411     0.020785813220
    H            5.195827196936     0.528160788903     0.184205789881

  Mulliken Charges: (a.u.)
   Center  Symbol    Alpha    Beta     Spin     Total
       1     O     4.28727  4.28727  0.00000 -0.57453
       2     C     2.61141  2.61141  0.00000  0.77719
       3     C     3.20216  3.20216  0.00000 -0.40433
       4     O     4.30262  4.30262  0.00000 -0.60523
       5     C     3.16561  3.16561  0.00000 -0.33121
       6     H     0.39942  0.39942  0.00000  0.20116
       7     H     0.40185  0.40185  0.00000  0.19630
       8     C     3.15538  3.15538  0.00000 -0.31076
       9     H     0.41657  0.41657  0.00000  0.16685
      10     H     0.40229  0.40229  0.00000  0.19541
      11     C     3.15496  3.15496  0.00000 -0.30991
      12     H     0.41813  0.41813  0.00000  0.16374
      13     H     0.42126  0.42126  0.00000  0.15747
      14     C     3.15060  3.15060  0.00000 -0.30120
      15     H     0.42279  0.42279  0.00000  0.15441
      16     H     0.42236  0.42236  0.00000  0.15528
      17     C     3.15151  3.15151  0.00000 -0.30302
      18     H     0.42341  0.42341  0.00000  0.15319
      19     H     0.42353  0.42353  0.00000  0.15293
      20     C     3.23941  3.23941  0.00000 -0.47882
      21     H     0.42286  0.42286  0.00000  0.15429
      22     H     0.42313  0.42313  0.00000  0.15373
      23     H     0.41910  0.41910  0.00000  0.16181
      24     H     0.42158  0.42158  0.00000  0.15685
      25     H     0.42162  0.42162  0.00000  0.15675
      26     C     3.09344  3.09344  0.00000 -0.18688
      27     H     0.40874  0.40874  0.00000  0.18252
      28     H     0.40856  0.40856  0.00000  0.18287
      29     H     0.40844  0.40844  0.00000  0.18313

   Total alpha = 44.00000, Total beta = 44.00000, Total charge = -0.00000
