  ==> Input File <==

--------------------------------------------------------------------------
set {
	reference rhf
	basis 6-31G*
}

set_num_threads( 4 )
memory 2 gb

molecule MOL {
0 1

O	 2.444902	 0.205056	 0.928004
C	 1.705091	 0.115954	 0.001797
C	 0.381791	 -0.609817	 0.001258
O	 1.954073	 0.662362	 -1.181665
C	 -0.823008	 0.326187	 0.001381
H	 0.371250	 -1.265087	 -0.865474
H	 0.370908	 -1.265746	 0.867490
C	 -2.149452	 -0.435131	 -0.000098
H	 -0.770201	 0.977095	 -0.865636
H	 -0.771220	 0.975655	 0.869608
C	 -3.368779	 0.488503	 -0.000883
H	 -2.193746	 -1.087250	 -0.871175
H	 -2.195311	 -1.087803	 0.870418
C	 -4.693822	 -0.272754	 -0.001129
H	 -3.325798	 1.139422	 -0.871284
H	 -3.326423	 1.139959	 0.869145
H	 -4.781274	 -0.907928	 -0.878124
H	 -5.538651	 0.408946	 -0.001420
H	 -4.781694	 -0.907783	 0.875984
C	 3.168593	 1.377704	 -1.316507
H	 3.200723	 2.206030	 -0.623418
H	 3.186773	 1.739442	 -2.332721
H	 4.013710	 0.729490	 -1.134567

	symmetry c1
}
set optking {
	frozen_dihedral = ("
		1 2 3 6
	")
}

ee = optimize('scf')
oeprop('DIPOLE', 'QUADRUPOLE', 'MULLIKEN_CHARGES')
f=open( 'psi4out.xyz', 'w' )
f.write( "23  " )
f.write( str(ee) + "\n" )
f.write( MOL.save_string_xyz() )
f.close()
--------------------------------------------------------------------------

    Molecular point group: c1
  Charge       = 0
  Multiplicity = 1
  Basis Set: 6-31G*
  Basis Set:
  @DF-RHF Final Energy:  -422.97463378567664
    Total Energy =                       -422.9746337856767013
    Molecular point group: c1
  Basis Set: 6-31G*
  Basis Set:
  Basis Set: 6-31G*
  Basis Set:
  @DF-RHF Final Energy:  -422.97493449075807
    Total Energy =                       -422.9749344907581872
  Basis Set: 6-31G*
  Basis Set:
  Basis Set: 6-31G*
  Basis Set:
  @DF-RHF Final Energy:  -422.97495283173481
    Total Energy =                       -422.9749528317352087
  Basis Set: 6-31G*
  Basis Set:
  Basis Set: 6-31G*
  Basis Set:
  @DF-RHF Final Energy:  -422.97505663170045
    Total Energy =                       -422.9750566317004541
  Basis Set: 6-31G*
  Basis Set:
  Basis Set: 6-31G*
  Basis Set:
  @DF-RHF Final Energy:  -422.97508660871938
    Total Energy =                       -422.9750866087196073
  Basis Set: 6-31G*
  Basis Set:
  Charge       = 0
  Multiplicity = 1
  Basis Set: 6-31G*
  Basis Set:

    Orbital Energies (a.u.)
    -----------------------

    Doubly Occupied:

       1A    -20.603973     2A    -20.543435     3A    -11.370604
       4A    -11.280621     5A    -11.233815     6A    -11.229065
       7A    -11.221913     8A    -11.220164     9A    -11.212199
      10A     -1.468425    11A     -1.361092    12A     -1.097307
      13A     -1.045715    14A     -0.984229    15A     -0.934715
      16A     -0.847268    17A     -0.798717    18A     -0.773193
      19A     -0.693514    20A     -0.680152    21A     -0.672667
      22A     -0.653537    23A     -0.608246    24A     -0.593771
      25A     -0.578899    26A     -0.571382    27A     -0.543197
      28A     -0.533783    29A     -0.523569    30A     -0.506164
      31A     -0.492197    32A     -0.477201    33A     -0.470711
      34A     -0.467848    35A     -0.453702    36A     -0.427055

  @DF-RHF Final Energy:  -422.97508682430157

   => Energetics <=

    Nuclear Repulsion Energy =            454.8880811619649194
    One-Electron Energy =               -1477.3782501296614100
    Two-Electron Energy =                 599.5150821433948067
    DFT Exchange-Correlation Energy =       0.0000000000000000
    Empirical Dispersion Energy =           0.0000000000000000
    PCM Polarization Energy =               0.0000000000000000
    EFP Energy =                            0.0000000000000000
    Total Energy =                       -422.9750868243016839
    Molecular point group: c1
  Basis Set: 6-31G*
  Basis Set:

  -Total Gradient:
     Atom            X                  Y                   Z
    ------   -----------------  -----------------  -----------------
       1       -0.000024835117     0.000004281523     0.000006406834
       2        0.000056340689    -0.000029152836     0.000018806519
       3       -0.000019312780     0.000025640429     0.000022043738
       4        0.000008256239    -0.000035561061    -0.000051881470
       5        0.000007534420    -0.000010679039    -0.000033232536
       6       -0.000005776882     0.000026153654    -0.000015324965
       7        0.000013161538    -0.000003432701     0.000002140123
       8        0.000001021760    -0.000006779965     0.000025625851
       9       -0.000019530684     0.000021488156    -0.000004263948
      10        0.000011349430    -0.000031990180     0.000001137386
      11        0.000000060223     0.000007036708    -0.000013307615
      12        0.000027124067     0.000002092221     0.000010383428
      13       -0.000007133138     0.000001685311     0.000010532961
      14       -0.000000940608     0.000003480159    -0.000003979870
      15       -0.000003944182     0.000006206405    -0.000002302334
      16       -0.000003854279    -0.000003487144    -0.000002621314
      17       -0.000001620801     0.000001089521    -0.000001114530
      18        0.000000000321    -0.000000523731     0.000001280304
      19        0.000002272711    -0.000000888164     0.000000043782
      20       -0.000044376206     0.000046690187     0.000036438610
      21        0.000021255459     0.000007476307    -0.000008451649
      22       -0.000003496512    -0.000009717683    -0.000003044069
      23       -0.000013555678    -0.000021108078     0.000004684763

  **** Optimization is complete! (in 6 steps) ****
    Final optimized geometry and variables:
    Molecular point group: c1

    Geometry (in Angstrom), charge = 0, multiplicity = 1:

    O            2.566619620403    -0.056158781138     1.103598543891
    C            1.825025483849    -0.130200035310     0.177092374811
    C            0.509995788723    -0.868118318597     0.176984955082
    O            2.062438860704     0.455474516888    -0.990414608230
    C           -0.689352495852     0.090774647953     0.155105035036
    H            0.478007056660    -1.514121995718    -0.694465924966
    H            0.488059160126    -1.485965163459     1.065337318760
    C           -2.025233635931    -0.652629271778     0.191031156811
    H           -0.637289635549     0.708856828823    -0.735698074608
    H           -0.624693166310     0.761145399954     1.008927198107
    C           -3.232952936081     0.285930792544     0.168367179204
    H           -2.081778334001    -1.331997515410    -0.657763604471
    H           -2.069187384420    -1.273753977392     1.083726861102
    C           -4.566668632421    -0.459355420254     0.202442910948
    H           -3.189099264831     0.907206401531    -0.723483895306
    H           -3.176938316222     0.964583480536     1.016598056153
    H           -4.668007761331    -1.121458497453    -0.652812314612
    H           -5.403286073605     0.232064151066     0.186096828491
    H           -4.655019793614    -1.064273472138     1.100380092735
    C            3.258849594769     1.204473840724    -1.101681622577
    H            3.269337998554     2.012843989750    -0.384786723706
    H            3.269977753321     1.595718146684    -2.107073777914
    H            4.119008177019     0.571907739550    -0.936253553236

  Mulliken Charges: (a.u.)
   Center  Symbol    Alpha    Beta     Spin     Total
       1     O     4.28497  4.28497  0.00000 -0.56994
       2     C     2.61648  2.61648  0.00000  0.76704
       3     C     3.19482  3.19482  0.00000 -0.38964
       4     O     4.30283  4.30283  0.00000 -0.60567
       5     C     3.16550  3.16550  0.00000 -0.33099
       6     H     0.40459  0.40459  0.00000  0.19081
       7     H     0.39921  0.39921  0.00000  0.20157
       8     C     3.15207  3.15207  0.00000 -0.30414
       9     H     0.40892  0.40892  0.00000  0.18216
      10     H     0.41316  0.41316  0.00000  0.17367
      11     C     3.15239  3.15239  0.00000 -0.30478
      12     H     0.42199  0.42199  0.00000  0.15601
      13     H     0.42088  0.42088  0.00000  0.15824
      14     C     3.23984  3.23984  0.00000 -0.47968
      15     H     0.42179  0.42179  0.00000  0.15641
      16     H     0.42130  0.42130  0.00000  0.15740
      17     H     0.42127  0.42127  0.00000  0.15747
      18     H     0.41814  0.41814  0.00000  0.16372
      19     H     0.42087  0.42087  0.00000  0.15825
      20     C     3.09231  3.09231  0.00000 -0.18463
      21     H     0.40912  0.40912  0.00000  0.18175
      22     H     0.40890  0.40890  0.00000  0.18220
      23     H     0.40863  0.40863  0.00000  0.18275

   Total alpha = 36.00000, Total beta = 36.00000, Total charge =  0.00000
