  ==> Input File <==

--------------------------------------------------------------------------
set {
	reference rhf
	basis cc-pvtz
}

set_num_threads( 4 )
memory 2 gb

molecule MOL {
0 1

O	 -1.510770	 1.240811	 -0.054933
C	 -1.081510	 0.147522	 0.122720
C	 0.327029	 -0.064006	 0.641890
C	 -1.903028	 -1.084121	 -0.174656
C	 1.349460	 -0.017068	 -0.500215
H	 0.399029	 -1.014606	 1.159950
H	 0.538021	 0.726928	 1.350471
C	 2.469755	 -1.035136	 -0.320708
H	 0.849237	 -0.195746	 -1.447680
H	 1.765167	 0.982363	 -0.551702
H	 3.183189	 -0.973291	 -1.133861
H	 2.081103	 -2.047619	 -0.296643
H	 3.006609	 -0.864015	 0.605778
H	 -1.341891	 -1.779207	 -0.789259
H	 -2.820449	 -0.808163	 -0.671328
H	 -2.133314	 -1.593056	 0.755831

	symmetry c1
}
set optking {
	frozen_dihedral = ("
		9 5 3 2
	")
}

ee = optimize('scf')
oeprop('DIPOLE', 'QUADRUPOLE', 'MULLIKEN_CHARGES')
f=open( 'psi4out.xyz', 'w' )
f.write( "16  " )
f.write( str(ee) + "\n" )
f.write( MOL.save_string_xyz() )
f.close()
--------------------------------------------------------------------------

    Molecular point group: c1
  Charge       = 0
  Multiplicity = 1
  Basis Set: CC-PVTZ
  Basis Set:
  @DF-RHF Final Energy:  -270.12513942638151
    Total Energy =                       -270.1251394263817360
    Molecular point group: c1
  Basis Set: CC-PVTZ
  Basis Set:
  Basis Set: CC-PVTZ
  Basis Set:
  @DF-RHF Final Energy:  -270.12538660833218
    Total Energy =                       -270.1253866083320645
  Basis Set: CC-PVTZ
  Basis Set:
  Basis Set: CC-PVTZ
  Basis Set:
  @DF-RHF Final Energy:  -270.12562047825008
    Total Energy =                       -270.1256204782500845
  Basis Set: CC-PVTZ
  Basis Set:
  Basis Set: CC-PVTZ
  Basis Set:
  @DF-RHF Final Energy:  -270.12569334389036
    Total Energy =                       -270.1256933438904184
  Basis Set: CC-PVTZ
  Basis Set:
  Basis Set: CC-PVTZ
  Basis Set:
  @DF-RHF Final Energy:  -270.12572116664654
    Total Energy =                       -270.1257211666467128
  Basis Set: CC-PVTZ
  Basis Set:
  Basis Set: CC-PVTZ
  Basis Set:
  @DF-RHF Final Energy:  -270.12573170997166
    Total Energy =                       -270.1257317099714328
  Basis Set: CC-PVTZ
  Basis Set:
  Basis Set: CC-PVTZ
  Basis Set:
  @DF-RHF Final Energy:  -270.12573386221095
    Total Energy =                       -270.1257338622112911
  Basis Set: CC-PVTZ
  Basis Set:
  Charge       = 0
  Multiplicity = 1
  Basis Set: CC-PVTZ
  Basis Set:

    Orbital Energies (a.u.)
    -----------------------

    Doubly Occupied:

       1A    -20.536976     2A    -11.319614     3A    -11.233437
       4A    -11.228612     5A    -11.227225     6A    -11.220138
       7A     -1.396891     8A     -1.084068     9A     -1.013399
      10A     -0.952099    11A     -0.832917    12A     -0.736908
      13A     -0.656870    14A     -0.653918    15A     -0.615159
      16A     -0.603848    17A     -0.583445    18A     -0.561519
      19A     -0.537856    20A     -0.520318    21A     -0.505864
      22A     -0.483106    23A     -0.476117    24A     -0.400176

  @DF-RHF Final Energy:  -270.12573443619215

   => Energetics <=

    Nuclear Repulsion Energy =            237.9847632007934237
    One-Electron Energy =                -837.4600386072141873
    Two-Electron Energy =                 329.3495409702285315
    DFT Exchange-Correlation Energy =       0.0000000000000000
    Empirical Dispersion Energy =           0.0000000000000000
    PCM Polarization Energy =               0.0000000000000000
    EFP Energy =                            0.0000000000000000
    Total Energy =                       -270.1257344361922605
    Molecular point group: c1
  Basis Set: CC-PVTZ
  Basis Set:

  -Total Gradient:
     Atom            X                  Y                   Z
    ------   -----------------  -----------------  -----------------
       1       -0.000005527370    -0.000004926427    -0.000001295784
       2       -0.000329531481    -0.002722304969    -0.000168058519
       3        0.000326717060     0.004663456680     0.000045881314
       4       -0.000004010966    -0.000011543611     0.000010232788
       5        0.000572952089    -0.005647072577     0.000694148926
       6       -0.000013611106    -0.000008640351     0.000008865101
       7       -0.000007701053    -0.000007613025     0.000012807550
       8        0.000018712103    -0.000001980519     0.000003377440
       9       -0.000551764944     0.003743252215    -0.000599383870
      10        0.000001406505    -0.000012401156    -0.000005874323
      11        0.000000894466     0.000004224992    -0.000003644901
      12       -0.000006931689     0.000005597400     0.000000561528
      13       -0.000004155912    -0.000000072222    -0.000000896155
      14        0.000005653441     0.000006110874     0.000000189947
      15        0.000000482748     0.000009207996     0.000005705184
      16       -0.000003583899    -0.000015295300    -0.000002616226

  **** Optimization is complete! (in 8 steps) ****
    Final optimized geometry and variables:
    Molecular point group: c1

    Geometry (in Angstrom), charge = 0, multiplicity = 1:

    O           -1.523334561385     1.391611006311     0.164900287628
    C           -1.027530331704     0.312990736149     0.208921150870
    C            0.396576256523     0.111010930108     0.680950584398
    C           -1.789830049835    -0.922954966237    -0.210979084706
    C            1.384899978868     0.068591641543    -0.505661709693
    H            0.450563562654    -0.823608528671     1.230319894626
    H            0.649699593437     0.913405372476     1.358974541876
    C            2.536726918014    -0.906513007790    -0.299157927656
    H            0.858499163806    -0.159845524243    -1.426837540422
    H            1.778296050304     1.067345435367    -0.653971103668
    H            3.231841597985    -0.869256567564    -1.129555460734
    H            2.176968793122    -1.926071706136    -0.210986685429
    H            3.087187209347    -0.671412182332     0.605432655354
    H           -1.183999435297    -1.565913662397    -0.838278966208
    H           -2.693419706613    -0.641626124140    -0.729628803225
    H           -2.049489648667    -1.490955427414     0.676835296320

  Mulliken Charges: (a.u.)
   Center  Symbol    Alpha    Beta     Spin     Total
       1     O     4.17604  4.17604  0.00000 -0.35207
       2     C     2.85750  2.85750  0.00000  0.28500
       3     C     3.09835  3.09835  0.00000 -0.19670
       4     C     3.15670  3.15670  0.00000 -0.31340
       5     C     3.09362  3.09362  0.00000 -0.18724
       6     H     0.45225  0.45225  0.00000  0.09550
       7     H     0.43746  0.43746  0.00000  0.12509
       8     C     3.14824  3.14824  0.00000 -0.29649
       9     H     0.45020  0.45020  0.00000  0.09960
      10     H     0.44164  0.44164  0.00000  0.11672
      11     H     0.44659  0.44659  0.00000  0.10681
      12     H     0.45585  0.45585  0.00000  0.08829
      13     H     0.45171  0.45171  0.00000  0.09657
      14     H     0.45078  0.45078  0.00000  0.09845
      15     H     0.43561  0.43561  0.00000  0.12878
      16     H     0.44745  0.44745  0.00000  0.10511

   Total alpha = 24.00000, Total beta = 24.00000, Total charge = -0.00000
