  ==> Input File <==

--------------------------------------------------------------------------
set {
	reference rhf
	basis 6-31G*
}

set_num_threads( 4 )
memory 2 gb

molecule MOL {
0 1

H	 -3.420663	 1.227371	 -1.044276
O	 -3.452007	 0.283848	 -0.965577
C	 -3.181085	 -0.079926	 0.364119
C	 -1.765924	 0.277073	 0.805136
H	 -3.327791	 -1.152017	 0.410903
H	 -3.905698	 0.375695	 1.036898
C	 -0.677594	 -0.417312	 -0.014550
H	 -1.637766	 1.358238	 0.744969
H	 -1.659588	 0.017670	 1.857098
C	 -0.539510	 0.147606	 -1.429816
H	 -0.891903	 -1.480505	 -0.063560
H	 0.273617	 -0.321605	 0.506440
C	 0.555781	 -0.548450	 -2.242177
H	 -1.495002	 0.057999	 -1.941113
H	 -0.321569	 1.213468	 -1.374637
C	 0.792774	 0.041371	 -3.637205
H	 0.316161	 -1.606465	 -2.336417
H	 1.488158	 -0.498187	 -1.683640
C	 -0.380140	 -0.124292	 -4.605314
H	 1.669720	 -0.435653	 -4.068137
H	 1.037817	 1.097546	 -3.544192
H	 -0.655818	 -1.170468	 -4.708537
H	 -0.120843	 0.246889	 -5.592141
H	 -1.259590	 0.418575	 -4.275121

	symmetry c1
}
set optking {
	frozen_dihedral = ("
		11 7 4 3
	")
}

ee = optimize('scf')
oeprop('DIPOLE', 'QUADRUPOLE', 'MULLIKEN_CHARGES')
f=open( 'psi4out.xyz', 'w' )
f.write( "24  " )
f.write( str(ee) + "\n" )
f.write( MOL.save_string_xyz() )
f.close()
--------------------------------------------------------------------------

    Molecular point group: c1
  Charge       = 0
  Multiplicity = 1
  Basis Set: 6-31G*
  Basis Set:
  @DF-RHF Final Energy:  -349.24294480634063
    Total Energy =                       -349.2429448063403470
    Molecular point group: c1
  Basis Set: 6-31G*
  Basis Set:
  Basis Set: 6-31G*
  Basis Set:
  @DF-RHF Final Energy:  -349.24501692730144
    Total Energy =                       -349.2450169273012079
  Basis Set: 6-31G*
  Basis Set:
  Basis Set: 6-31G*
  Basis Set:
  @DF-RHF Final Energy:  -349.24519745443069
    Total Energy =                       -349.2451974544304676
  Basis Set: 6-31G*
  Basis Set:
  Basis Set: 6-31G*
  Basis Set:
  @DF-RHF Final Energy:  -349.24520210958809
    Total Energy =                       -349.2452021095882628
  Basis Set: 6-31G*
  Basis Set:
  Basis Set: 6-31G*
  Basis Set:
  @DF-RHF Final Energy:  -349.24521178724370
    Total Energy =                       -349.2452117872436474
  Basis Set: 6-31G*
  Basis Set:
  Basis Set: 6-31G*
  Basis Set:
  @DF-RHF Final Energy:  -349.24524424547354
    Total Energy =                       -349.2452442454731454
  Basis Set: 6-31G*
  Basis Set:
  Charge       = 0
  Multiplicity = 1
  Basis Set: 6-31G*
  Basis Set:

    Orbital Energies (a.u.)
    -----------------------

    Doubly Occupied:

       1A    -20.555165     2A    -11.268862     3A    -11.219206
       4A    -11.213964     5A    -11.210822     6A    -11.208197
       7A    -11.204560     8A    -11.202912     9A     -1.361558
      10A     -1.085050    11A     -1.046127    12A     -0.983290
      13A     -0.913506    14A     -0.853475    15A     -0.796483
      16A     -0.772640    17A     -0.680390    18A     -0.648872
      19A     -0.630713    20A     -0.608518    21A     -0.602455
      22A     -0.576736    23A     -0.548574    24A     -0.541375
      25A     -0.523422    26A     -0.508591    27A     -0.491244
      28A     -0.484311    29A     -0.468230    30A     -0.456296
      31A     -0.453176    32A     -0.436362    33A     -0.417049

  @DF-RHF Final Energy:  -349.24524468132876

   => Energetics <=

    Nuclear Repulsion Energy =            394.4658669990542990
    One-Electron Energy =               -1255.4779634274425462
    Two-Electron Energy =                 511.7668517470593201
    DFT Exchange-Correlation Energy =       0.0000000000000000
    Empirical Dispersion Energy =           0.0000000000000000
    PCM Polarization Energy =               0.0000000000000000
    EFP Energy =                            0.0000000000000000
    Total Energy =                       -349.2452446813289839
    Molecular point group: c1
  Basis Set: 6-31G*
  Basis Set:

  -Total Gradient:
     Atom            X                  Y                   Z
    ------   -----------------  -----------------  -----------------
       1       -0.000000526198    -0.000018842308     0.000017329740
       2       -0.000002810702    -0.000027626499    -0.000111904590
       3       -0.000029426019     0.000023832413     0.000126614157
       4       -0.000022633619     0.000063648774    -0.000103569628
       5        0.000010621758     0.000031671763    -0.000011528370
       6       -0.000008797179    -0.000040505783     0.000030804638
       7        0.000124762326    -0.000071151929     0.000192046916
       8       -0.000006938967    -0.000033012507    -0.000010744566
       9        0.000039300358     0.000006747556     0.000012467029
      10       -0.000093831326     0.000048162880    -0.000056680029
      11       -0.000109301098     0.000012622912    -0.000109290898
      12       -0.000009955112     0.000010585536    -0.000010036995
      13       -0.000030412673    -0.000001516534    -0.000020227775
      14        0.000126914115    -0.000007414886     0.000034618933
      15       -0.000001309694     0.000048071042    -0.000000506865
      16        0.000006534897    -0.000030789644     0.000019065464
      17        0.000011349896    -0.000015716175    -0.000017035025
      18        0.000011927898     0.000008152120    -0.000015358281
      19       -0.000012650136     0.000003363359     0.000002018551
      20        0.000009911784    -0.000010976936     0.000028402263
      21       -0.000001866312    -0.000000313772    -0.000001984331
      22        0.000001948209     0.000000049568    -0.000012588346
      23       -0.000002987914     0.000013095339     0.000003417491
      24       -0.000009824288    -0.000012136291     0.000014670513

  **** Optimization is complete! (in 7 steps) ****
    Final optimized geometry and variables:
    Molecular point group: c1

    Geometry (in Angstrom), charge = 0, multiplicity = 1:

    H           -2.442868866631     1.416125712939     0.673789741088
    O           -2.494035267393     0.470318823668     0.662172334512
    C           -2.076086344788    -0.032636057353     1.905820420771
    C           -0.624286065779     0.281277788862     2.258076333497
    H           -2.220584227498    -1.104638974976     1.851612932564
    H           -2.726006536423     0.340194955629     2.695823540573
    C            0.441355785875    -0.399229508409     1.388565722029
    H           -0.477279385483     1.361559532337     2.244258214600
    H           -0.475598151035    -0.026470141238     3.291476719469
    C            0.597408596308     0.163657063642    -0.027694790929
    H            0.222534141928    -1.464364836913     1.331246132892
    H            1.397222412997    -0.315677887777     1.901789068739
    C            1.739485678942    -0.507442196236    -0.795801916799
    H           -0.335401639731     0.051257862948    -0.564044439948
    H            0.793948838289     1.234251991988     0.035326735080
    C            1.992764660043     0.068412929856    -2.193829462950
    H            1.538397444247    -1.574500501094    -0.881167424362
    H            2.655326504031    -0.417654434169    -0.214471654595
    C            0.856870452669    -0.165416425948    -3.191523351599
    H            2.902340217264    -0.376227533177    -2.590687356724
    H            2.188533126887     1.135923532173    -2.112465416533
    H            0.638351615659    -1.225221924985    -3.291417984429
    H            1.124141465168     0.209956912307    -4.174792894736
    H           -0.058300330917     0.332602249325    -2.889943282324

  Mulliken Charges: (a.u.)
   Center  Symbol    Alpha    Beta     Spin     Total
       1     H     0.28302  0.28302  0.00000  0.43395
       2     O     4.36739  4.36739  0.00000 -0.73478
       3     C     2.99511  2.99511  0.00000  0.00979
       4     C     3.17036  3.17036  0.00000 -0.34072
       5     H     0.41643  0.41643  0.00000  0.16714
       6     H     0.42841  0.42841  0.00000  0.14318
       7     C     3.15183  3.15183  0.00000 -0.30365
       8     H     0.42732  0.42732  0.00000  0.14536
       9     H     0.42036  0.42036  0.00000  0.15929
      10     C     3.15951  3.15951  0.00000 -0.31903
      11     H     0.42290  0.42290  0.00000  0.15421
      12     H     0.42233  0.42233  0.00000  0.15535
      13     C     3.15281  3.15281  0.00000 -0.30563
      14     H     0.40127  0.40127  0.00000  0.19746
      15     H     0.43075  0.43075  0.00000  0.13849
      16     C     3.15177  3.15177  0.00000 -0.30354
      17     H     0.42467  0.42467  0.00000  0.15067
      18     H     0.42466  0.42466  0.00000  0.15069
      19     C     3.24120  3.24120  0.00000 -0.48239
      20     H     0.42219  0.42219  0.00000  0.15562
      21     H     0.42481  0.42481  0.00000  0.15038
      22     H     0.42216  0.42216  0.00000  0.15568
      23     H     0.42080  0.42080  0.00000  0.15840
      24     H     0.41796  0.41796  0.00000  0.16408

   Total alpha = 33.00000, Total beta = 33.00000, Total charge =  0.00000
