  ==> Input File <==

--------------------------------------------------------------------------
set {
	reference rhf
	basis 6-31G*
}

set_num_threads( 1 )
memory 2 gb

molecule MOL {
0 1

H	 2.734285	 -1.695318	 -0.659364
O	 2.826016	 -1.159218	 0.122261
C	 2.077727	 -0.067559	 -0.035091
C	 0.624473	 -0.343591	 0.253101
O	 2.542965	 0.974826	 -0.363729
C	 -0.265902	 0.883932	 0.072916
H	 0.324016	 -1.163849	 -0.390541
H	 0.565024	 -0.726111	 1.268924
C	 -1.728698	 0.646073	 0.462102
H	 -0.209144	 1.219470	 -0.958188
H	 0.135059	 1.692851	 0.673903
C	 -2.482460	 -0.343073	 -0.431425
H	 -2.245265	 1.602650	 0.432430
H	 -1.779332	 0.308348	 1.496285
C	 -3.960546	 -0.461025	 -0.060175
H	 -2.395034	 -0.026811	 -1.468912
H	 -2.024850	 -1.327147	 -0.371646
H	 -4.472726	 -1.168004	 -0.705284
H	 -4.465146	 0.496508	 -0.151489
H	 -4.081218	 -0.800940	 0.964585

	symmetry c1
}
set optking {
	frozen_dihedral = ("
		16 12 9 6,
		7 4 6 10,
		12 9 6 10,
		5 3 4 7
	")
}

ee = energy('scf')
oeprop('DIPOLE', 'QUADRUPOLE', 'MULLIKEN_CHARGES')
f=open( 'psi4out.xyz', 'w' )
f.write( "20  " )
f.write( str(ee) + "\n" )
f.write( MOL.save_string_xyz() )
f.close()
--------------------------------------------------------------------------

    Molecular point group: c1

    Geometry (in Angstrom), charge = 0, multiplicity = 1:

       Center              X                  Y                   Z               Mass
    ------------   -----------------  -----------------  -----------------  -----------------
           H          2.742925233466    -1.688658735931    -0.654252187258     1.007825032070
           O          2.834656233466    -1.152558735931     0.127372812742    15.994914619560
           C          2.086367233466    -0.060899735931    -0.029979187258    12.000000000000
           C          0.633113233466    -0.336931735931     0.258212812742    12.000000000000
           O          2.551605233466     0.981485264069    -0.358617187258    15.994914619560
           C         -0.257261766534     0.890591264069     0.078027812742    12.000000000000
           H          0.332656233466    -1.157189735931    -0.385429187258     1.007825032070
           H          0.573664233466    -0.719451735931     1.274035812742     1.007825032070
           C         -1.720057766534     0.652732264069     0.467213812742    12.000000000000
           H         -0.200503766534     1.226129264069    -0.953076187258     1.007825032070
           H          0.143699233466     1.699510264069     0.679014812742     1.007825032070
           C         -2.473819766534    -0.336413735931    -0.426313187258    12.000000000000
           H         -2.236624766534     1.609309264069     0.437541812742     1.007825032070
           H         -1.770691766534     0.315007264069     1.501396812742     1.007825032070
           C         -3.951905766534    -0.454365735931    -0.055063187258    12.000000000000
           H         -2.386393766534    -0.020151735931    -1.463800187258     1.007825032070
           H         -2.016209766534    -1.320487735931    -0.366534187258     1.007825032070
           H         -4.464085766534    -1.161344735931    -0.700172187258     1.007825032070
           H         -4.456505766534     0.503167264069    -0.146377187258     1.007825032070
           H         -4.072577766534    -0.794280735931     0.969696812742     1.007825032070

  Charge       = 0
  Multiplicity = 1
  Basis Set: 6-31G*
  Basis Set:

    Orbital Energies (a.u.)
    -----------------------

    Doubly Occupied:

       1A    -20.598651     2A    -20.559897     3A    -11.379818
       4A    -11.242752     5A    -11.224325     6A    -11.223389
       7A    -11.222045     8A    -11.214742     9A     -1.468476
      10A     -1.369403    11A     -1.097939    12A     -1.041790
      13A     -0.959551    14A     -0.865722    15A     -0.821026
      16A     -0.785361    17A     -0.715165    18A     -0.677231
      19A     -0.666149    20A     -0.636032    21A     -0.618974
      22A     -0.588101    23A     -0.562267    24A     -0.559246
      25A     -0.528390    26A     -0.511324    27A     -0.498837
      28A     -0.493222    29A     -0.471864    30A     -0.465545
      31A     -0.459878    32A     -0.442882

  @DF-RHF Final Energy:  -383.92529346049042

   => Energetics <=

    Nuclear Repulsion Energy =            376.2238532329171790
    One-Electron Energy =               -1268.3583183060732154
    Two-Electron Energy =                 508.2091716126649317
    DFT Exchange-Correlation Energy =       0.0000000000000000
    Empirical Dispersion Energy =           0.0000000000000000
    PCM Polarization Energy =               0.0000000000000000
    EFP Energy =                            0.0000000000000000
    Total Energy =                       -383.9252934604910479

  Mulliken Charges: (a.u.)
   Center  Symbol    Alpha    Beta     Spin     Total
       1     H     0.26619  0.26619  0.00000  0.46762
       2     O     4.35662  4.35662  0.00000 -0.71323
       3     C     2.63338  2.63338  0.00000  0.73325
       4     C     3.21292  3.21292  0.00000 -0.42584
       5     O     4.25163  4.25163  0.00000 -0.50326
       6     C     3.15509  3.15509  0.00000 -0.31018
       7     H     0.41100  0.41100  0.00000  0.17799
       8     H     0.39701  0.39701  0.00000  0.20599
       9     C     3.15544  3.15544  0.00000 -0.31088
      10     H     0.41371  0.41371  0.00000  0.17259
      11     H     0.40638  0.40638  0.00000  0.18725
      12     C     3.15462  3.15462  0.00000 -0.30923
      13     H     0.41757  0.41757  0.00000  0.16486
      14     H     0.42334  0.42334  0.00000  0.15332
      15     C     3.23917  3.23917  0.00000 -0.47833
      16     H     0.42193  0.42193  0.00000  0.15614
      17     H     0.42450  0.42450  0.00000  0.15100
      18     H     0.41851  0.41851  0.00000  0.16298
      19     H     0.42005  0.42005  0.00000  0.15989
      20     H     0.42096  0.42096  0.00000  0.15808

   Total alpha = 32.00000, Total beta = 32.00000, Total charge =  0.00000
