                              Psi4 1.0.54 Driver

  ==> Input File <==

--------------------------------------------------------------------------
set {
	reference rhf
	basis cc-pvtz
}

set_num_threads( 4 )
memory 2 gb

molecule MOL {
0 1

H	 -3.941627	 0.934295	 -0.390185
C	 -3.239816	 0.342768	 0.161055
C	 -2.105651	 -0.000351	 -0.398664
H	 -3.485022	 0.047273	 1.162232
O	 -1.189600	 -0.765796	 0.237550
H	 -1.846112	 0.297378	 -1.398226
C	 0.026918	 -0.995189	 -0.379364
C	 1.057569	 0.049955	 -0.004576
H	 -0.054015	 -1.010603	 -1.459635
H	 0.397872	 -1.951991	 -0.044159
F	 2.203579	 -0.233993	 -0.590336
F	 0.698493	 1.254954	 -0.392582
F	 1.266786	 0.094286	 1.288761

	symmetry c1
}
ee,wfn = energy('scf', return_wfn=True)
oeprop( wfn, 'DIPOLE', 'QUADRUPOLE', 'MULLIKEN_CHARGES')
oeprop( wfn, 'GRID_ESP')
f=open( 'psi4out.xyz', 'w' )
f.write( "13  " )
f.write( str(ee) + "\n" )
f.write( MOL.save_string_xyz() )
f.close()
--------------------------------------------------------------------------

    Molecular point group: c1

    Geometry (in Angstrom), charge = 0, multiplicity = 1:

       Center              X                  Y                   Z               Mass
    ------------   -----------------  -----------------  -----------------  -----------------
           H         -3.941972648936     0.934227999960    -0.390223820338     1.007825032070
           C         -3.240161648936     0.342700999960     0.161016179662    12.000000000000
           C         -2.105996648936    -0.000418000040    -0.398702820338    12.000000000000
           H         -3.485367648936     0.047205999960     1.162193179662     1.007825032070
           O         -1.189945648936    -0.765863000040     0.237511179662    15.994914619560
           H         -1.846457648936     0.297310999960    -1.398264820338     1.007825032070
           C          0.026572351064    -0.995256000040    -0.379402820338    12.000000000000
           C          1.057223351064     0.049887999960    -0.004614820338    12.000000000000
           H         -0.054360648936    -1.010670000040    -1.459673820338     1.007825032070
           H          0.397526351064    -1.952058000040    -0.044197820338     1.007825032070
           F          2.203233351064    -0.234060000040    -0.590374820338    18.998403224000
           F          0.698147351064     1.254886999960    -0.392620820338    18.998403224000
           F          1.266440351064     0.094218999960     1.288722179662    18.998403224000

  Charge       = 0
  Multiplicity = 1
  Basis Set: CC-PVTZ
  Basis Set:

    Orbital Energies (a.u.)
    -----------------------

    Doubly Occupied:

       1A    -26.341833     2A    -26.340581     3A    -26.338049
       4A    -20.604103     5A    -11.497833     6A    -11.320171
       7A    -11.298716     8A    -11.213868     9A     -1.750501
      10A     -1.646982    11A     -1.645415    12A     -1.444673
      13A     -1.088253    14A     -1.020681    15A     -0.932299
      16A     -0.843992    17A     -0.839643    18A     -0.827099
      19A     -0.798350    20A     -0.728919    21A     -0.719275
      22A     -0.703903    23A     -0.681810    24A     -0.668162
      25A     -0.661606    26A     -0.650952    27A     -0.640752
      28A     -0.587996    29A     -0.566365    30A     -0.529034
      31A     -0.518594    32A     -0.356671

  @DF-RHF Final Energy:  -527.74208273681666

   => Energetics <=

    Nuclear Repulsion Energy =            413.5281271222983719
    One-Electron Energy =               -1550.9265533197105924
    Two-Electron Energy =                 609.6563434605951670
    DFT Exchange-Correlation Energy =       0.0000000000000000
    Empirical Dispersion Energy =           0.0000000000000000
    PCM Polarization Energy =               0.0000000000000000
    EFP Energy =                            0.0000000000000000
    Total Energy =                       -527.7420827368169967

  Mulliken Charges: (a.u.)
   Center  Symbol    Alpha    Beta     Spin     Total
       1     H     0.42515  0.42515  0.00000  0.14970
       2     C     3.19748  3.19748  0.00000 -0.39497
       3     C     2.95867  2.95867  0.00000  0.08266
       4     H     0.42474  0.42474  0.00000  0.15052
       5     O     4.14451  4.14451  0.00000 -0.28901
       6     H     0.43451  0.43451  0.00000  0.13099
       7     C     3.01921  3.01921  0.00000 -0.03843
       8     C     2.67548  2.67548  0.00000  0.64903
       9     H     0.45525  0.45525  0.00000  0.08950
      10     H     0.43521  0.43521  0.00000  0.12957
      11     F     4.61261  4.61261  0.00000 -0.22522
      12     F     4.61041  4.61041  0.00000 -0.22083
      13     F     4.60676  4.60676  0.00000 -0.21351

   Total alpha = 32.00000, Total beta = 32.00000, Total charge = -0.00000

*** Psi4 exiting successfully. Buy a developer a beer!
