                              Psi4 1.0.54 Driver

  ==> Input File <==

--------------------------------------------------------------------------
set {
	reference rhf
	basis cc-pvtz
}

set_num_threads( 4 )
memory 2 gb

molecule MOL {
0 1

H	 -2.198176	 -0.764295	 -1.244210
O	 -2.321472	 -0.864941	 -0.318626
C	 -2.021813	 0.336996	 0.342658
C	 -0.669613	 0.837286	 -0.127252
H	 -2.780861	 1.084746	 0.127159
H	 -2.006390	 0.184138	 1.420053
C	 0.490865	 -0.082543	 0.241244
H	 -0.708709	 0.967192	 -1.204587
H	 -0.507562	 1.822272	 0.303070
C	 1.839800	 0.429565	 -0.255472
H	 0.305636	 -1.070211	 -0.165276
H	 0.527397	 -0.195943	 1.322876
C	 3.001144	 -0.485193	 0.119072
H	 1.804373	 0.541073	 -1.335756
H	 2.020437	 1.423114	 0.146921
H	 2.866892	 -1.477297	 -0.298806
H	 3.943543	 -0.095749	 -0.249061
H	 3.085064	 -0.590459	 1.195790

	symmetry c1
}
set optking {
	frozen_dihedral = ("
		1 2 3 4
	")
}

ee,wfn = optimize('scf', return_wfn=True)
oeprop( wfn, 'DIPOLE', 'QUADRUPOLE', 'MULLIKEN_CHARGES')
f=open( 'psi4out.xyz', 'w' )
f.write( "18  " )
f.write( str(ee) + "\n" )
f.write( MOL.save_string_xyz() )
f.close()
--------------------------------------------------------------------------

    Molecular point group: c1
  Charge       = 0
  Multiplicity = 1
  Basis Set: CC-PVTZ
  Basis Set:
  @DF-RHF Final Energy:  -271.28444426005274
    Total Energy =                       -271.2844442600526236
    Molecular point group: c1
  Basis Set: CC-PVTZ
  Basis Set:
  Basis Set: CC-PVTZ
  Basis Set:
  @DF-RHF Final Energy:  -271.27604357760146
    Total Energy =                       -271.2760435776016266
  Basis Set: CC-PVTZ
  Basis Set:
  Basis Set: CC-PVTZ
  Basis Set:
  @DF-RHF Final Energy:  -271.28610117787139
    Total Energy =                       -271.2861011778715579
  Basis Set: CC-PVTZ
  Basis Set:
  Basis Set: CC-PVTZ
  Basis Set:
  @DF-RHF Final Energy:  -271.28626450539491
    Total Energy =                       -271.2862645053949677
  Basis Set: CC-PVTZ
  Basis Set:
  Basis Set: CC-PVTZ
  Basis Set:
  @DF-RHF Final Energy:  -271.28626794299544
    Total Energy =                       -271.2862679429955506
  Basis Set: CC-PVTZ
  Basis Set:
  Charge       = 0
  Multiplicity = 1
  Basis Set: CC-PVTZ
  Basis Set:

    Orbital Energies (a.u.)
    -----------------------

    Doubly Occupied:

       1A    -20.545930     2A    -11.265527     3A    -11.217879
       4A    -11.214774     5A    -11.211797     6A    -11.207071
       7A     -1.364003     8A     -1.081562     9A     -1.012701
      10A     -0.918892    11A     -0.832167    12A     -0.794955
      13A     -0.675977    14A     -0.654484    15A     -0.623373
      16A     -0.611759    17A     -0.576080    18A     -0.554555
      19A     -0.541053    20A     -0.495103    21A     -0.486248
      22A     -0.482566    23A     -0.465688    24A     -0.460307
      25A     -0.426392

  @DF-RHF Final Energy:  -271.28626849738117

   => Energetics <=

    Nuclear Repulsion Energy =            249.0933688674398923
    One-Electron Energy =                -861.3175896933637432
    Two-Electron Energy =                 340.9379523285424511
    DFT Exchange-Correlation Energy =       0.0000000000000000
    Empirical Dispersion Energy =           0.0000000000000000
    PCM Polarization Energy =               0.0000000000000000
    EFP Energy =                            0.0000000000000000
    Total Energy =                       -271.2862684973813430
    Molecular point group: c1
  Basis Set: CC-PVTZ
  Basis Set:

  -Total Gradient:
     Atom            X                  Y                   Z
    ------   -----------------  -----------------  -----------------
       1        0.001275150885    -0.000340491874     0.000146498265
       2       -0.001752548116     0.000537257201    -0.000481162512
       3        0.000912673615    -0.000396804362     0.001032498047
       4       -0.000451473425     0.000226493516    -0.000713710841
       5       -0.000006718877    -0.000029676925    -0.000011769893
       6        0.000003103505    -0.000006890514    -0.000001494899
       7        0.000013913868    -0.000000377803     0.000013616130
       8       -0.000000064703     0.000000214145     0.000008546222
       9        0.000004766654    -0.000007192811     0.000005857740
      10        0.000005317541     0.000011092820     0.000007714261
      11       -0.000003391569     0.000013468371    -0.000002480975
      12       -0.000001419434     0.000004565702     0.000000064198
      13        0.000000151429    -0.000009253778    -0.000006397475
      14       -0.000001243979    -0.000000369675     0.000004695188
      15       -0.000000363458    -0.000000418797     0.000004534849
      16        0.000001711634    -0.000003238010     0.000001481374
      17        0.000003511257    -0.000002715982    -0.000003511643
      18       -0.000003076828     0.000004338778    -0.000004978036

  **** Optimization is complete! (in 6 steps) ****
    Final optimized geometry and variables:
    Molecular point group: c1

    Geometry (in Angstrom), charge = 0, multiplicity = 1:

    H           -2.302439551793    -1.150155907682    -0.851039200926
    O           -2.361672067377    -1.004421390252     0.075842622595
    C           -2.018935846471     0.323426340035     0.372819115659
    C           -0.708730707725     0.767536923487    -0.259422919797
    H           -2.816809363801     0.993194128574     0.061395849605
    H           -1.953140223488     0.379753560647     1.451972610052
    C            0.511879975362    -0.009214539916     0.226318308337
    H           -0.792762465629     0.681844324486    -1.342171191592
    H           -0.576141989736     1.826117310880    -0.051176871848
    C            1.811027030699     0.432355939835    -0.441499674860
    H            0.357853820087    -1.069068427019     0.053635076489
    H            0.602522542702     0.112014660295     1.303172414717
    C            3.029562670560    -0.340031539869     0.052624236460
    H            1.720951944613     0.310853851148    -1.517796593206
    H            1.963437104205     1.494342220573    -0.267884950245
    H            2.921742133713    -1.402787120214    -0.136698759925
    H            3.934219346420    -0.005780217126    -0.442237558699
    H            3.168935128025    -0.208919575138     1.120502538827

  Mulliken Charges: (a.u.)
   Center  Symbol    Alpha    Beta     Spin     Total
       1     H     0.39481  0.39481  0.00000  0.21039
       2     O     4.20444  4.20444  0.00000 -0.40888
       3     C     2.97119  2.97119  0.00000  0.05761
       4     C     3.10764  3.10764  0.00000 -0.21528
       5     H     0.46206  0.46206  0.00000  0.07587
       6     H     0.46041  0.46041  0.00000  0.07918
       7     C     3.08369  3.08369  0.00000 -0.16738
       8     H     0.45845  0.45845  0.00000  0.08310
       9     H     0.45159  0.45159  0.00000  0.09681
      10     C     3.08373  3.08373  0.00000 -0.16746
      11     H     0.44844  0.44844  0.00000  0.10311
      12     H     0.45490  0.45490  0.00000  0.09019
      13     C     3.14951  3.14951  0.00000 -0.29901
      14     H     0.45546  0.45546  0.00000  0.08909
      15     H     0.45560  0.45560  0.00000  0.08880
      16     H     0.45463  0.45463  0.00000  0.09073
      17     H     0.44870  0.44870  0.00000  0.10261
      18     H     0.45474  0.45474  0.00000  0.09053

   Total alpha = 25.00000, Total beta = 25.00000, Total charge = -0.00000

*** Psi4 exiting successfully. Buy a developer a beer!
