  ==> Input File <==

--------------------------------------------------------------------------
set {
	reference rhf
	basis 6-31G*
}

set_num_threads( 1 )
memory 2 gb

molecule MOL {
0 1

O	 -2.636300	 -1.007097	 0.908471
C	 -2.005762	 -1.847989	 0.343001
C	 -0.817749	 -1.476880	 -0.527176
C	 -2.333144	 -3.317451	 0.487493
C	 0.422704	 -1.187241	 0.333363
H	 -1.085367	 -0.587433	 -1.087149
H	 -0.600623	 -2.270574	 -1.236353
C	 1.631333	 -0.777471	 -0.511575
H	 0.168645	 -0.405761	 1.040560
H	 0.677174	 -2.069863	 0.918146
C	 2.915987	 -0.544314	 0.291766
H	 1.388322	 0.124600	 -1.070090
H	 1.821020	 -1.552425	 -1.251382
C	 3.373361	 0.914346	 0.347591
H	 3.708709	 -1.142521	 -0.150311
H	 2.780642	 -0.921148	 1.303579
H	 3.506512	 1.320010	 -0.651625
H	 4.322697	 0.999599	 0.867103
H	 2.660624	 1.545032	 0.868198
H	 -2.675413	 -3.710909	 -0.466082
H	 -3.106860	 -3.453116	 1.230287
H	 -1.448961	 -3.882530	 0.768048

	symmetry c1
}
set optking {
	frozen_dihedral = ("
		6 3 2 1,
		6 3 5 8,
		3 5 8 12
	")
}

ee = energy('scf')
oeprop('DIPOLE', 'QUADRUPOLE', 'MULLIKEN_CHARGES')
f=open( 'psi4out.xyz', 'w' )
f.write( "22  " )
f.write( str(ee) + "\n" )
f.write( MOL.save_string_xyz() )
f.close()
--------------------------------------------------------------------------

    Molecular point group: c1

    Geometry (in Angstrom), charge = 0, multiplicity = 1:

       Center              X                  Y                   Z               Mass
    ------------   -----------------  -----------------  -----------------  -----------------
           O         -2.708911570843     0.141716283016     0.691162457178    15.994914619560
           C         -2.078373570843    -0.699175716984     0.125692457178    12.000000000000
           C         -0.890360570843    -0.328066716984    -0.744484542822    12.000000000000
           C         -2.405755570843    -2.168637716984     0.270184457178    12.000000000000
           C          0.350092429157    -0.038427716984     0.116054457178    12.000000000000
           H         -1.157978570843     0.561380283016    -1.304457542822     1.007825032070
           H         -0.673234570843    -1.121760716984    -1.453661542822     1.007825032070
           C          1.558721429157     0.371342283016    -0.728883542822    12.000000000000
           H          0.096033429157     0.743052283016     0.823251457178     1.007825032070
           H          0.604562429157    -0.921049716984     0.700837457178     1.007825032070
           C          2.843375429157     0.604499283016     0.074457457178    12.000000000000
           H          1.315710429157     1.273413283016    -1.287398542822     1.007825032070
           H          1.748408429157    -0.403611716984    -1.468690542822     1.007825032070
           C          3.300749429157     2.063159283016     0.130282457178    12.000000000000
           H          3.636097429157     0.006292283016    -0.367619542822     1.007825032070
           H          2.708030429157     0.227665283016     1.086270457178     1.007825032070
           H          3.433900429157     2.468823283016    -0.868933542822     1.007825032070
           H          4.250085429157     2.148412283016     0.649794457178     1.007825032070
           H          2.588012429157     2.693845283016     0.650889457178     1.007825032070
           H         -2.748024570843    -2.562095716984    -0.683390542822     1.007825032070
           H         -3.179471570843    -2.304302716984     1.012978457178     1.007825032070
           H         -1.521572570843    -2.733716716984     0.550739457178     1.007825032070

  Charge       = 0
  Multiplicity = 1
  Basis Set: 6-31G*
  Basis Set:

    Orbital Energies (a.u.)
    -----------------------

    Doubly Occupied:

       1A    -20.547271     2A    -11.324468     3A    -11.230206
       4A    -11.228880     5A    -11.228205     6A    -11.220968
       7A    -11.219246     8A    -11.211930     9A     -1.393038
      10A     -1.094984    11A     -1.044594    12A     -1.000423
      13A     -0.938361    14A     -0.850473    15A     -0.794531
      16A     -0.732494    17A     -0.662085    18A     -0.644397
      19A     -0.627424    20A     -0.614324    21A     -0.599095
      22A     -0.581494    23A     -0.561169    24A     -0.550188
      25A     -0.531360    26A     -0.510056    27A     -0.505233
      28A     -0.487276    29A     -0.473178    30A     -0.461648
      31A     -0.457326    32A     -0.396094

  @DF-RHF Final Energy:  -348.09398715581784

   => Energetics <=

    Nuclear Repulsion Energy =            369.9151075449614723
    One-Electron Energy =               -1204.5735442652198799
    Two-Electron Energy =                 486.5644495644396557
    DFT Exchange-Correlation Energy =       0.0000000000000000
    Empirical Dispersion Energy =           0.0000000000000000
    PCM Polarization Energy =               0.0000000000000000
    EFP Energy =                            0.0000000000000000
    Total Energy =                       -348.0939871558186951

  Mulliken Charges: (a.u.)
   Center  Symbol    Alpha    Beta     Spin     Total
       1     O     4.26246  4.26246  0.00000 -0.52491
       2     C     2.73720  2.73720  0.00000  0.52560
       3     C     3.20070  3.20070  0.00000 -0.40139
       4     C     3.28955  3.28955  0.00000 -0.57910
       5     C     3.16367  3.16367  0.00000 -0.32735
       6     H     0.40108  0.40108  0.00000  0.19783
       7     H     0.41692  0.41692  0.00000  0.16617
       8     C     3.15452  3.15452  0.00000 -0.30904
       9     H     0.40523  0.40523  0.00000  0.18953
      10     H     0.42049  0.42049  0.00000  0.15902
      11     C     3.15593  3.15593  0.00000 -0.31185
      12     H     0.41777  0.41777  0.00000  0.16446
      13     H     0.42122  0.42122  0.00000  0.15756
      14     C     3.24041  3.24041  0.00000 -0.48082
      15     H     0.41977  0.41977  0.00000  0.16046
      16     H     0.41949  0.41949  0.00000  0.16103
      17     H     0.42112  0.42112  0.00000  0.15777
      18     H     0.41934  0.41934  0.00000  0.16133
      19     H     0.41942  0.41942  0.00000  0.16117
      20     H     0.40692  0.40692  0.00000  0.18617
      21     H     0.39708  0.39708  0.00000  0.20584
      22     H     0.40973  0.40973  0.00000  0.18054

   Total alpha = 32.00000, Total beta = 32.00000, Total charge =  0.00000
