  ==> Input File <==

--------------------------------------------------------------------------
set {
	reference rhf
	basis 6-31G*
}

set_num_threads( 4 )
memory 2 gb

molecule MOL {
0 1

H	 1.385568	 -1.492097	 0.452183
O	 1.586534	 -0.678666	 -0.000226
C	 0.489431	 0.077273	 0.000046
C	 -0.764129	 -0.759190	 0.000191
O	 0.537743	 1.263962	 0.000257
C	 -2.038368	 0.075731	 -0.000248
H	 -0.717284	 -1.412404	 -0.866059
H	 -0.717458	 -1.411724	 0.866967
H	 -2.086483	 0.712501	 -0.875098
H	 -2.908485	 -0.571682	 -0.000042
H	 -2.086576	 0.713280	 0.874068

	symmetry c1
}
set optking {
	frozen_dihedral = ("
		1 2 3 5
	")
}

ee = optimize('scf')
oeprop('DIPOLE', 'QUADRUPOLE', 'MULLIKEN_CHARGES')
f=open( 'psi4out.xyz', 'w' )
f.write( "11  " )
f.write( str(ee) + "\n" )
f.write( MOL.save_string_xyz() )
f.close()
--------------------------------------------------------------------------

    Molecular point group: c1
  Charge       = 0
  Multiplicity = 1
  Basis Set: 6-31G*
  Basis Set:
  @DF-RHF Final Energy:  -266.83052804256829
    Total Energy =                       -266.8305280425681190
    Molecular point group: c1
  Basis Set: 6-31G*
  Basis Set:
  Basis Set: 6-31G*
  Basis Set:
  @DF-RHF Final Energy:  -266.83192434867186
    Total Energy =                       -266.8319243486718051
  Basis Set: 6-31G*
  Basis Set:
  Basis Set: 6-31G*
  Basis Set:
  @DF-RHF Final Energy:  -266.83209229755067
    Total Energy =                       -266.8320922975506164
  Basis Set: 6-31G*
  Basis Set:
  Basis Set: 6-31G*
  Basis Set:
  @DF-RHF Final Energy:  -266.83204993425903
    Total Energy =                       -266.8320499342588619
  Basis Set: 6-31G*
  Basis Set:
  Basis Set: 6-31G*
  Basis Set:
  @DF-RHF Final Energy:  -266.83209898091877
    Total Energy =                       -266.8320989809186585
  Basis Set: 6-31G*
  Basis Set:
  Charge       = 0
  Multiplicity = 1
  Basis Set: 6-31G*
  Basis Set:

    Orbital Energies (a.u.)
    -----------------------

    Doubly Occupied:

       1A    -20.609593     2A    -20.552269     3A    -11.381725
       4A    -11.254992     5A    -11.225997     6A     -1.467193
       7A     -1.371415     8A     -1.068727     9A     -0.908669
      10A     -0.826135    11A     -0.718125    12A     -0.668197
      13A     -0.657363    14A     -0.614577    15A     -0.587338
      16A     -0.533657    17A     -0.525773    18A     -0.512506
      19A     -0.479437    20A     -0.443242

  @DF-RHF Final Energy:  -266.83209920709032

   => Energetics <=

    Nuclear Repulsion Energy =            179.5121126691830966
    One-Electron Energy =                -719.8745656079213404
    Two-Electron Energy =                 273.5303537316477218
    DFT Exchange-Correlation Energy =       0.0000000000000000
    Empirical Dispersion Energy =           0.0000000000000000
    PCM Polarization Energy =               0.0000000000000000
    EFP Energy =                            0.0000000000000000
    Total Energy =                       -266.8320992070904936
    Molecular point group: c1
  Basis Set: 6-31G*
  Basis Set:

  -Total Gradient:
     Atom            X                  Y                   Z
    ------   -----------------  -----------------  -----------------
       1        0.001645809361     0.002611448549     0.005359234303
       2       -0.002122024002    -0.003318162010    -0.004371975378
       3        0.000522673079     0.000630721962    -0.006359402267
       4        0.000010264826     0.000007418348    -0.000020553628
       5       -0.000050365738     0.000067429881     0.005368427111
       6       -0.000006011207    -0.000001829352     0.000010382404
       7       -0.000000559081     0.000000884704     0.000010525387
       8        0.000001240375     0.000003800297     0.000011482147
       9        0.000001555826    -0.000001500382    -0.000002334282
      10       -0.000005196030     0.000002007505    -0.000002875942
      11        0.000002612585    -0.000002219504    -0.000002909856

  **** Optimization is complete! (in 6 steps) ****
    Final optimized geometry and variables:
    Molecular point group: c1

    Geometry (in Angstrom), charge = 0, multiplicity = 1:

    H            1.528404789941    -1.468085774986     0.441573752265
    O            1.636599057459    -0.636160596028    -0.000195138163
    C            0.500464587154     0.080556092223    -0.005099468502
    C           -0.771281237757    -0.743006555900    -0.007148159267
    O            0.535845801373     1.260597383685    -0.008206468589
    C           -2.035318700625     0.107326310768    -0.009839135729
    H           -0.736520263551    -1.396212277012    -0.875247011276
    H           -0.753539404121    -1.397434599538     0.863208088167
    H           -2.067971126549     0.745427092018    -0.883826891108
    H           -2.914027384172    -0.528246162565    -0.014404563731
    H           -2.075864477108     0.744054946218     0.865019530881

  Mulliken Charges: (a.u.)
   Center  Symbol    Alpha    Beta     Spin     Total
       1     H     0.26930  0.26930  0.00000  0.46139
       2     O     4.35434  4.35434  0.00000 -0.70869
       3     C     2.61442  2.61442  0.00000  0.77115
       4     C     3.22803  3.22803  0.00000 -0.45606
       5     O     4.25780  4.25780  0.00000 -0.51559
       6     C     3.23710  3.23710  0.00000 -0.47420
       7     H     0.39868  0.39868  0.00000  0.20264
       8     H     0.41052  0.41052  0.00000  0.17897
       9     H     0.40562  0.40562  0.00000  0.18877
      10     H     0.41695  0.41695  0.00000  0.16610
      11     H     0.40724  0.40724  0.00000  0.18553

   Total alpha = 20.00000, Total beta = 20.00000, Total charge =  0.00000
