                              Psi4 1.0.54 Driver

  ==> Input File <==

--------------------------------------------------------------------------
set {
	reference rhf
	basis cc-pvtz
}

set_num_threads( 4 )
memory 2 gb

molecule MOL {
0 1

H	 -3.162190	 0.493205	 -0.000107
C	 -2.363908	 -0.234727	 0.000005
O	 -1.158738	 0.454634	 -0.000087
H	 -2.464314	 -0.863616	 -0.882153
H	 -2.464327	 -0.863359	 0.882345
C	 -0.028611	 -0.359694	 0.000037
C	 1.212847	 0.509314	 -0.000053
H	 -0.034155	 -1.007047	 -0.877198
H	 -0.034195	 -1.006836	 0.877430
C	 0.883112	 1.995795	 -0.077514
H	 1.781629	 0.299195	 0.898981
H	 1.836333	 0.220818	 -0.839093
H	 0.279149	 2.311331	 0.766732
H	 1.786946	 2.592538	 -0.075827
H	 0.334488	 2.232480	 -0.983086

	symmetry c1
}
set optking {
	frozen_dihedral = ("
		11 7 6 8
	")
}

ee,wfn = optimize('scf', return_wfn=True)
oeprop( wfn, 'DIPOLE', 'QUADRUPOLE', 'MULLIKEN_CHARGES')
f=open( 'psi4out.xyz', 'w' )
f.write( "15  " )
f.write( str(ee) + "\n" )
f.write( MOL.save_string_xyz() )
f.close()
--------------------------------------------------------------------------

    Molecular point group: c1
  Charge       = 0
  Multiplicity = 1
  Basis Set: CC-PVTZ
  Basis Set:
  @DF-RHF Final Energy:  -232.21790239942291
    Total Energy =                       -232.2179023994229965
    Molecular point group: c1
  Basis Set: CC-PVTZ
  Basis Set:
  Basis Set: CC-PVTZ
  Basis Set:
  @DF-RHF Final Energy:  -232.21842608630106
    Total Energy =                       -232.2184260863010650
  Basis Set: CC-PVTZ
  Basis Set:
  Basis Set: CC-PVTZ
  Basis Set:
  @DF-RHF Final Energy:  -232.21977247782240
    Total Energy =                       -232.2197724778224028
  Basis Set: CC-PVTZ
  Basis Set:
  Basis Set: CC-PVTZ
  Basis Set:
  @DF-RHF Final Energy:  -232.21982942141642
    Total Energy =                       -232.2198294214165344
  Basis Set: CC-PVTZ
  Basis Set:
  Charge       = 0
  Multiplicity = 1
  Basis Set: CC-PVTZ
  Basis Set:

    Orbital Energies (a.u.)
    -----------------------

    Doubly Occupied:

       1A    -20.547983     2A    -11.265468     3A    -11.262380
       4A    -11.214137     5A    -11.199396     6A     -1.382612
       7A     -1.048878     8A     -0.949718     9A     -0.890644
      10A     -0.793623    11A     -0.674953    12A     -0.657759
      13A     -0.635817    14A     -0.603072    15A     -0.553203
      16A     -0.540551    17A     -0.506483    18A     -0.479894
      19A     -0.476362    20A     -0.462292    21A     -0.410296

  @DF-RHF Final Energy:  -232.21983192700830

   => Energetics <=

    Nuclear Repulsion Energy =            193.4318970044507466
    One-Electron Energy =                -698.1924185453617611
    Two-Electron Energy =                 272.5406896139024866
    DFT Exchange-Correlation Energy =       0.0000000000000000
    Empirical Dispersion Energy =           0.0000000000000000
    PCM Polarization Energy =               0.0000000000000000
    EFP Energy =                            0.0000000000000000
    Total Energy =                       -232.2198319270084994
    Molecular point group: c1
  Basis Set: CC-PVTZ
  Basis Set:

  -Total Gradient:
     Atom            X                  Y                   Z
    ------   -----------------  -----------------  -----------------
       1        0.000006289139     0.000002715653     0.000000004018
       2       -0.000016312008    -0.000008483687    -0.000009675562
       3        0.000008928231     0.000040226369    -0.000020498402
       4       -0.000008116158     0.000001408791    -0.000002455714
       5        0.000000524795     0.000005074542     0.000004886202
       6       -0.000724095214     0.001091289611    -0.001039338167
       7       -0.000809629894     0.001026114799     0.001064062763
       8        0.000771897302    -0.001018641079     0.000759482719
       9        0.000019691942    -0.000029197361    -0.000002560050
      10       -0.000030679295    -0.000050999684     0.000005056066
      11        0.000755696722    -0.001062343140    -0.000749579820
      12        0.000040576372    -0.000014716957    -0.000015517867
      13       -0.000009160843     0.000011839332    -0.000001490205
      14       -0.000006635598     0.000006633791     0.000000468530
      15        0.000001024508    -0.000000920981     0.000007155489

  **** Optimization is complete! (in 5 steps) ****
    Final optimized geometry and variables:
    Molecular point group: c1

    Geometry (in Angstrom), charge = 0, multiplicity = 1:

    H           -2.881416067124    -0.143778850605     0.073336997998
    C           -2.038071469442    -0.818532361537     0.043149959006
    O           -0.880382575392    -0.053618619595     0.037412663798
    H           -2.114371872260    -1.434126941369    -0.850886422842
    H           -2.081073592260    -1.471463645976     0.912574148171
    C            0.295712689073    -0.800673042605    -0.002234903555
    C            1.540419651242     0.107861167915     0.001025385435
    H            0.297377744078    -1.434077858783    -0.887435564030
    H            0.325279382346    -1.470359095588     0.855523900344
    C            1.256478316725     1.605315678725    -0.079688194561
    H            2.125560317199    -0.097692740570     0.890303388400
    H            2.172054045651    -0.171910470859    -0.835188981167
    H            0.669478256629     1.944249221774     0.762913994925
    H            2.191663673446     2.153987014024    -0.085457362711
    H            0.711541014688     1.857237904025    -0.979994187063

  Mulliken Charges: (a.u.)
   Center  Symbol    Alpha    Beta     Spin     Total
       1     H     0.44786  0.44786  0.00000  0.10428
       2     C     3.03326  3.03326  0.00000 -0.06652
       3     O     4.16865  4.16865  0.00000 -0.33730
       4     H     0.47175  0.47175  0.00000  0.05649
       5     H     0.47179  0.47179  0.00000  0.05643
       6     C     2.96446  2.96446  0.00000  0.07108
       7     C     3.09832  3.09832  0.00000 -0.19664
       8     H     0.47274  0.47274  0.00000  0.05451
       9     H     0.47207  0.47207  0.00000  0.05586
      10     C     3.13758  3.13758  0.00000 -0.27516
      11     H     0.45236  0.45236  0.00000  0.09528
      12     H     0.45318  0.45318  0.00000  0.09364
      13     H     0.45040  0.45040  0.00000  0.09920
      14     H     0.45340  0.45340  0.00000  0.09320
      15     H     0.45218  0.45218  0.00000  0.09565

   Total alpha = 21.00000, Total beta = 21.00000, Total charge = -0.00000

*** Psi4 exiting successfully. Buy a developer a beer!
