  ==> Input File <==

--------------------------------------------------------------------------
set {
	reference rhf
	basis 6-31G*
}

set_num_threads( 1 )
memory 2 gb

molecule MOL {
0 1

H	 -0.386705	 2.466144	 0.602075
C	 0.447177	 1.846835	 0.954067
C	 0.692068	 0.589600	 0.160137
O	 1.083900	 2.184410	 1.898925
C	 -0.558097	 -0.297372	 0.091132
H	 1.526632	 0.062398	 0.607398
H	 0.981046	 0.884557	 -0.847991
C	 -1.850991	 0.512573	 -0.019058
H	 -0.476753	 -0.965681	 -0.762987
H	 -0.604799	 -0.930658	 0.975228
C	 -3.096943	 -0.368295	 -0.099594
H	 -1.800724	 1.150330	 -0.898172
H	 -1.931651	 1.177355	 0.838044
H	 -3.060452	 -1.020287	 -0.967456
H	 -3.996858	 0.233488	 -0.175704
H	 -3.191959	 -0.995686	 0.782074

	symmetry c1
}
set optking {
	frozen_dihedral = ("
		9 5 8 12,
		4 2 3 6
	")
}

ee = energy('scf')
oeprop('DIPOLE', 'QUADRUPOLE', 'MULLIKEN_CHARGES')
f=open( 'psi4out.xyz', 'w' )
f.write( "16  " )
f.write( str(ee) + "\n" )
f.write( MOL.save_string_xyz() )
f.close()
--------------------------------------------------------------------------

    Molecular point group: c1

    Geometry (in Angstrom), charge = 0, multiplicity = 1:

       Center              X                  Y                   Z               Mass
    ------------   -----------------  -----------------  -----------------  -----------------
           H          0.172215313750     1.717738403529     0.095911973905     1.007825032070
           C          1.006097313750     1.098429403529     0.447903973905    12.000000000000
           C          1.250988313750    -0.158805596471    -0.346026026095    12.000000000000
           O          1.642820313750     1.436004403529     1.392761973905    15.994914619560
           C          0.000823313750    -1.045777596471    -0.415031026095    12.000000000000
           H          2.085552313750    -0.686007596471     0.101234973905     1.007825032070
           H          1.539966313750     0.136151403529    -1.354154026095     1.007825032070
           C         -1.292070686250    -0.235832596471    -0.525221026095    12.000000000000
           H          0.082167313750    -1.714086596471    -1.269150026095     1.007825032070
           H         -0.045878686250    -1.679063596471     0.469064973905     1.007825032070
           C         -2.538022686250    -1.116700596471    -0.605757026095    12.000000000000
           H         -1.241803686250     0.401924403529    -1.404335026095     1.007825032070
           H         -1.372730686250     0.428949403529     0.331880973905     1.007825032070
           H         -2.501531686250    -1.768692596471    -1.473619026095     1.007825032070
           H         -3.437937686250    -0.514917596471    -0.681867026095     1.007825032070
           H         -2.633038686250    -1.744091596471     0.275910973905     1.007825032070

  Charge       = 0
  Multiplicity = 1
  Basis Set: 6-31G*
  Basis Set:

    Orbital Energies (a.u.)
    -----------------------

    Doubly Occupied:

       1A    -20.560784     2A    -11.323924     3A    -11.235711
       4A    -11.234384     5A    -11.231600     6A    -11.219763
       7A     -1.400867     8A     -1.100404     9A     -1.016131
      10A     -0.903468    11A     -0.840849    12A     -0.769723
      13A     -0.677693    14A     -0.652598    15A     -0.624174
      16A     -0.602470    17A     -0.578348    18A     -0.563110
      19A     -0.530224    20A     -0.511870    21A     -0.496474
      22A     -0.476776    23A     -0.472466    24A     -0.405090

  @DF-RHF Final Energy:  -270.01209809125294

   => Energetics <=

    Nuclear Repulsion Energy =            234.9463933066597860
    One-Electron Energy =                -831.0592648909819218
    Two-Electron Energy =                 326.1007734930693118
    DFT Exchange-Correlation Energy =       0.0000000000000000
    Empirical Dispersion Energy =           0.0000000000000000
    PCM Polarization Energy =               0.0000000000000000
    EFP Energy =                            0.0000000000000000
    Total Energy =                       -270.0120980912528807

  Mulliken Charges: (a.u.)
   Center  Symbol    Alpha    Beta     Spin     Total
       1     H     0.42679  0.42679  0.00000  0.14643
       2     C     2.83568  2.83568  0.00000  0.32863
       3     C     3.20763  3.20763  0.00000 -0.41526
       4     O     4.24016  4.24016  0.00000 -0.48032
       5     C     3.15891  3.15891  0.00000 -0.31781
       6     H     0.39749  0.39749  0.00000  0.20502
       7     H     0.40895  0.40895  0.00000  0.18211
       8     C     3.16695  3.16695  0.00000 -0.33391
       9     H     0.41458  0.41458  0.00000  0.17084
      10     H     0.41239  0.41239  0.00000  0.17523
      11     C     3.23841  3.23841  0.00000 -0.47681
      12     H     0.42026  0.42026  0.00000  0.15948
      13     H     0.41700  0.41700  0.00000  0.16599
      14     H     0.41996  0.41996  0.00000  0.16007
      15     H     0.41625  0.41625  0.00000  0.16750
      16     H     0.41859  0.41859  0.00000  0.16282

   Total alpha = 24.00000, Total beta = 24.00000, Total charge = -0.00000
