                              Psi4 1.0.54 Driver

  ==> Input File <==

--------------------------------------------------------------------------
set {
	reference rhf
	basis cc-pvtz
}

set_num_threads( 4 )
memory 2 gb

molecule MOL {
0 1

H	 -3.034039	 -0.667848	 0.004703
O	 -2.240597	 -1.171748	 0.000934
C	 -1.159675	 -0.364500	 0.000370
C	 0.035604	 -0.728390	 -0.585554
C	 -1.288053	 0.868655	 0.620775
H	 0.137929	 -1.684652	 -1.065295
C	 1.100984	 0.154419	 -0.542649
H	 -2.229994	 1.119940	 1.068591
C	 -0.225369	 1.748710	 0.660556
H	 2.033460	 -0.126359	 -0.994781
C	 0.980353	 1.380171	 0.071996
C	 -0.372118	 3.099454	 1.314467
H	 1.817291	 2.051949	 0.098648
H	 0.495322	 3.335251	 1.918428
H	 -1.246851	 3.137048	 1.949428
H	 -0.470699	 3.877779	 0.565377

	symmetry c1
}
set optking {
	frozen_dihedral = ("
		5 3 2 1
	")
}

ee,wfn = optimize('scf', return_wfn=True)
oeprop( wfn, 'DIPOLE', 'QUADRUPOLE', 'MULLIKEN_CHARGES')
f=open( 'psi4out.xyz', 'w' )
f.write( "16  " )
f.write( str(ee) + "\n" )
f.write( MOL.save_string_xyz() )
f.close()
--------------------------------------------------------------------------

    Molecular point group: c1
  Charge       = 0
  Multiplicity = 1
  Basis Set: CC-PVTZ
  Basis Set:
  @DF-RHF Final Energy:  -344.71774159058373
    Total Energy =                       -344.7177415905841258
    Molecular point group: c1
  Basis Set: CC-PVTZ
  Basis Set:
  Basis Set: CC-PVTZ
  Basis Set:
  @DF-RHF Final Energy:  -344.71936760847655
    Total Energy =                       -344.7193676084767731
  Basis Set: CC-PVTZ
  Basis Set:
  Basis Set: CC-PVTZ
  Basis Set:
  @DF-RHF Final Energy:  -344.71949960536273
    Total Energy =                       -344.7194996053625573
  Basis Set: CC-PVTZ
  Basis Set:
  Basis Set: CC-PVTZ
  Basis Set:
  @DF-RHF Final Energy:  -344.71951514565984
    Total Energy =                       -344.7195151456601252
  Basis Set: CC-PVTZ
  Basis Set:
  @DF-RHF Final Energy:  -344.71952113407616
    Total Energy =                       -344.7195211340759897
  @DF-RHF Final Energy:  -344.71952390656776
    Total Energy =                       -344.7195239065680425
  @DF-RHF Final Energy:  -344.71953014866477
    Total Energy =                       -344.7195301486646031
  @DF-RHF Final Energy:  -344.71951216548990
    Total Energy =                       -344.7195121654900731
  @DF-RHF Final Energy:  -344.71954518104133
    Total Energy =                       -344.7195451810417808
  @DF-RHF Final Energy:  -344.71790580845743
    Total Energy =                       -344.7179058084573171
  @DF-RHF Final Energy:  -344.71956517390123
    Total Energy =                       -344.7195651739014011
  @DF-RHF Final Energy:  -344.71958243645520
    Total Energy =                       -344.7195824364549139
  Basis Set: CC-PVTZ
  Basis Set:
  @DF-RHF Final Energy:  -344.71958458484198
    Total Energy =                       -344.7195845848420959
  Basis Set: CC-PVTZ
  Basis Set:
  Basis Set: CC-PVTZ
  Basis Set:
  @DF-RHF Final Energy:  -344.71959163598859
    Total Energy =                       -344.7195916359884222
  Basis Set: CC-PVTZ
  Basis Set:
  Basis Set: CC-PVTZ
  Basis Set:
  @DF-RHF Final Energy:  -344.71959476363395
    Total Energy =                       -344.7195947636336086
  Basis Set: CC-PVTZ
  Basis Set:
  Charge       = 0
  Multiplicity = 1
  Basis Set: CC-PVTZ
  Basis Set:

    Orbital Energies (a.u.)
    -----------------------

    Doubly Occupied:

       1A    -20.579995     2A    -11.293537     3A    -11.241922
       4A    -11.230856     5A    -11.221739     6A    -11.219134
       7A    -11.215620     8A    -11.214401     9A     -1.409774
      10A     -1.154576    11A     -1.047558    12A     -1.006809
      13A     -0.940581    14A     -0.843183    15A     -0.803105
      16A     -0.731353    17A     -0.683188    18A     -0.652167
      19A     -0.610411    20A     -0.596492    21A     -0.579375
      22A     -0.569886    23A     -0.565329    24A     -0.533728
      25A     -0.506572    26A     -0.484891    27A     -0.471821
      28A     -0.333496    29A     -0.313196

  @DF-RHF Final Energy:  -344.71959536710227

   => Energetics <=

    Nuclear Repulsion Energy =            346.2956536452143723
    One-Electron Energy =               -1153.9211057774971323
    Two-Electron Energy =                 462.9058567651808289
    DFT Exchange-Correlation Energy =       0.0000000000000000
    Empirical Dispersion Energy =           0.0000000000000000
    PCM Polarization Energy =               0.0000000000000000
    EFP Energy =                            0.0000000000000000
    Total Energy =                       -344.7195953671019879
    Molecular point group: c1
  Basis Set: CC-PVTZ
  Basis Set:

  -Total Gradient:
     Atom            X                  Y                   Z
    ------   -----------------  -----------------  -----------------
       1        0.000067232861     0.000090616339    -0.002392236079
       2        0.000359778072    -0.000644484932     0.004178524103
       3       -0.001410228394     0.001643609521    -0.004027040590
       4        0.000582875303    -0.000029910619     0.000330045501
       5        0.000478320669    -0.001081710786     0.001917165927
       6       -0.000066212891    -0.000051688334     0.000012402965
       7       -0.000212673477    -0.000292210979    -0.000187171261
       8        0.000053511122     0.000007653258    -0.000002147381
       9        0.000373296965     0.000092474914    -0.000072125816
      10       -0.000010848461     0.000004766428     0.000015754122
      11       -0.000185306015     0.000209524623     0.000193766029
      12        0.000061922900    -0.000172478583    -0.000080154748
      13       -0.000019225892     0.000017417796     0.000032075079
      14        0.000232305412     0.000081124997     0.000028117802
      15       -0.000141390088    -0.000036007271     0.000236217766
      16       -0.000163358088     0.000161303629    -0.000183193419

  **** Optimization is complete! (in 16 steps) ****
    Final optimized geometry and variables:
    Molecular point group: c1

    Geometry (in Angstrom), charge = 0, multiplicity = 1:

    H           -2.591336020458    -1.339815365347    -0.320871333907
    O           -1.771889006927    -1.800381273748    -0.306345585044
    C           -0.733535067669    -0.934694361437    -0.240687657663
    C            0.481099024897    -1.343466518541    -0.766224131490
    C           -0.845651279022     0.291758222241     0.381932156382
    H            0.553415368008    -2.304877469651    -1.234789980992
    C            1.565427351114    -0.501633530044    -0.670565689491
    H           -1.789058564047     0.582918916642     0.809079195150
    C            0.245926654488     1.146984500492     0.467144048522
    H            2.510292275528    -0.811461315719    -1.075442507459
    C            1.455379182420     0.738730381235    -0.062605122756
    C            0.096012795241     2.494988648811     1.126284243732
    H            2.312774743627     1.381072777289    -0.000114497106
    H            1.059079145454     2.959694864994     1.289817222875
    H           -0.403133799614     2.407734370126     2.084385896162
    H           -0.495771489551     3.162424735127     0.508449729317

  Mulliken Charges: (a.u.)
   Center  Symbol    Alpha    Beta     Spin     Total
       1     H     0.38616  0.38616  0.00000  0.22768
       2     O     4.17941  4.17941  0.00000 -0.35882
       3     C     2.84631  2.84631  0.00000  0.30738
       4     C     3.12351  3.12351  0.00000 -0.24701
       5     C     3.15037  3.15037  0.00000 -0.30074
       6     H     0.41872  0.41872  0.00000  0.16256
       7     C     3.04923  3.04923  0.00000 -0.09847
       8     H     0.43335  0.43335  0.00000  0.13330
       9     C     2.94578  2.94578  0.00000  0.10844
      10     H     0.42310  0.42310  0.00000  0.15381
      11     C     3.12309  3.12309  0.00000 -0.24619
      12     C     3.14828  3.14828  0.00000 -0.29655
      13     H     0.42672  0.42672  0.00000  0.14655
      14     H     0.44972  0.44972  0.00000  0.10056
      15     H     0.44865  0.44865  0.00000  0.10270
      16     H     0.44760  0.44760  0.00000  0.10480

   Total alpha = 29.00000, Total beta = 29.00000, Total charge = -0.00000

*** Psi4 exiting successfully. Buy a developer a beer!
