                              Psi4 1.0.54 Driver

  ==> Input File <==

--------------------------------------------------------------------------
set {
	reference rhf
	basis cc-pvtz
}

set_num_threads( 4 )
memory 2 gb

molecule MOL {
0 1

H	 -2.644180	 -0.653737	 1.272255
C	 -2.092774	 -0.380414	 0.391915
O	 -0.808934	 -0.154049	 0.752536
F	 -2.163230	 -1.351640	 -0.507133
F	 -2.627232	 0.691260	 -0.169301
C	 0.085006	 0.250800	 -0.215074
C	 0.496762	 -0.989377	 -1.004818
Cl	 1.513069	 1.013106	 0.509539
H	 -0.342818	 0.958851	 -0.903025
F	 1.338921	 -0.669269	 -1.954198
F	 -0.567830	 -1.510181	 -1.567599
F	 1.045560	 -1.898875	 -0.247267

	symmetry c1
}
set optking {
	frozen_dihedral = ("
		9 6 3 2
	")
}

ee,wfn = optimize('scf', return_wfn=True)
oeprop( wfn, 'DIPOLE', 'QUADRUPOLE', 'MULLIKEN_CHARGES')
f=open( 'psi4out.xyz', 'w' )
f.write( "12  " )
f.write( str(ee) + "\n" )
f.write( MOL.save_string_xyz() )
f.close()
--------------------------------------------------------------------------

    Molecular point group: c1
  Charge       = 0
  Multiplicity = 1
  Basis Set: CC-PVTZ
  Basis Set:
  @DF-RHF Final Energy: -1146.57726534617768
    Total Energy =                      -1146.5772653461770005
    Molecular point group: c1
  Basis Set: CC-PVTZ
  Basis Set:
  Basis Set: CC-PVTZ
  Basis Set:
  @DF-RHF Final Energy: -1146.59979481731443
    Total Energy =                      -1146.5997948173137502
  Basis Set: CC-PVTZ
  Basis Set:
  Basis Set: CC-PVTZ
  Basis Set:
  @DF-RHF Final Energy: -1146.60736778946966
    Total Energy =                      -1146.6073677894698903
  Basis Set: CC-PVTZ
  Basis Set:
  Basis Set: CC-PVTZ
  Basis Set:
  @DF-RHF Final Energy: -1146.61124475371184
    Total Energy =                      -1146.6112447537113894
  Basis Set: CC-PVTZ
  Basis Set:
  @DF-RHF Final Energy: -1146.61292173411675
    Total Energy =                      -1146.6129217341174353
  @DF-RHF Final Energy: -1146.61336822090584
    Total Energy =                      -1146.6133682209056133
  @DF-RHF Final Energy: -1146.61348523410788
    Total Energy =                      -1146.6134852341069745
  @DF-RHF Final Energy: -1146.61353492946819
    Total Energy =                      -1146.6135349294679600
  Basis Set: CC-PVTZ
  Basis Set:
  @DF-RHF Final Energy: -1146.61355220455198
    Total Energy =                      -1146.6135522045512971
  Basis Set: CC-PVTZ
  Basis Set:
  Basis Set: CC-PVTZ
  Basis Set:
  @DF-RHF Final Energy: -1146.61355862755659
    Total Energy =                      -1146.6135586275559035
  Basis Set: CC-PVTZ
  Basis Set:
  Basis Set: CC-PVTZ
  Basis Set:
  @DF-RHF Final Energy: -1146.61356068842474
    Total Energy =                      -1146.6135606884251956
  Basis Set: CC-PVTZ
  Basis Set:
  Charge       = 0
  Multiplicity = 1
  Basis Set: CC-PVTZ
  Basis Set:

    Orbital Energies (a.u.)
    -----------------------

    Doubly Occupied:

       1A   -104.858824     2A    -26.353660     3A    -26.353369
       4A    -26.352726     5A    -26.346976     6A    -26.336980
       7A    -20.637439     8A    -11.519120     9A    -11.483549
      10A    -11.401759    11A    -10.584292    12A     -8.051110
      13A     -8.049089    14A     -8.049015    15A     -1.767519
      16A     -1.723295    17A     -1.662191    18A     -1.660825
      19A     -1.644633    20A     -1.480850    21A     -1.180977
      22A     -1.045389    23A     -0.995211    24A     -0.923395
      25A     -0.859047    26A     -0.855159    27A     -0.850103
      28A     -0.839563    29A     -0.822983    30A     -0.792852
      31A     -0.732490    32A     -0.730508    33A     -0.713703
      34A     -0.700283    35A     -0.682521    36A     -0.680237
      37A     -0.666133    38A     -0.662913    39A     -0.649578
      40A     -0.643936    41A     -0.593740    42A     -0.564693
      43A     -0.529395    44A     -0.481109    45A     -0.470154

  @DF-RHF Final Energy: -1146.61356114030878

   => Energetics <=

    Nuclear Repulsion Energy =            744.8662509294533720
    One-Electron Energy =               -3072.9930465772240495
    Two-Electron Energy =                1181.5132345074605382
    DFT Exchange-Correlation Energy =       0.0000000000000000
    Empirical Dispersion Energy =           0.0000000000000000
    PCM Polarization Energy =               0.0000000000000000
    EFP Energy =                            0.0000000000000000
    Total Energy =                      -1146.6135611403099119
    Molecular point group: c1
  Basis Set: CC-PVTZ
  Basis Set:

  -Total Gradient:
     Atom            X                  Y                   Z
    ------   -----------------  -----------------  -----------------
       1        0.000003173199    -0.000001550623    -0.000004197240
       2        0.000281006765    -0.002543039920    -0.000674788186
       3       -0.000096854821     0.004382105401     0.001582650305
       4        0.000003863110     0.000037239972     0.000017128598
       5        0.000001678650     0.000016644134    -0.000018503152
       6       -0.001335089199    -0.003913965468    -0.002671255125
       7       -0.000114781984     0.000017611718     0.000015368668
       8       -0.000017339556    -0.000001452818    -0.000016251313
       9        0.001185216309     0.002018848370     0.001809482518
      10        0.000069190133     0.000003992344    -0.000031055969
      11        0.000017733607    -0.000022611843     0.000009487826
      12        0.000002203873     0.000006178774    -0.000018066902

  **** Optimization is complete! (in 12 steps) ****
    Final optimized geometry and variables:
    Molecular point group: c1

    Geometry (in Angstrom), charge = 0, multiplicity = 1:

    H           -2.411439019630     0.249993631916     1.823125262139
    C           -1.916943181481     0.143645515209     0.874727666026
    O           -0.581663255495     0.235672795102     1.094511876140
    F           -2.242124593181    -1.017259274029     0.340397081739
    F           -2.330742009815     1.087891402542     0.041732488948
    C            0.312222798919     0.599726595901     0.102799598733
    C            0.732469810334    -0.576262053205    -0.783685787779
    CL           1.736164905058     1.252684466642     0.926236917208
    H           -0.072292849990     1.388028685182    -0.519190437454
    F            1.686058225650    -0.207941068704    -1.601976614037
    F           -0.285635083403    -0.964353129354    -1.514381832584
    F            1.149227813804    -1.594915363408    -0.083708061422

  Mulliken Charges: (a.u.)
   Center  Symbol    Alpha    Beta     Spin     Total
       1     H     0.45119  0.45119  0.00000  0.09763
       2     C     2.74152  2.74152  0.00000  0.51696
       3     O     4.15835  4.15835  0.00000 -0.31671
       4     F     4.61074  4.61074  0.00000 -0.22148
       5     F     4.62052  4.62052  0.00000 -0.24104
       6     C     2.93356  2.93356  0.00000  0.13288
       7     C     2.67952  2.67952  0.00000  0.64096
       8    CL     8.57182  8.57182  0.00000 -0.14365
       9     H     0.42589  0.42589  0.00000  0.14821
      10     F     4.60273  4.60273  0.00000 -0.20546
      11     F     4.60379  4.60379  0.00000 -0.20757
      12     F     4.60036  4.60036  0.00000 -0.20072

   Total alpha = 45.00000, Total beta = 45.00000, Total charge = -0.00000

*** Psi4 exiting successfully. Buy a developer a beer!
