  ==> Input File <==

--------------------------------------------------------------------------
set {
	reference rhf
	basis 6-31G*
}

set_num_threads( 4 )
memory 2 gb

molecule MOL {
0 1

H	 2.866480	 -0.465706	 0.876907
C	 2.405773	 -0.024801	 0.000000
N	 0.988830	 -0.304158	 0.000000
H	 2.866480	 -0.465706	 -0.876907
H	 2.629928	 1.045948	 0.000000
C	 0.612754	 -1.257244	 -1.027698
C	 0.187194	 0.901265	 -0.101515
H	 0.838677	 -0.878877	 -2.029844
H	 1.177602	 -2.173250	 -0.885836
C	 -0.874075	 -1.557060	 -0.930553
H	 0.440428	 1.565815	 0.718541
H	 0.382106	 1.436920	 -1.036170
C	 -1.288350	 0.544207	 -0.028931
H	 -1.189771	 -2.197034	 -1.744056
H	 -1.083628	 -2.062598	 0.010451
O	 -1.628851	 -0.381547	 -1.022405
H	 -1.902859	 1.419862	 -0.192101
H	 -1.517394	 0.137531	 0.954493

	symmetry c1
}
set optking {
	frozen_dihedral = ("
		6 3 2 5
	")
}

ee = optimize('scf')
oeprop('DIPOLE', 'QUADRUPOLE', 'MULLIKEN_CHARGES')
f=open( 'psi4out.xyz', 'w' )
f.write( "18  " )
f.write( str(ee) + "\n" )
f.write( MOL.save_string_xyz() )
f.close()
--------------------------------------------------------------------------

    Molecular point group: c1
  Charge       = 0
  Multiplicity = 1
  Basis Set: 6-31G*
  Basis Set:
  @DF-RHF Final Energy:  -325.02170551234832
    Total Energy =                       -325.0217055123480350
    Molecular point group: c1
  Basis Set: 6-31G*
  Basis Set:
  Basis Set: 6-31G*
  Basis Set:
  @DF-RHF Final Energy:  -325.02235186466993
    Total Energy =                       -325.0223518646699858
  Basis Set: 6-31G*
  Basis Set:
  Basis Set: 6-31G*
  Basis Set:
  @DF-RHF Final Energy:  -325.02248504593831
    Total Energy =                       -325.0224850459385948
  Basis Set: 6-31G*
  Basis Set:
  Charge       = 0
  Multiplicity = 1
  Basis Set: 6-31G*
  Basis Set:

    Orbital Energies (a.u.)
    -----------------------

    Doubly Occupied:

       1A    -20.553177     2A    -15.546122     3A    -11.265222
       4A    -11.265202     5A    -11.243848     6A    -11.243746
       7A    -11.240799     8A     -1.382567     9A     -1.226949
      10A     -1.037723    11A     -0.980008    12A     -0.881904
      13A     -0.869858    14A     -0.773986    15A     -0.682603
      16A     -0.643316    17A     -0.642621    18A     -0.630202
      19A     -0.626187    20A     -0.569885    21A     -0.558009
      22A     -0.547468    23A     -0.526742    24A     -0.499994
      25A     -0.482919    26A     -0.451460    27A     -0.406854
      28A     -0.347448

  @DF-RHF Final Energy:  -325.02248711306413

   => Energetics <=

    Nuclear Repulsion Energy =            340.9214203608679554
    One-Electron Energy =               -1117.6341762488457334
    Two-Electron Energy =                 451.6902687749137613
    DFT Exchange-Correlation Energy =       0.0000000000000000
    Empirical Dispersion Energy =           0.0000000000000000
    PCM Polarization Energy =               0.0000000000000000
    EFP Energy =                            0.0000000000000000
    Total Energy =                       -325.0224871130640167
    Molecular point group: c1
  Basis Set: 6-31G*
  Basis Set:

  -Total Gradient:
     Atom            X                  Y                   Z
    ------   -----------------  -----------------  -----------------
       1       -0.000020094655    -0.000015620128    -0.000002989662
       2       -0.000025004463     0.000426459413     0.001759426613
       3        0.000366777365    -0.001379397989     0.000784425015
       4        0.000011832344     0.000001226156    -0.000014935341
       5        0.000077719508    -0.000055662361    -0.001653853054
       6       -0.000177932998     0.000926271612    -0.000940275907
       7       -0.000148348622    -0.000013121674    -0.000006847239
       8        0.000022041121     0.000016072163     0.000030340815
       9        0.000003377486     0.000037514610     0.000027859852
      10        0.000003330145    -0.000000372770     0.000065100940
      11       -0.000006958313    -0.000044100368    -0.000014138099
      12       -0.000014051577    -0.000026474260     0.000032491391
      13       -0.000047669272     0.000150210311    -0.000042189056
      14       -0.000015224075    -0.000003450043    -0.000010255907
      15       -0.000016975682     0.000000142097    -0.000002853424
      16        0.000044428681    -0.000022474607     0.000036887798
      17       -0.000090156692     0.000011952581    -0.000000429202
      18        0.000032909703    -0.000009174742    -0.000047765535

  **** Optimization is complete! (in 4 steps) ****
    Final optimized geometry and variables:
    Molecular point group: c1

    Geometry (in Angstrom), charge = 0, multiplicity = 1:

    H            2.814870613396    -0.171656944208     1.362430868594
    C            2.366787822322     0.255644226053     0.470807973441
    N            0.934062820095    -0.000282049462     0.429433414954
    H            2.873319234363    -0.167007231933    -0.393503036734
    H            2.574544845871     1.320413060792     0.461913174226
    C            0.548681097779    -0.958789074683    -0.589302034359
    C            0.125487854331     1.201933101906     0.338273102532
    H            0.762731896927    -0.586704436029    -1.596162700487
    H            1.114851091316    -1.874015206780    -0.448422635126
    C           -0.935534530885    -1.263813782430    -0.473817986223
    H            0.380402101751     1.864514725048     1.158784819254
    H            0.304056469350     1.743533823380    -0.596027094194
    C           -1.347140484198     0.837315394204     0.428716373839
    H           -1.258714466073    -1.907297450899    -1.281821741614
    H           -1.131546377944    -1.767302793556     0.471125598421
    O           -1.695713963378    -0.091386391253    -0.559106908505
    H           -1.968799565545     1.709622154874     0.273463793620
    H           -1.560431692856     0.429444501259     1.415098816850

  Mulliken Charges: (a.u.)
   Center  Symbol    Alpha    Beta     Spin     Total
       1     H     0.41481  0.41481  0.00000  0.17038
       2     C     3.13983  3.13983  0.00000 -0.27965
       3     N     3.79233  3.79233  0.00000 -0.58467
       4     H     0.42332  0.42332  0.00000  0.15337
       5     H     0.42057  0.42057  0.00000  0.15887
       6     C     3.06827  3.06827  0.00000 -0.13655
       7     C     3.06808  3.06808  0.00000 -0.13617
       8     H     0.42848  0.42848  0.00000  0.14304
       9     H     0.41637  0.41637  0.00000  0.16727
      10     C     2.99744  2.99744  0.00000  0.00512
      11     H     0.41643  0.41643  0.00000  0.16715
      12     H     0.42871  0.42871  0.00000  0.14258
      13     C     2.99754  2.99754  0.00000  0.00493
      14     H     0.41366  0.41366  0.00000  0.17268
      15     H     0.42415  0.42415  0.00000  0.15169
      16     O     4.31217  4.31217  0.00000 -0.62435
      17     H     0.41364  0.41364  0.00000  0.17271
      18     H     0.42419  0.42419  0.00000  0.15161

   Total alpha = 28.00000, Total beta = 28.00000, Total charge = -0.00000
