  ==> Input File <==

--------------------------------------------------------------------------
set {
	reference rhf
	basis 6-31G*
}

set_num_threads( 4 )
memory 2 gb

molecule MOL {
0 1

H	 -3.161837	 0.500524	 -0.000234
C	 -2.367097	 -0.232926	 -0.000000
O	 -1.158440	 0.455814	 -0.000122
H	 -2.468853	 -0.861886	 -0.882833
H	 -2.468942	 -0.861421	 0.883154
C	 -0.351148	 0.198617	 -1.109177
C	 0.927382	 1.008659	 -0.983255
H	 -0.878324	 0.463384	 -2.026719
H	 -0.120700	 -0.866027	 -1.166926
C	 1.876747	 0.788918	 -2.160244
H	 0.663270	 2.058840	 -0.905632
H	 1.415667	 0.738734	 -0.051903
H	 1.415214	 1.076392	 -3.100866
H	 2.780169	 1.378169	 -2.044236
H	 2.172465	 -0.253360	 -2.241547

	symmetry c1
}
set optking {
	frozen_dihedral = ("
		6 3 2 4
	")
}

ee = optimize('scf')
oeprop('DIPOLE', 'QUADRUPOLE', 'MULLIKEN_CHARGES')
f=open( 'psi4out.xyz', 'w' )
f.write( "15  " )
f.write( str(ee) + "\n" )
f.write( MOL.save_string_xyz() )
f.close()
--------------------------------------------------------------------------

    Molecular point group: c1
  Charge       = 0
  Multiplicity = 1
  Basis Set: 6-31G*
  Basis Set:
  @DF-RHF Final Energy:  -232.13494756418649
    Total Energy =                       -232.1349475641865183
    Molecular point group: c1
  Basis Set: 6-31G*
  Basis Set:
  Basis Set: 6-31G*
  Basis Set:
  @DF-RHF Final Energy:  -232.13536590011213
    Total Energy =                       -232.1353659001121628
  Basis Set: 6-31G*
  Basis Set:
  Basis Set: 6-31G*
  Basis Set:
  @DF-RHF Final Energy:  -232.13549841755724
    Total Energy =                       -232.1354984175572440
  Basis Set: 6-31G*
  Basis Set:
  Charge       = 0
  Multiplicity = 1
  Basis Set: 6-31G*
  Basis Set:

    Orbital Energies (a.u.)
    -----------------------

    Doubly Occupied:

       1A    -20.549270     2A    -11.266749     3A    -11.263421
       4A    -11.213659     5A    -11.212633     6A     -1.372775
       7A     -1.056798     8A     -0.955297     9A     -0.877332
      10A     -0.808684    11A     -0.670719    12A     -0.651546
      13A     -0.629486    14A     -0.607482    15A     -0.563832
      16A     -0.546117    17A     -0.501879    18A     -0.488256
      19A     -0.478875    20A     -0.460201    21A     -0.407726

  @DF-RHF Final Energy:  -232.13549922279057

   => Energetics <=

    Nuclear Repulsion Energy =            189.3793874198234732
    One-Electron Energy =                -689.8642960008126011
    Two-Electron Energy =                 268.3494093581986704
    DFT Exchange-Correlation Energy =       0.0000000000000000
    Empirical Dispersion Energy =           0.0000000000000000
    PCM Polarization Energy =               0.0000000000000000
    EFP Energy =                            0.0000000000000000
    Total Energy =                       -232.1354992227904290
    Molecular point group: c1
  Basis Set: 6-31G*
  Basis Set:

  -Total Gradient:
     Atom            X                  Y                   Z
    ------   -----------------  -----------------  -----------------
       1       -0.000025713077    -0.000008035330     0.000003200018
       2       -0.000009577176     0.000118891266     0.000027166598
       3       -0.000139953522    -0.000078750747    -0.000013588888
       4        0.000057886363    -0.000001969187    -0.000010970306
       5        0.000029025252    -0.000009729079     0.000000037139
       6        0.000070363515    -0.000057387143     0.000042329668
       7       -0.000019550255     0.000000736922    -0.000015994624
       8       -0.000004207164     0.000007715931     0.000045357541
       9       -0.000007277942     0.000004422004    -0.000024216085
      10        0.000041661770     0.000029954014    -0.000021392109
      11        0.000013782814     0.000002899265     0.000000789715
      12       -0.000027151722    -0.000010353666    -0.000012671343
      13        0.000004915225    -0.000004077503    -0.000002300119
      14        0.000019750899    -0.000000662149    -0.000023674452
      15       -0.000003954983     0.000006345401     0.000005927246

  **** Optimization is complete! (in 4 steps) ****
    Final optimized geometry and variables:
    Molecular point group: c1

    Geometry (in Angstrom), charge = 0, multiplicity = 1:

    H           -2.951920556293     0.063720723645     0.884760568752
    C           -2.139434988393    -0.654795354789     0.859931989134
    O           -0.915567376758     0.018508607668     0.829986338493
    H           -2.273481766158    -1.292928040168    -0.008381342920
    H           -2.194920531531    -1.272861177163     1.749839007737
    C           -0.100648780508    -0.236362471357    -0.275933222738
    C            1.173958966134     0.577127633365    -0.135401520896
    H           -0.618224887251     0.031941327639    -1.197081968309
    H            0.135813177155    -1.298905608436    -0.335448378018
    C            2.134670614773     0.365141104047    -1.304825350832
    H            0.905670166017     1.626076920087    -0.055501275065
    H            1.654448394462     0.304805018363     0.799259489520
    H            1.680407335076     0.654197016556    -2.248518396973
    H            3.034885613032     0.957369550955    -1.179095124876
    H            2.435049811274    -0.675729630851    -1.387356713621

  Mulliken Charges: (a.u.)
   Center  Symbol    Alpha    Beta     Spin     Total
       1     H     0.42080  0.42080  0.00000  0.15840
       2     C     3.07584  3.07584  0.00000 -0.15168
       3     O     4.31090  4.31090  0.00000 -0.62180
       4     H     0.42986  0.42986  0.00000  0.14028
       5     H     0.42081  0.42081  0.00000  0.15838
       6     C     2.98131  2.98131  0.00000  0.03738
       7     C     3.15994  3.15994  0.00000 -0.31989
       8     H     0.43322  0.43322  0.00000  0.13356
       9     H     0.43321  0.43321  0.00000  0.13359
      10     C     3.24794  3.24794  0.00000 -0.49588
      11     H     0.41437  0.41437  0.00000  0.17125
      12     H     0.41439  0.41439  0.00000  0.17122
      13     H     0.42098  0.42098  0.00000  0.15803
      14     H     0.41544  0.41544  0.00000  0.16911
      15     H     0.42098  0.42098  0.00000  0.15803

   Total alpha = 21.00000, Total beta = 21.00000, Total charge = -0.00000
