                              Psi4 1.0.54 Driver

  ==> Input File <==

--------------------------------------------------------------------------
set {
	reference rhf
	basis cc-pvtz
}

set_num_threads( 4 )
memory 2 gb

molecule MOL {
0 1

H	 -1.474648	 -2.161142	 -0.000094
C	 -1.027603	 -1.183508	 -0.000059
N	 0.287313	 -1.148229	 -0.000028
C	 -1.825403	 -0.056032	 -0.000060
C	 0.893291	 0.026846	 0.000004
H	 -2.893664	 -0.143276	 -0.000090
C	 -1.197266	 1.171405	 -0.000026
C	 0.181799	 1.216590	 0.000011
C	 2.397178	 0.005516	 0.000130
H	 -1.769749	 2.079758	 -0.000026
H	 0.699908	 2.155173	 0.000039
H	 2.759911	 -0.523030	 -0.872542
H	 2.811892	 1.004458	 -0.000398
H	 2.759778	 -0.521984	 0.873505

	symmetry c1
}
ee,wfn = energy('scf', return_wfn=True)
oeprop( wfn, 'DIPOLE', 'QUADRUPOLE', 'MULLIKEN_CHARGES')
oeprop( wfn, 'GRID_ESP')
f=open( 'psi4out.xyz', 'w' )
f.write( "14  " )
f.write( str(ee) + "\n" )
f.write( MOL.save_string_xyz() )
f.close()
--------------------------------------------------------------------------

    Molecular point group: c1

    Geometry (in Angstrom), charge = 0, multiplicity = 1:

       Center              X                  Y                   Z               Mass
    ------------   -----------------  -----------------  -----------------  -----------------
           H         -1.474683315328    -2.161097020588    -0.000094053698     1.007825032070
           C         -1.027638315328    -1.183463020588    -0.000059053698    12.000000000000
           N          0.287277684672    -1.148184020588    -0.000028053698    14.003074004780
           C         -1.825438315328    -0.055987020588    -0.000060053698    12.000000000000
           C          0.893255684672     0.026890979412     0.000003946302    12.000000000000
           H         -2.893699315328    -0.143231020588    -0.000090053698     1.007825032070
           C         -1.197301315328     1.171449979412    -0.000026053698    12.000000000000
           C          0.181763684672     1.216634979412     0.000010946302    12.000000000000
           C          2.397142684672     0.005560979412     0.000129946302    12.000000000000
           H         -1.769784315328     2.079802979412    -0.000026053698     1.007825032070
           H          0.699872684672     2.155217979412     0.000038946302     1.007825032070
           H          2.759875684672    -0.522985020588    -0.872542053698     1.007825032070
           H          2.811856684672     1.004502979412    -0.000398053698     1.007825032070
           H          2.759742684672    -0.521939020588     0.873504946302     1.007825032070

  Charge       = 0
  Multiplicity = 1
  Basis Set: CC-PVTZ
  Basis Set:

    Orbital Energies (a.u.)
    -----------------------

    Doubly Occupied:

       1A    -15.549265     2A    -11.272694     3A    -11.264160
       4A    -11.249468     5A    -11.228079     6A    -11.227884
       7A    -11.216475     8A     -1.265948     9A     -1.088533
      10A     -1.058257    11A     -0.953625    12A     -0.858970
      13A     -0.826074    14A     -0.704817    15A     -0.670651
      16A     -0.638895    17A     -0.588300    18A     -0.585270
      19A     -0.571137    20A     -0.538874    21A     -0.520938
      22A     -0.509839    23A     -0.407758    24A     -0.381464
      25A     -0.336968

  @DF-RHF Final Energy:  -285.83177059067361

   => Energetics <=

    Nuclear Repulsion Energy =            275.3541375076839586
    One-Electron Energy =                -931.3430648228124937
    Two-Electron Energy =                 370.1571567244550351
    DFT Exchange-Correlation Energy =       0.0000000000000000
    Empirical Dispersion Energy =           0.0000000000000000
    PCM Polarization Energy =               0.0000000000000000
    EFP Energy =                            0.0000000000000000
    Total Energy =                       -285.8317705906735000

  Mulliken Charges: (a.u.)
   Center  Symbol    Alpha    Beta     Spin     Total
       1     H     0.42063  0.42063  0.00000  0.15875
       2     C     3.05102  3.05102  0.00000 -0.10203
       3     N     3.60542  3.60542  0.00000 -0.21085
       4     C     3.07268  3.07268  0.00000 -0.14537
       5     C     2.93969  2.93969  0.00000  0.12062
       6     H     0.41277  0.41277  0.00000  0.17446
       7     C     3.08023  3.08023  0.00000 -0.16045
       8     C     3.10225  3.10225  0.00000 -0.20450
       9     C     3.13340  3.13340  0.00000 -0.26681
      10     H     0.42080  0.42080  0.00000  0.15840
      11     H     0.41542  0.41542  0.00000  0.16915
      12     H     0.44547  0.44547  0.00000  0.10906
      13     H     0.45473  0.45473  0.00000  0.09054
      14     H     0.44548  0.44548  0.00000  0.10904

   Total alpha = 25.00000, Total beta = 25.00000, Total charge =  0.00000

*** Psi4 exiting successfully. Buy a developer a beer!
