                              Psi4 1.0.54 Driver

  ==> Input File <==

--------------------------------------------------------------------------
set {
	reference rhf
	basis cc-pvtz
}

set_num_threads( 4 )
memory 2 gb

molecule MOL {
0 1

H	 2.755456	 0.295718	 0.820019
N	 2.326950	 -0.066185	 -0.000000
C	 0.934800	 -0.005419	 -0.000000
H	 2.755456	 0.295718	 -0.820019
C	 0.226560	 -0.001076	 -1.195129
C	 0.226560	 -0.001076	 1.195129
H	 0.759215	 -0.011438	 -2.128123
C	 -1.153267	 0.009142	 -1.189028
H	 0.759215	 -0.011438	 2.128123
C	 -1.153267	 0.009142	 1.189028
H	 -1.680781	 0.012965	 -2.124348
C	 -1.857752	 0.014676	 0.000000
H	 -1.680781	 0.012965	 2.124348
H	 -2.930098	 0.022905	 0.000000

	symmetry c1
}
ee,wfn = energy('scf', return_wfn=True)
oeprop( wfn, 'DIPOLE', 'QUADRUPOLE', 'MULLIKEN_CHARGES')
oeprop( wfn, 'GRID_ESP')
f=open( 'psi4out.xyz', 'w' )
f.write( "14  " )
f.write( str(ee) + "\n" )
f.write( MOL.save_string_xyz() )
f.close()
--------------------------------------------------------------------------

    Molecular point group: c1

    Geometry (in Angstrom), charge = 0, multiplicity = 1:

       Center              X                  Y                   Z               Mass
    ------------   -----------------  -----------------  -----------------  -----------------
           H          2.755332255030     0.295716918064     0.820019000000     1.007825032070
           N          2.326826255030    -0.066186081936     0.000000000000    14.003074004780
           C          0.934676255030    -0.005420081936     0.000000000000    12.000000000000
           H          2.755332255030     0.295716918064    -0.820019000000     1.007825032070
           C          0.226436255030    -0.001077081936    -1.195129000000    12.000000000000
           C          0.226436255030    -0.001077081936     1.195129000000    12.000000000000
           H          0.759091255030    -0.011439081936    -2.128123000000     1.007825032070
           C         -1.153390744970     0.009140918064    -1.189028000000    12.000000000000
           H          0.759091255030    -0.011439081936     2.128123000000     1.007825032070
           C         -1.153390744970     0.009140918064     1.189028000000    12.000000000000
           H         -1.680904744970     0.012963918064    -2.124348000000     1.007825032070
           C         -1.857875744970     0.014674918064     0.000000000000    12.000000000000
           H         -1.680904744970     0.012963918064     2.124348000000     1.007825032070
           H         -2.930221744970     0.022903918064     0.000000000000     1.007825032070

  Charge       = 0
  Multiplicity = 1
  Basis Set: CC-PVTZ
  Basis Set:

    Orbital Energies (a.u.)
    -----------------------

    Doubly Occupied:

       1A    -15.556220     2A    -11.271065     3A    -11.227162
       4A    -11.227123     5A    -11.215512     6A    -11.215493
       7A    -11.210929     8A     -1.227284     9A     -1.130608
      10A     -1.013465    11A     -0.987945    12A     -0.832973
      13A     -0.813646    14A     -0.708257    15A     -0.687956
      16A     -0.654977    17A     -0.598800    18A     -0.594447
      19A     -0.581577    20A     -0.535702    21A     -0.506470
      22A     -0.487279    23A     -0.449134    24A     -0.336286
      25A     -0.294414

  @DF-RHF Final Energy:  -285.83373167207213

   => Energetics <=

    Nuclear Repulsion Energy =            273.7490739948612486
    One-Electron Energy =                -928.4358874587142054
    Two-Electron Energy =                 368.8530817917811078
    DFT Exchange-Correlation Energy =       0.0000000000000000
    Empirical Dispersion Energy =           0.0000000000000000
    PCM Polarization Energy =               0.0000000000000000
    EFP Energy =                            0.0000000000000000
    Total Energy =                       -285.8337316720719059

  Mulliken Charges: (a.u.)
   Center  Symbol    Alpha    Beta     Spin     Total
       1     H     0.42249  0.42249  0.00000  0.15503
       2     N     3.66724  3.66724  0.00000 -0.33448
       3     C     2.88930  2.88930  0.00000  0.22141
       4     H     0.42249  0.42249  0.00000  0.15503
       5     C     3.11733  3.11733  0.00000 -0.23465
       6     C     3.11733  3.11733  0.00000 -0.23465
       7     H     0.43402  0.43402  0.00000  0.13195
       8     C     3.05789  3.05789  0.00000 -0.11578
       9     H     0.43402  0.43402  0.00000  0.13196
      10     C     3.05789  3.05789  0.00000 -0.11578
      11     H     0.42472  0.42472  0.00000  0.15056
      12     C     3.10518  3.10518  0.00000 -0.21037
      13     H     0.42472  0.42472  0.00000  0.15056
      14     H     0.42538  0.42538  0.00000  0.14923

   Total alpha = 25.00000, Total beta = 25.00000, Total charge = -0.00000

*** Psi4 exiting successfully. Buy a developer a beer!
