  ==> Input File <==

--------------------------------------------------------------------------
set {
	reference rhf
	basis 6-31G*
}

set_num_threads( 4 )
memory 2 gb

molecule MOL {
0 1

H	 -0.502780	 -1.641921	 -0.150465
N	 -0.626943	 -0.667432	 -0.000092
C	 -1.969005	 -0.173575	 0.208934
C	 0.469286	 0.129090	 0.000148
H	 -2.598599	 -0.384660	 -0.649006
H	 -1.917025	 0.893623	 0.350762
H	 -2.416676	 -0.624276	 1.088417
C	 1.788933	 -0.616240	 -0.000037
O	 0.411098	 1.327768	 -0.000049
H	 1.872803	 -1.245775	 -0.880381
H	 2.595421	 0.101576	 0.003713
H	 1.870096	 -1.252171	 0.875943

	symmetry c1
}
set optking {
	frozen_dihedral = ("
		3 2 4 9
	")
}

ee = optimize('scf')
oeprop('DIPOLE', 'QUADRUPOLE', 'MULLIKEN_CHARGES')
f=open( 'psi4out.xyz', 'w' )
f.write( "12  " )
f.write( str(ee) + "\n" )
f.write( MOL.save_string_xyz() )
f.close()
--------------------------------------------------------------------------

    Molecular point group: c1
  Charge       = 0
  Multiplicity = 1
  Basis Set: 6-31G*
  Basis Set:
  @DF-RHF Final Energy:  -247.00435456237716
    Total Energy =                       -247.0043545623771024
    Molecular point group: c1
  Basis Set: 6-31G*
  Basis Set:
  Basis Set: 6-31G*
  Basis Set:
  @DF-RHF Final Energy:  -247.00465491890995
    Total Energy =                       -247.0046549189099778
  Basis Set: 6-31G*
  Basis Set:
  Basis Set: 6-31G*
  Basis Set:
  @DF-RHF Final Energy:  -247.00510561971737
    Total Energy =                       -247.0051056197171420
  Basis Set: 6-31G*
  Basis Set:
  Basis Set: 6-31G*
  Basis Set:
  @DF-RHF Final Energy:  -247.00518460181252
    Total Energy =                       -247.0051846018122887
  Basis Set: 6-31G*
  Basis Set:
  @DF-RHF Final Energy:  -247.00521643858937
    Total Energy =                       -247.0052164385894002
  @DF-RHF Final Energy:  -247.00542555184686
    Total Energy =                       -247.0054255518471109
  @DF-RHF Final Energy:  -247.00555698089460
    Total Energy =                       -247.0055569808945393
  @DF-RHF Final Energy:  -247.00567464168213
    Total Energy =                       -247.0056746416820488
  Basis Set: 6-31G*
  Basis Set:
  @DF-RHF Final Energy:  -247.00569803767496
    Total Energy =                       -247.0056980376749038
  Basis Set: 6-31G*
  Basis Set:
  Basis Set: 6-31G*
  Basis Set:
  @DF-RHF Final Energy:  -247.00570377885751
    Total Energy =                       -247.0057037788576508
  Basis Set: 6-31G*
  Basis Set:
  Basis Set: 6-31G*
  Basis Set:
  @DF-RHF Final Energy:  -247.00570487198775
    Total Energy =                       -247.0057048719878594
  Basis Set: 6-31G*
  Basis Set:
  Charge       = 0
  Multiplicity = 1
  Basis Set: 6-31G*
  Basis Set:

    Orbital Energies (a.u.)
    -----------------------

    Doubly Occupied:

       1A    -20.516912     2A    -15.581579     3A    -11.342286
       4A    -11.254672     5A    -11.230315     6A     -1.385352
       7A     -1.228160     8A     -1.015486     9A     -0.931656
      10A     -0.785927    11A     -0.689115    12A     -0.648124
      13A     -0.632946    14A     -0.585255    15A     -0.580016
      16A     -0.555086    17A     -0.545910    18A     -0.504232
      19A     -0.414144    20A     -0.386588

  @DF-RHF Final Energy:  -247.00570578013574

   => Energetics <=

    Nuclear Repulsion Energy =            181.4799998423532372
    One-Electron Energy =                -695.3438883718982879
    Two-Electron Energy =                 266.8581827494093091
    DFT Exchange-Correlation Energy =       0.0000000000000000
    Empirical Dispersion Energy =           0.0000000000000000
    PCM Polarization Energy =               0.0000000000000000
    EFP Energy =                            0.0000000000000000
    Total Energy =                       -247.0057057801357701
    Molecular point group: c1
  Basis Set: 6-31G*
  Basis Set:

  -Total Gradient:
     Atom            X                  Y                   Z
    ------   -----------------  -----------------  -----------------
       1        0.000001225628    -0.000013078238     0.000036359729
       2       -0.000036122598     0.000958963874    -0.001920608271
       3        0.000074396343    -0.000486172621     0.000886447424
       4       -0.000127547193    -0.000906083114     0.002198879977
       5        0.000007442587     0.000003497959    -0.000009855478
       6       -0.000012009068     0.000011539764     0.000002763718
       7       -0.000005934302    -0.000011581413    -0.000003935648
       8        0.000021916828     0.000020847618     0.000003491406
       9        0.000094309112     0.000435368592    -0.001178260247
      10        0.000002177568     0.000016523178    -0.000017005543
      11       -0.000000640685    -0.000003577629     0.000011246813
      12       -0.000019214223    -0.000026247967    -0.000009523881

  **** Optimization is complete! (in 12 steps) ****
    Final optimized geometry and variables:
    Molecular point group: c1

    Geometry (in Angstrom), charge = 0, multiplicity = 1:

    H           -0.520741870325    -1.562737611536    -0.532190970129
    N           -0.633058768592    -0.597115468478    -0.325578368280
    C           -1.964001920366    -0.124685791925    -0.010330773433
    C            0.467735506508     0.112649937733     0.025414580065
    H           -2.683718651335    -0.701572974033    -0.576562681081
    H           -2.051145617755     0.914790062363    -0.288025025472
    H           -2.191139784107    -0.217010658197     1.047227650161
    C            1.787818924537    -0.606696857793    -0.158068692058
    O            0.404571320729     1.233159332938     0.449655474883
    H            1.779289928595    -1.269912137816    -1.015788901183
    H            2.572547550179     0.126864408145    -0.273091332254
    H            1.998542468913    -1.197878712057     0.728268990428

  Mulliken Charges: (a.u.)
   Center  Symbol    Alpha    Beta     Spin     Total
       1     H     0.31128  0.31128  0.00000  0.37743
       2     N     3.88878  3.88878  0.00000 -0.77756
       3     C     3.13821  3.13821  0.00000 -0.27643
       4     C     2.63195  2.63195  0.00000  0.73610
       5     H     0.41677  0.41677  0.00000  0.16646
       6     H     0.39546  0.39546  0.00000  0.20908
       7     H     0.41431  0.41431  0.00000  0.17138
       8     C     3.29385  3.29385  0.00000 -0.58770
       9     O     4.30096  4.30096  0.00000 -0.60192
      10     H     0.41276  0.41276  0.00000  0.17449
      11     H     0.39282  0.39282  0.00000  0.21435
      12     H     0.40284  0.40284  0.00000  0.19432

   Total alpha = 20.00000, Total beta = 20.00000, Total charge =  0.00000
