  ==> Input File <==

--------------------------------------------------------------------------
set {
	reference rhf
	basis 6-31G*
}

set_num_threads( 1 )
memory 2 gb

molecule MOL {
0 1

H	 -2.172150	 0.880146	 0.502514
C	 -2.018062	 -0.000025	 -0.114509
O	 -0.774054	 0.001095	 -0.743181
H	 -2.760490	 0.003458	 -0.901350
H	 -2.173624	 -0.884374	 0.496163
C	 0.056783	 1.144735	 -0.651909
C	 1.299131	 0.753028	 -1.448870
C	 -0.611308	 2.365621	 -1.292441
C	 0.439364	 1.435464	 0.802816
H	 1.027990	 0.520674	 -2.472552
H	 1.759057	 -0.127379	 -1.014444
H	 2.027992	 1.556992	 -1.456949
H	 -0.943129	 2.127786	 -2.297606
H	 0.090889	 3.190893	 -1.351152
H	 -1.467982	 2.709259	 -0.722724
H	 0.845994	 0.544414	 1.269434
H	 1.191819	 2.216225	 0.844746
H	 -0.408808	 1.771234	 1.389752

	symmetry c1
}
set optking {
	frozen_dihedral = ("
		2 3 6 7
	")
}

ee = energy('scf')
oeprop('DIPOLE', 'QUADRUPOLE', 'MULLIKEN_CHARGES')
f=open( 'psi4out.xyz', 'w' )
f.write( "18  " )
f.write( str(ee) + "\n" )
f.write( MOL.save_string_xyz() )
f.close()
--------------------------------------------------------------------------

    Molecular point group: c1

    Geometry (in Angstrom), charge = 0, multiplicity = 1:

       Center              X                  Y                   Z               Mass
    ------------   -----------------  -----------------  -----------------  -----------------
           H         -1.883852202556    -0.062382905449     1.071314411122     1.007825032070
           C         -1.729764202556    -0.942553905449     0.454291411122    12.000000000000
           O         -0.485756202556    -0.941433905449    -0.174380588878    15.994914619560
           H         -2.472192202556    -0.939070905449    -0.332549588878     1.007825032070
           H         -1.885326202556    -1.826902905449     1.064963411122     1.007825032070
           C          0.345080797444     0.202206094551    -0.083108588878    12.000000000000
           C          1.587428797444    -0.189500905449    -0.880069588878    12.000000000000
           C         -0.323010202556     1.423092094551    -0.723640588878    12.000000000000
           C          0.727661797444     0.492935094551     1.371616411122    12.000000000000
           H          1.316287797444    -0.421854905449    -1.903751588878     1.007825032070
           H          2.047354797444    -1.069907905449    -0.445643588878     1.007825032070
           H          2.316289797444     0.614463094551    -0.888148588878     1.007825032070
           H         -0.654831202556     1.185257094551    -1.728805588878     1.007825032070
           H          0.379186797444     2.248364094551    -0.782351588878     1.007825032070
           H         -1.179684202556     1.766730094551    -0.153923588878     1.007825032070
           H          1.134291797444    -0.398114905449     1.838234411122     1.007825032070
           H          1.480116797444     1.273696094551     1.413546411122     1.007825032070
           H         -0.120510202556     0.828705094551     1.958552411122     1.007825032070

  Charge       = 0
  Multiplicity = 1
  Basis Set: 6-31G*
  Basis Set:

    Orbital Energies (a.u.)
    -----------------------

    Doubly Occupied:

       1A    -20.544141     2A    -11.282192     3A    -11.260347
       4A    -11.208888     5A    -11.208769     6A    -11.203280
       7A     -1.369038     8A     -1.072990     9A     -0.946189
      10A     -0.939824    11A     -0.911981    12A     -0.752722
      13A     -0.655312    14A     -0.643843    15A     -0.639640
      16A     -0.589655    17A     -0.572523    18A     -0.551256
      19A     -0.538874    20A     -0.523768    21A     -0.515261
      22A     -0.490069    23A     -0.486259    24A     -0.438206
      25A     -0.400375

  @DF-RHF Final Energy:  -271.17212831953253

   => Energetics <=

    Nuclear Repulsion Energy =            272.3482333569806428
    One-Electron Energy =                -907.5494985100925760
    Two-Electron Energy =                 364.0291368335790025
    DFT Exchange-Correlation Energy =       0.0000000000000000
    Empirical Dispersion Energy =           0.0000000000000000
    PCM Polarization Energy =               0.0000000000000000
    EFP Energy =                            0.0000000000000000
    Total Energy =                       -271.1721283195329875

  Mulliken Charges: (a.u.)
   Center  Symbol    Alpha    Beta     Spin     Total
       1     H     0.43054  0.43054  0.00000  0.13892
       2     C     3.07647  3.07647  0.00000 -0.15295
       3     O     4.32125  4.32125  0.00000 -0.64249
       4     H     0.42218  0.42218  0.00000  0.15564
       5     H     0.41929  0.41929  0.00000  0.16142
       6     C     2.84448  2.84448  0.00000  0.31105
       7     C     3.23296  3.23296  0.00000 -0.46592
       8     C     3.24569  3.24569  0.00000 -0.49138
       9     C     3.24582  3.24582  0.00000 -0.49163
      10     H     0.41405  0.41405  0.00000  0.17189
      11     H     0.41396  0.41396  0.00000  0.17207
      12     H     0.42523  0.42523  0.00000  0.14955
      13     H     0.41327  0.41327  0.00000  0.17347
      14     H     0.41995  0.41995  0.00000  0.16010
      15     H     0.42104  0.42104  0.00000  0.15792
      16     H     0.41314  0.41314  0.00000  0.17373
      17     H     0.41989  0.41989  0.00000  0.16021
      18     H     0.42079  0.42079  0.00000  0.15841

   Total alpha = 25.00000, Total beta = 25.00000, Total charge = -0.00000
