  ==> Input File <==

--------------------------------------------------------------------------
set {
	reference rhf
	basis 6-31G*
}

set_num_threads( 4 )
memory 2 gb

molecule MOL {
0 1

H	 4.617940	 0.371086	 -0.058954
C	 3.758121	 -0.288838	 -0.004524
C	 2.452663	 0.504720	 -0.036259
H	 3.818646	 -0.978538	 -0.841708
H	 3.845718	 -0.870031	 0.909144
C	 1.217350	 -0.386724	 0.039429
H	 2.396221	 1.097374	 -0.943984
H	 2.438843	 1.208232	 0.794567
N	 0.000003	 0.397874	 -0.023260
H	 1.217372	 -1.071667	 -0.804263
H	 1.267657	 -1.006585	 0.940883
C	 -1.217365	 -0.386708	 0.039277
H	 -0.000031	 1.072115	 0.718656
C	 -2.452633	 0.504241	 -0.042481
H	 -1.215291	 -1.074557	 -0.802042
H	 -1.269739	 -1.003477	 0.942735
C	 -3.758029	 -0.289423	 -0.010781
H	 -2.394220	 1.093569	 -0.952170
H	 -2.440793	 1.210787	 0.785871
H	 -3.816659	 -0.981993	 -0.845726
H	 -4.617837	 0.370165	 -0.069296
H	 -3.847478	 -0.867502	 0.904682

	symmetry c1
}
set optking {
	frozen_dihedral = ("
		10 6 9 12
	")
}

ee = optimize('scf')
oeprop('DIPOLE', 'QUADRUPOLE', 'MULLIKEN_CHARGES')
f=open( 'psi4out.xyz', 'w' )
f.write( "22  " )
f.write( str(ee) + "\n" )
f.write( MOL.save_string_xyz() )
f.close()
--------------------------------------------------------------------------

    Molecular point group: c1
  Charge       = 0
  Multiplicity = 1
  Basis Set: 6-31G*
  Basis Set:
  @DF-RHF Final Energy:  -290.38324981837570
    Total Energy =                       -290.3832498183754751
    Molecular point group: c1
  Basis Set: 6-31G*
  Basis Set:
  Charge       = 0
  Multiplicity = 1
  Basis Set: 6-31G*
  Basis Set:

    Orbital Energies (a.u.)
    -----------------------

    Doubly Occupied:

       1A    -15.533616     2A    -11.237922     3A    -11.237904
       4A    -11.213522     5A    -11.213486     6A    -11.209705
       7A    -11.209683     8A     -1.205604     9A     -1.059266
      10A     -1.025910    11A     -0.928135    12A     -0.868274
      13A     -0.811198    14A     -0.793686    15A     -0.668831
      16A     -0.626318    17A     -0.614517    18A     -0.613086
      19A     -0.574067    20A     -0.563210    21A     -0.529517
      22A     -0.528138    23A     -0.515480    24A     -0.485153
      25A     -0.482941    26A     -0.474478    27A     -0.465980
      28A     -0.450529    29A     -0.359041

  @DF-RHF Final Energy:  -290.38324984613291

   => Energetics <=

    Nuclear Repulsion Energy =            313.1850704871847029
    One-Electron Energy =               -1012.1382448927870428
    Two-Electron Energy =                 408.5699245594697686
    DFT Exchange-Correlation Energy =       0.0000000000000000
    Empirical Dispersion Energy =           0.0000000000000000
    PCM Polarization Energy =               0.0000000000000000
    EFP Energy =                            0.0000000000000000
    Total Energy =                       -290.3832498461325713
    Molecular point group: c1
  Basis Set: 6-31G*
  Basis Set:

  -Total Gradient:
     Atom            X                  Y                   Z
    ------   -----------------  -----------------  -----------------
       1       -0.000003686417     0.000002777928    -0.000005032823
       2       -0.000009256875    -0.000005722015    -0.000014005020
       3       -0.000013772868     0.000001159015     0.000009050462
       4        0.000000637667    -0.000004574756     0.000002435426
       5       -0.000001740098     0.000004235141     0.000001779723
       6       -0.000041913722    -0.000036935952     0.000044009851
       7        0.000005424331     0.000005555053     0.000001866664
       8       -0.000005447004    -0.000002537701     0.000003982437
       9       -0.000001154245     0.000001334777    -0.000047376786
      10        0.000029017209     0.000024495351    -0.000027843341
      11        0.000002819698    -0.000000679618     0.000006298795
      12        0.000024356548     0.000000197595     0.000018867010
      13       -0.000002272081     0.000000452715    -0.000005030715
      14        0.000005719004     0.000011826120     0.000018183192
      15       -0.000000762914    -0.000008331694    -0.000001547303
      16        0.000003873757     0.000007746646     0.000000791901
      17        0.000006954196    -0.000005576680    -0.000013063482
      18       -0.000003681177     0.000002405659     0.000002536871
      19        0.000001700408     0.000000950337     0.000004186449
      20       -0.000000043009    -0.000005515707     0.000002630492
      21        0.000003131367     0.000002113987    -0.000005320772
      22        0.000000096222     0.000004623798     0.000002600968

  **** Optimization is complete! (in 2 steps) ****
    Final optimized geometry and variables:
    Molecular point group: c1

    Geometry (in Angstrom), charge = 0, multiplicity = 1:

    H            4.617590382122     0.370553143346    -0.063865946474
    C            3.757780348312    -0.289260029239    -0.007667907210
    C            2.452474292287     0.504557043419    -0.037442032584
    H            3.816717814754    -0.979306071657    -0.844645648292
    H            3.846848964876    -0.870074301573     0.906104180568
    C            1.217188754109    -0.386812814914     0.038587366651
    H            2.395295518199     1.097949418572    -0.944617997650
    H            2.439502677525     1.207399365183     0.794044492743
    N            0.000009967087     0.397995172187    -0.024399697717
    H            1.217362439925    -1.071920703969    -0.804959192470
    H            1.267485891136    -1.006288917713     0.940328434248
    C           -1.217218407382    -0.386746538796     0.038076808219
    H           -0.000186807626     1.072015298765     0.717799950473
    C           -2.452504866922     0.504098480447    -0.044027144637
    H           -1.214950460703    -1.074913067669    -0.802970596693
    H           -1.269580515606    -1.003186469651     0.941770482005
    C           -3.757748164745    -0.289812882723    -0.013661469805
    H           -2.393561101779     1.093828863781    -0.953465424786
    H           -2.441304078902     1.210318092187     0.784616159508
    H           -3.814747410357    -0.983498022670    -0.847765713630
    H           -4.617549051378     0.369592819291    -0.074598542201
    H           -3.848728829197    -0.866681637856     0.902420887031

  Mulliken Charges: (a.u.)
   Center  Symbol    Alpha    Beta     Spin     Total
       1     H     0.41774  0.41774  0.00000  0.16452
       2     C     3.24325  3.24325  0.00000 -0.48650
       3     C     3.15565  3.15565  0.00000 -0.31131
       4     H     0.42069  0.42069  0.00000  0.15862
       5     H     0.42167  0.42167  0.00000  0.15666
       6     C     3.04631  3.04631  0.00000 -0.09263
       7     H     0.41297  0.41297  0.00000  0.17406
       8     H     0.42671  0.42671  0.00000  0.14659
       9     N     3.85844  3.85844  0.00000 -0.71688
      10     H     0.42177  0.42177  0.00000  0.15646
      11     H     0.43632  0.43632  0.00000  0.12735
      12     C     3.04639  3.04639  0.00000 -0.09279
      13     H     0.33538  0.33538  0.00000  0.32924
      14     C     3.15555  3.15555  0.00000 -0.31110
      15     H     0.42178  0.42178  0.00000  0.15645
      16     H     0.43632  0.43632  0.00000  0.12737
      17     C     3.24326  3.24326  0.00000 -0.48652
      18     H     0.41298  0.41298  0.00000  0.17403
      19     H     0.42670  0.42670  0.00000  0.14660
      20     H     0.42070  0.42070  0.00000  0.15860
      21     H     0.41774  0.41774  0.00000  0.16452
      22     H     0.42168  0.42168  0.00000  0.15664

   Total alpha = 29.00000, Total beta = 29.00000, Total charge =  0.00000
