  ==> Input File <==

--------------------------------------------------------------------------
set {
	reference rhf
	basis cc-pvtz
}

set_num_threads( 4 )
memory 2 gb

molecule MOL {
0 1

H	 -2.626282	 0.068334	 -0.414218
C	 -1.640388	 -0.377488	 -0.429276
C	 -0.600949	 0.658697	 -0.000002
H	 -1.440208	 -0.733543	 -1.430893
H	 -1.637984	 -1.227339	 0.239929
C	 0.763408	 0.112229	 -0.000006
H	 -0.613048	 1.513191	 -0.663799
H	 -0.809711	 1.022178	 0.997613
N	 1.806008	 -0.317179	 0.000007

	symmetry c1
}
set optking {
	frozen_dihedral = ("
		7 3 6 9
	")
}

ee = optimize('scf')
oeprop('DIPOLE', 'QUADRUPOLE', 'MULLIKEN_CHARGES')
f=open( 'psi4out.xyz', 'w' )
f.write( "9  " )
f.write( str(ee) + "\n" )
f.write( MOL.save_string_xyz() )
f.close()
--------------------------------------------------------------------------

    Molecular point group: c1
  Charge       = 0
  Multiplicity = 1
  Basis Set: CC-PVTZ
  Basis Set:
  @DF-RHF Final Energy:  -171.02346131805925
    Total Energy =                       -171.0234613180593328
    Molecular point group: c1
  Basis Set: CC-PVTZ
  Basis Set:
  Basis Set: CC-PVTZ
  Basis Set:
  @DF-RHF Final Energy:  -170.92853456833862
    Total Energy =                       -170.9285345683385344
  Basis Set: CC-PVTZ
  Basis Set:
  Basis Set: CC-PVTZ
  Basis Set:
  @DF-RHF Final Energy:  -170.99446257438626
    Total Energy =                       -170.9944625743863185
  Basis Set: CC-PVTZ
  Basis Set:
  Basis Set: CC-PVTZ
  Basis Set:
  @DF-RHF Final Energy:  -171.02119698253483
    Total Energy =                       -171.0211969825348888
  Basis Set: CC-PVTZ
  Basis Set:
  @DF-RHF Final Energy:  -171.02275682076063
    Total Energy =                       -171.0227568207606623
  @DF-RHF Final Energy:  -171.02339207192151
    Total Energy =                       -171.0233920719214780
  @DF-RHF Final Energy:  -171.01894204780658
    Total Energy =                       -171.0189420478064903
  @DF-RHF Final Energy:  -171.02161437159236
    Total Energy =                       -171.0216143715923067
  @DF-RHF Final Energy:  -171.01553561220487
    Total Energy =                       -171.0155356122049568
  @DF-RHF Final Energy:  -171.01020341906644
    Total Energy =                       -171.0102034190664426
  @DF-RHF Final Energy:  -171.02172419410806
    Total Energy =                       -171.0217241941081454
  @DF-RHF Final Energy:  -171.02306227570955
    Total Energy =                       -171.0230622757094920
  @DF-RHF Final Energy:  -171.02338334051495
    Total Energy =                       -171.0233833405150676
  @DF-RHF Final Energy:  -171.01015626274074
    Total Energy =                       -171.0101562627406793
  @DF-RHF Final Energy:  -171.01953895714050
    Total Energy =                       -171.0195389571404121
  @DF-RHF Final Energy:  -171.02242453836459
    Total Energy =                       -171.0224245383646178
  @DF-RHF Final Energy:  -171.02334404977526
    Total Energy =                       -171.0233440497753179
  @DF-RHF Final Energy:  -171.02163009999015
    Total Energy =                       -171.0216300999900909
  @DF-RHF Final Energy:  -171.02321824070856
    Total Energy =                       -171.0232182407085020
  @DF-RHF Final Energy:  -171.02316869687905
    Total Energy =                       -171.0231686968789973
  @DF-RHF Final Energy:  -171.02009057479614
    Total Energy =                       -171.0200905747961428
  @DF-RHF Final Energy:  -171.02280924076291
    Total Energy =                       -171.0228092407629674
  @DF-RHF Final Energy:  -171.02229578332049
    Total Energy =                       -171.0222957833205442
  @DF-RHF Final Energy:  -171.02333666804515
    Total Energy =                       -171.0233366680450331
  @DF-RHF Final Energy:  -171.02335192508767
    Total Energy =                       -171.0233519250876668
  @DF-RHF Final Energy:  -171.02159121095684
    Total Energy =                       -171.0215912109569274
  @DF-RHF Final Energy:  -171.02308048986791
    Total Energy =                       -171.0230804898678798
  @DF-RHF Final Energy:  -171.02299700002030
    Total Energy =                       -171.0229970000202400
  @DF-RHF Final Energy:  -171.02313926999176
    Total Energy =                       -171.0231392699918729
  @DF-RHF Final Energy:  -171.02337658137139
    Total Energy =                       -171.0233765813713092
  @DF-RHF Final Energy:  -171.02226521847953
    Total Energy =                       -171.0222652184795606
  @DF-RHF Final Energy:  -171.02268224815907
    Total Energy =                       -171.0226822481590432
  @DF-RHF Final Energy:  -171.02296422058600
    Total Energy =                       -171.0229642205860046
  @DF-RHF Final Energy:  -171.02317300202014
    Total Energy =                       -171.0231730020202576
  @DF-RHF Final Energy:  -171.02331961999766
    Total Energy =                       -171.0233196199976931
  @DF-RHF Final Energy:  -171.02341119525556
    Total Energy =                       -171.0234111952555338
  Basis Set: CC-PVTZ
  Basis Set:
  @DF-RHF Final Energy:  -171.02342684491151
    Total Energy =                       -171.0234268449115689
  Basis Set: CC-PVTZ
  Basis Set:
  Basis Set: CC-PVTZ
  Basis Set:
  @DF-RHF Final Energy:  -171.02343002980422
    Total Energy =                       -171.0234300298041035
  Basis Set: CC-PVTZ
  Basis Set:
  Basis Set: CC-PVTZ
  Basis Set:
  @DF-RHF Final Energy:  -171.02343024229390
    Total Energy =                       -171.0234302422938129
  Basis Set: CC-PVTZ
  Basis Set:
  Charge       = 0
  Multiplicity = 1
  Basis Set: CC-PVTZ
  Basis Set:

    Orbital Energies (a.u.)
    -----------------------

    Doubly Occupied:

       1A    -15.556544     2A    -11.282507     3A    -11.261127
       4A    -11.244442     5A     -1.229154     6A     -1.084360
       7A     -0.913184     8A     -0.700655     9A     -0.661152
      10A     -0.589666    11A     -0.563057    12A     -0.545166
      13A     -0.540143    14A     -0.463946    15A     -0.463915

  @DF-RHF Final Energy:  -171.02343841219925

   => Energetics <=

    Nuclear Repulsion Energy =            103.7872089111857719
    One-Electron Energy =                -435.4232574875979935
    Two-Electron Energy =                 160.6126101642128674
    DFT Exchange-Correlation Energy =       0.0000000000000000
    Empirical Dispersion Energy =           0.0000000000000000
    PCM Polarization Energy =               0.0000000000000000
    EFP Energy =                            0.0000000000000000
    Total Energy =                       -171.0234384121993685
    Molecular point group: c1
  Basis Set: CC-PVTZ
  Basis Set:

  -Total Gradient:
     Atom            X                  Y                   Z
    ------   -----------------  -----------------  -----------------
       1        0.000002525390     0.000020811839     0.000000662622
       2        0.000121127151    -0.000019007346    -0.000073432754
       3        0.000006741000    -0.000557667392     0.000580039837
       4        0.000074295921    -0.000064692889     0.000024920992
       5        0.000002708575     0.000025049859     0.000005565076
       6        0.000521843805     0.001196789242    -0.000785900695
       7       -0.000102477806     0.000069368562     0.000041553655
       8       -0.000216288640     0.000116942364    -0.000085894315
       9       -0.000410475397    -0.000787594239     0.000292485582

    Molecular point group: c1

    Geometry (in Angstrom), charge = 0, multiplicity = 1:

    H           -2.632815200630     0.050828787250    -0.274071483775
    C           -1.646298298770    -0.393034599774    -0.301203423373
    C           -0.607560699139     0.641566004221     0.131829486669
    H           -1.452379609048    -0.738680728851    -1.307755237446
    H           -1.636146393394    -1.249655170593     0.359242751525
    C            0.757570787051     0.098254648551     0.108351647460
    H           -0.633127913796     1.507201491972    -0.517287328741
    H           -0.804398193166     0.988196625652     1.137769311219
    N            1.797487051631    -0.337332299666     0.095627640406

  Mulliken Charges: (a.u.)
   Center  Symbol    Alpha    Beta     Spin     Total
       1     H     0.44621  0.44621  0.00000  0.10758
       2     C     3.13519  3.13519  0.00000 -0.27038
       3     C     3.07962  3.07962  0.00000 -0.15924
       4     H     0.44487  0.44487  0.00000  0.11026
       5     H     0.44483  0.44483  0.00000  0.11033
       6     C     3.04242  3.04242  0.00000 -0.08484
       7     H     0.43230  0.43230  0.00000  0.13539
       8     H     0.43204  0.43204  0.00000  0.13593
       9     N     3.54251  3.54251  0.00000 -0.08503

   Total alpha = 15.00000, Total beta = 15.00000, Total charge = -0.00000
