                              Psi4 1.0.54 Driver

  ==> Input File <==

--------------------------------------------------------------------------
set {
	reference rhf
	basis cc-pvtz
}

set_num_threads( 4 )
memory 2 gb

molecule MOL {
0 1

H	 2.527932	 -0.695920	 -0.975998
O	 1.743081	 -0.184805	 -1.045464
C	 1.300723	 0.197527	 0.231312
C	 0.027642	 1.012027	 0.090274
H	 2.055504	 0.802236	 0.727700
H	 1.127879	 -0.678220	 0.850710
C	 -1.138737	 0.285728	 -0.581921
H	 0.262735	 1.904639	 -0.480237
H	 -0.269146	 1.342316	 1.082766
C	 -1.933983	 -0.631436	 0.343653
H	 -0.763151	 -0.285569	 -1.422081
H	 -1.808359	 1.035291	 -0.992333
H	 -2.789188	 -1.049673	 -0.174718
H	 -1.335629	 -1.461368	 0.700418
H	 -2.305435	 -0.092167	 1.209725

	symmetry c1
}
set optking {
	frozen_dihedral = ("
		8 4 7 11
	")
}

ee,wfn = optimize('scf', return_wfn=True)
oeprop( wfn, 'DIPOLE', 'QUADRUPOLE', 'MULLIKEN_CHARGES')
f=open( 'psi4out.xyz', 'w' )
f.write( "15  " )
f.write( str(ee) + "\n" )
f.write( MOL.save_string_xyz() )
f.close()
--------------------------------------------------------------------------

    Molecular point group: c1
  Charge       = 0
  Multiplicity = 1
  Basis Set: CC-PVTZ
  Basis Set:
  @DF-RHF Final Energy:  -232.23666102068378
    Total Energy =                       -232.2366610206835276
    Molecular point group: c1
  Basis Set: CC-PVTZ
  Basis Set:
  Basis Set: CC-PVTZ
  Basis Set:
  @DF-RHF Final Energy:  -232.23691412771700
    Total Energy =                       -232.2369141277169433
  Basis Set: CC-PVTZ
  Basis Set:
  Basis Set: CC-PVTZ
  Basis Set:
  @DF-RHF Final Energy:  -232.23697752591750
    Total Energy =                       -232.2369775259174958
  Basis Set: CC-PVTZ
  Basis Set:
  Basis Set: CC-PVTZ
  Basis Set:
  @DF-RHF Final Energy:  -232.23698052701286
    Total Energy =                       -232.2369805270131451
  Basis Set: CC-PVTZ
  Basis Set:
  Charge       = 0
  Multiplicity = 1
  Basis Set: CC-PVTZ
  Basis Set:

    Orbital Energies (a.u.)
    -----------------------

    Doubly Occupied:

       1A    -20.546496     2A    -11.266041     3A    -11.210723
       4A    -11.207468     5A    -11.204031     6A     -1.364394
       7A     -1.065646     8A     -0.972429     9A     -0.866640
      10A     -0.779505    11A     -0.706885    12A     -0.650526
      13A     -0.607410    14A     -0.577154    15A     -0.565235
      16A     -0.535110    17A     -0.508162    18A     -0.476353
      19A     -0.469496    20A     -0.454288    21A     -0.432696

  @DF-RHF Final Energy:  -232.23698090223189

   => Energetics <=

    Nuclear Repulsion Energy =            190.8311300369587684
    One-Electron Energy =                -693.2028440040382975
    Two-Electron Energy =                 270.1347330648478646
    DFT Exchange-Correlation Energy =       0.0000000000000000
    Empirical Dispersion Energy =           0.0000000000000000
    PCM Polarization Energy =               0.0000000000000000
    EFP Energy =                            0.0000000000000000
    Total Energy =                       -232.2369809022316645
    Molecular point group: c1
  Basis Set: CC-PVTZ
  Basis Set:

  -Total Gradient:
     Atom            X                  Y                   Z
    ------   -----------------  -----------------  -----------------
       1        0.000004761849     0.000007013750    -0.000001520482
       2       -0.000017380586    -0.000001321049     0.000013019949
       3        0.000000055037     0.000008213911    -0.000012928630
       4        0.001755262194    -0.001848946903    -0.001095055947
       5        0.000007210907    -0.000014803089    -0.000006548161
       6        0.000005668836     0.000006104314     0.000006016145
       7       -0.000660578631     0.002332930866    -0.001342390894
       8       -0.001356253114     0.001172493915     0.001122271037
       9       -0.000018324492    -0.000009218064    -0.000007128079
      10        0.000014250315    -0.000015217292    -0.000008772609
      11        0.000273011883    -0.001628517610     0.001336868798
      12        0.000001123670    -0.000006273337    -0.000004798012
      13       -0.000004059623    -0.000007839632     0.000003053514
      14       -0.000005741056    -0.000004474196     0.000003288026
      15        0.000000992811     0.000009854415    -0.000005374654

  **** Optimization is complete! (in 5 steps) ****
    Final optimized geometry and variables:
    Molecular point group: c1

    Geometry (in Angstrom), charge = 0, multiplicity = 1:

    H            2.486902877052    -0.835255790723    -0.719728647642
    O            1.730724491488    -0.286499350818    -0.814480392214
    C            1.223234671525     0.059507873429     0.448381355426
    C           -0.024415578333     0.902902379851     0.263637108618
    H            1.961078146435     0.628451009424     1.008186562173
    H            0.996435133156    -0.834939112975     1.023290386538
    C           -1.196802266802     0.173666677380    -0.399892244581
    H            0.239360802842     1.779263621893    -0.318450259080
    H           -0.330589210636     1.269290572998     1.240544625688
    C           -1.981437662979    -0.722891108720     0.556062615397
    H           -0.821103785853    -0.425276107812    -1.220624628929
    H           -1.872314448893     0.907034983256    -0.826694795975
    H           -2.791938867840    -1.224395379416     0.039519903079
    H           -1.353445990422    -1.490350819998     0.995156545646
    H           -2.413613497380    -0.146603168082     1.367819465012

  Mulliken Charges: (a.u.)
   Center  Symbol    Alpha    Beta     Spin     Total
       1     H     0.39555  0.39555  0.00000  0.20889
       2     O     4.19870  4.19870  0.00000 -0.39741
       3     C     2.97257  2.97257  0.00000  0.05487
       4     C     3.09276  3.09276  0.00000 -0.18552
       5     H     0.46450  0.46450  0.00000  0.07100
       6     H     0.47355  0.47355  0.00000  0.05291
       7     C     3.09015  3.09015  0.00000 -0.18029
       8     H     0.44729  0.44729  0.00000  0.10543
       9     H     0.45674  0.45674  0.00000  0.08652
      10     C     3.15054  3.15054  0.00000 -0.30107
      11     H     0.44597  0.44597  0.00000  0.10806
      12     H     0.45016  0.45016  0.00000  0.09968
      13     H     0.44778  0.44778  0.00000  0.10444
      14     H     0.45687  0.45687  0.00000  0.08625
      15     H     0.45688  0.45688  0.00000  0.08624

   Total alpha = 21.00000, Total beta = 21.00000, Total charge =  0.00000

*** Psi4 exiting successfully. Buy a developer a beer!
