                              Psi4 1.0.54 Driver

  ==> Input File <==

--------------------------------------------------------------------------
set {
	reference rhf
	basis cc-pvtz
}

set_num_threads( 4 )
memory 2 gb

molecule MOL {
0 1

H	 -1.860786	 1.017773	 0.440476
N	 -1.851927	 0.161443	 -0.071573
C	 -0.561396	 -0.500007	 0.035200
H	 -2.060612	 0.384453	 -1.022390
C	 0.575129	 0.507849	 -0.048832
H	 -0.478089	 -1.200753	 -0.788956
H	 -0.456191	 -1.081816	 0.952176
C	 1.951750	 -0.141983	 0.035101
H	 0.478254	 1.061643	 -0.975981
H	 0.467676	 1.231891	 0.755499
H	 2.101550	 -0.848142	 -0.774949
H	 2.738260	 0.600794	 -0.026526
H	 2.078939	 -0.679792	 0.968824

	symmetry c1
}
set optking {
	frozen_dihedral = ("
		1 2 3 6
	")
}

ee,wfn = optimize('scf', return_wfn=True)
oeprop( wfn, 'DIPOLE', 'QUADRUPOLE', 'MULLIKEN_CHARGES')
f=open( 'psi4out.xyz', 'w' )
f.write( "13  " )
f.write( str(ee) + "\n" )
f.write( MOL.save_string_xyz() )
f.close()
--------------------------------------------------------------------------

    Molecular point group: c1
  Charge       = 0
  Multiplicity = 1
  Basis Set: CC-PVTZ
  Basis Set:
  @DF-RHF Final Energy:  -173.35001822381435
    Total Energy =                       -173.3500182238143452
    Molecular point group: c1
  Basis Set: CC-PVTZ
  Basis Set:
  Basis Set: CC-PVTZ
  Basis Set:
  @DF-RHF Final Energy:  -173.35133246220030
    Total Energy =                       -173.3513324622002756
  Basis Set: CC-PVTZ
  Basis Set:
  Basis Set: CC-PVTZ
  Basis Set:
  @DF-RHF Final Energy:  -173.35153137210943
    Total Energy =                       -173.3515313721093491
  Basis Set: CC-PVTZ
  Basis Set:
  Basis Set: CC-PVTZ
  Basis Set:
  @DF-RHF Final Energy:  -173.35153365825829
    Total Energy =                       -173.3515336582582052
  Basis Set: CC-PVTZ
  Basis Set:
  Charge       = 0
  Multiplicity = 1
  Basis Set: CC-PVTZ
  Basis Set:

    Orbital Energies (a.u.)
    -----------------------

    Doubly Occupied:

       1A    -15.526914     2A    -11.238730     3A    -11.214586
       4A    -11.210026     5A     -1.178902     6A     -1.038274
       7A     -0.900251     8A     -0.807482     9A     -0.676055
      10A     -0.610034    11A     -0.606743    12A     -0.560913
      13A     -0.530034    14A     -0.511384    15A     -0.486386
      16A     -0.471510    17A     -0.381417

  @DF-RHF Final Energy:  -173.35153374802940

   => Energetics <=

    Nuclear Repulsion Energy =            131.8432128858378860
    One-Electron Energy =                -494.4902112239186067
    Two-Electron Energy =                 189.2954645900512958
    DFT Exchange-Correlation Energy =       0.0000000000000000
    Empirical Dispersion Energy =           0.0000000000000000
    PCM Polarization Energy =               0.0000000000000000
    EFP Energy =                            0.0000000000000000
    Total Energy =                       -173.3515337480294249
    Molecular point group: c1
  Basis Set: CC-PVTZ
  Basis Set:

  -Total Gradient:
     Atom            X                  Y                   Z
    ------   -----------------  -----------------  -----------------
       1        0.000793317833     0.001359460188    -0.002250475172
       2       -0.000747992936    -0.001281380007     0.002490403447
       3       -0.000987580376    -0.001868715431     0.001185746702
       4        0.000005384200    -0.000005175370    -0.000000307375
       5       -0.000017901723    -0.000004702534     0.000014825162
       6        0.000950198717     0.001781251213    -0.001438635160
       7       -0.000007456193     0.000005796471     0.000002463437
       8       -0.000003837470     0.000007728209    -0.000008576770
       9        0.000003002733     0.000000290411     0.000004952674
      10        0.000001430145     0.000010326772     0.000000758304
      11        0.000002631489    -0.000003486833     0.000002066960
      12        0.000008362036    -0.000002841410    -0.000001390858
      13        0.000000441546     0.000001448321    -0.000001831352

  **** Optimization is complete! (in 5 steps) ****
    Final optimized geometry and variables:
    Molecular point group: c1

    Geometry (in Angstrom), charge = 0, multiplicity = 1:

    H           -1.915144238835     1.012767328561     0.446640361292
    N           -1.893820617584     0.152417892944    -0.060736734386
    C           -0.582436448517    -0.472579426245     0.029874067031
    H           -2.106428269717     0.382739881833    -1.008560353892
    C            0.601112909261     0.490804510392    -0.021786141975
    H           -0.493310260946    -1.176862780207    -0.790369785294
    H           -0.534383621357    -1.050093728662     0.947448413615
    C            1.948105732378    -0.216391899293     0.082593645900
    H            0.555932178762     1.059844883769    -0.946759471289
    H            0.506751569406     1.211253873052     0.787393376708
    H            2.086000059336    -0.918962148107    -0.732666970937
    H            2.767509780891     0.491879369775     0.049372218458
    H            2.028341176913    -0.770775953006     1.011669742920

  Mulliken Charges: (a.u.)
   Center  Symbol    Alpha    Beta     Spin     Total
       1     H     0.43201  0.43201  0.00000  0.13599
       2     N     3.68834  3.68834  0.00000 -0.37668
       3     C     3.02446  3.02446  0.00000 -0.04891
       4     H     0.43187  0.43187  0.00000  0.13625
       5     C     3.08268  3.08268  0.00000 -0.16536
       6     H     0.45692  0.45692  0.00000  0.08615
       7     H     0.45532  0.45532  0.00000  0.08936
       8     C     3.15252  3.15252  0.00000 -0.30505
       9     H     0.45899  0.45899  0.00000  0.08203
      10     H     0.45931  0.45931  0.00000  0.08138
      11     H     0.45508  0.45508  0.00000  0.08984
      12     H     0.44794  0.44794  0.00000  0.10411
      13     H     0.45455  0.45455  0.00000  0.09090

   Total alpha = 17.00000, Total beta = 17.00000, Total charge = -0.00000

*** Psi4 exiting successfully. Buy a developer a beer!
