  ==> Input File <==

--------------------------------------------------------------------------
set {
	reference rhf
	basis 6-31G*
}

set_num_threads( 4 )
memory 2 gb

molecule MOL {
0 1

H	 -0.000158	 1.970498	 0.756846
O	 -0.000074	 1.880206	 -0.189275
C	 -0.000015	 0.544847	 -0.545111
C	 -1.278788	 -0.123820	 -0.051541
C	 1.278802	 -0.123718	 -0.051505
H	 -0.000001	 0.490777	 -1.623619
F	 -1.011274	 -1.348474	 0.348714
F	 -1.823734	 0.524255	 0.956127
F	 -2.173522	 -0.203031	 -1.023536
F	 2.323327	 0.466644	 -0.591854
F	 1.326242	 -1.401483	 -0.363667
F	 1.388946	 -0.015632	 1.262939

	symmetry c1
}
set optking {
	frozen_dihedral = ("
		7 4 3 6
	")
}

ee = optimize('scf')
oeprop('DIPOLE', 'QUADRUPOLE', 'MULLIKEN_CHARGES')
f=open( 'psi4out.xyz', 'w' )
f.write( "12  " )
f.write( str(ee) + "\n" )
f.write( MOL.save_string_xyz() )
f.close()
--------------------------------------------------------------------------

    Molecular point group: c1
  Charge       = 0
  Multiplicity = 1
  Basis Set: 6-31G*
  Basis Set:
  @DF-RHF Final Energy:  -786.27185457078531
    Total Energy =                       -786.2718545707855355
    Molecular point group: c1
  Basis Set: 6-31G*
  Basis Set:
  Basis Set: 6-31G*
  Basis Set:
  @DF-RHF Final Energy:  -786.27352879821922
    Total Energy =                       -786.2735287982191039
  Basis Set: 6-31G*
  Basis Set:
  Basis Set: 6-31G*
  Basis Set:
  @DF-RHF Final Energy:  -786.27410537274955
    Total Energy =                       -786.2741053727500002
  Basis Set: 6-31G*
  Basis Set:
  Basis Set: 6-31G*
  Basis Set:
  @DF-RHF Final Energy:  -786.27418900158898
    Total Energy =                       -786.2741890015887520
  Basis Set: 6-31G*
  Basis Set:
  Basis Set: 6-31G*
  Basis Set:
  @DF-RHF Final Energy:  -786.27421173964751
    Total Energy =                       -786.2742117396476260
  Basis Set: 6-31G*
  Basis Set:
  Basis Set: 6-31G*
  Basis Set:
  @DF-RHF Final Energy:  -786.27421437850205
    Total Energy =                       -786.2742143785029612
  Basis Set: 6-31G*
  Basis Set:
  Charge       = 0
  Multiplicity = 1
  Basis Set: 6-31G*
  Basis Set:

    Orbital Energies (a.u.)
    -----------------------

    Doubly Occupied:

       1A    -26.363904     2A    -26.362784     3A    -26.362173
       4A    -26.361241     5A    -26.359301     6A    -26.356191
       7A    -20.614756     8A    -11.529456     9A    -11.523518
      10A    -11.349255    11A     -1.765752    12A     -1.757973
      13A     -1.661013    14A     -1.660246    15A     -1.657158
      16A     -1.653635    17A     -1.433371    18A     -1.099411
      19A     -0.996758    20A     -0.937227    21A     -0.866254
      22A     -0.861238    23A     -0.850870    24A     -0.845570
      25A     -0.833651    26A     -0.815390    27A     -0.735973
      28A     -0.731194    29A     -0.725494    30A     -0.722241
      31A     -0.687707    32A     -0.686052    33A     -0.681977
      34A     -0.676005    35A     -0.668822    36A     -0.662345
      37A     -0.657082    38A     -0.649378    39A     -0.618672
      40A     -0.551112    41A     -0.504676

  @DF-RHF Final Energy:  -786.27421469258331

   => Energetics <=

    Nuclear Repulsion Energy =            669.7191675679404170
    One-Electron Energy =               -2426.3131132021462690
    Two-Electron Energy =                 970.3197309416224243
    DFT Exchange-Correlation Energy =       0.0000000000000000
    Empirical Dispersion Energy =           0.0000000000000000
    PCM Polarization Energy =               0.0000000000000000
    EFP Energy =                            0.0000000000000000
    Total Energy =                       -786.2742146925833140
    Molecular point group: c1
  Basis Set: 6-31G*
  Basis Set:

  -Total Gradient:
     Atom            X                  Y                   Z
    ------   -----------------  -----------------  -----------------
       1       -0.000001302228    -0.000001727026     0.000004205472
       2        0.000034637890    -0.000012099419    -0.000013175947
       3        0.002919984922    -0.004573873033     0.001507777136
       4       -0.001482952815    -0.000972702373    -0.005003204528
       5        0.000018165708    -0.000002004404    -0.000063609279
       6       -0.002209517471     0.004159327516    -0.000221474781
       7        0.000751909984     0.001431685921     0.003663580423
       8        0.000002915192     0.000000237483     0.000077025693
       9        0.000018775839    -0.000045596602    -0.000002604120
      10       -0.000012386368     0.000023860853    -0.000004280474
      11       -0.000020797976     0.000013588521     0.000034902353
      12       -0.000019432681    -0.000020697443     0.000020858055

  **** Optimization is complete! (in 7 steps) ****
    Final optimized geometry and variables:
    Molecular point group: c1

    Geometry (in Angstrom), charge = 0, multiplicity = 1:

    H           -0.101420610648     2.022238779766     0.673304135521
    O            0.015966618513     1.887199546774    -0.259099481348
    C            0.007021425466     0.538716876956    -0.562253970774
    C           -1.280691243575    -0.125995756103    -0.038049962904
    C            1.283015124920    -0.123680570770    -0.058696103691
    H           -0.008522063182     0.477543488150    -1.639596656659
    F           -1.086552979813    -1.357940004468     0.386076123629
    F           -1.767234138138     0.558893130287     0.984616053702
    F           -2.201484446163    -0.153780505530    -0.977895035141
    F            2.332482338957     0.539133827700    -0.492872287910
    F            1.388134833671    -1.367280322771    -0.478952087011
    F            1.321141392536    -0.123050633991     1.264670555913

  Mulliken Charges: (a.u.)
   Center  Symbol    Alpha    Beta     Spin     Total
       1     H     0.26552  0.26552  0.00000  0.46897
       2     O     4.36160  4.36160  0.00000 -0.72320
       3     C     3.06590  3.06590  0.00000 -0.13180
       4     C     2.43509  2.43509  0.00000  1.12982
       5     C     2.43857  2.43857  0.00000  1.12287
       6     H     0.37226  0.37226  0.00000  0.25548
       7     F     4.67312  4.67312  0.00000 -0.34623
       8     F     4.68052  4.68052  0.00000 -0.36103
       9     F     4.67539  4.67539  0.00000 -0.35078
      10     F     4.67439  4.67439  0.00000 -0.34878
      11     F     4.67580  4.67580  0.00000 -0.35160
      12     F     4.68186  4.68186  0.00000 -0.36372

   Total alpha = 41.00000, Total beta = 41.00000, Total charge = -0.00000
