  ==> Input File <==

--------------------------------------------------------------------------
set {
	reference rhf
	basis cc-pvtz
}

set_num_threads( 4 )
memory 2 gb

molecule MOL {
0 1

H	 -2.816458	 -0.841657	 -0.064679
N	 -1.878861	 -0.711874	 0.250184
C	 -1.341419	 0.551458	 -0.220231
H	 -1.333674	 -1.468530	 -0.105118
C	 0.082190	 0.731516	 0.254705
H	 -1.357065	 0.652078	 -1.304747
H	 -1.939897	 1.357530	 0.189797
O	 0.881195	 -0.248324	 -0.336237
H	 0.440901	 1.722476	 -0.020063
H	 0.119896	 0.643586	 1.338114
C	 0.183284	 -1.350671	 -0.812654
H	 0.898869	 -2.037211	 -1.241590
H	 -0.351798	 -1.858580	 -0.013022
H	 -0.533397	 -1.066739	 -1.579670

	symmetry c1
}
set optking {
	frozen_dihedral = ("
		11 8 5 3
	")
}

ee = optimize('scf')
oeprop('DIPOLE', 'QUADRUPOLE', 'MULLIKEN_CHARGES')
f=open( 'psi4out.xyz', 'w' )
f.write( "14  " )
f.write( str(ee) + "\n" )
f.write( MOL.save_string_xyz() )
f.close()
--------------------------------------------------------------------------

    Molecular point group: c1
  Charge       = 0
  Multiplicity = 1
  Basis Set: CC-PVTZ
  Basis Set:
  @DF-RHF Final Energy:  -248.13769189377973
    Total Energy =                       -248.1376918937797313
    Molecular point group: c1
  Basis Set: CC-PVTZ
  Basis Set:
  Basis Set: CC-PVTZ
  Basis Set:
  @DF-RHF Final Energy:  -248.19054945423090
    Total Energy =                       -248.1905494542309043
  Basis Set: CC-PVTZ
  Basis Set:
  Basis Set: CC-PVTZ
  Basis Set:
  @DF-RHF Final Energy:  -248.20482749330753
    Total Energy =                       -248.2048274933074481
  Basis Set: CC-PVTZ
  Basis Set:
  Basis Set: CC-PVTZ
  Basis Set:
  @DF-RHF Final Energy:  -248.20882596555057
    Total Energy =                       -248.2088259655504316
  Basis Set: CC-PVTZ
  Basis Set:
  @DF-RHF Final Energy:  -248.21100454531069
    Total Energy =                       -248.2110045453106295
  @DF-RHF Final Energy:  -248.21189979557346
    Total Energy =                       -248.2118997955735722
  @DF-RHF Final Energy:  -248.21209196834977
    Total Energy =                       -248.2120919683499096
  @DF-RHF Final Energy:  -248.21214361329541
    Total Energy =                       -248.2121436132953249
  @DF-RHF Final Energy:  -248.21217027209806
    Total Energy =                       -248.2121702720978647
  @DF-RHF Final Energy:  -248.21217667920681
    Total Energy =                       -248.2121766792069479
  @DF-RHF Final Energy:  -248.21217771695899
    Total Energy =                       -248.2121777169588768
  @DF-RHF Final Energy:  -248.20456153513032
    Total Energy =                       -248.2045615351303240
  @DF-RHF Final Energy:  -248.21102294544443
    Total Energy =                       -248.2110229454442560
  @DF-RHF Final Energy:  -248.21207544027754
    Total Energy =                       -248.2120754402775447
  Basis Set: CC-PVTZ
  Basis Set:
  @DF-RHF Final Energy:  -248.21215711610864
    Total Energy =                       -248.2121571161088696
  Basis Set: CC-PVTZ
  Basis Set:
  Basis Set: CC-PVTZ
  Basis Set:
  @DF-RHF Final Energy:  -248.21217228678591
    Total Energy =                       -248.2121722867858580
  Basis Set: CC-PVTZ
  Basis Set:
  Basis Set: CC-PVTZ
  Basis Set:
  @DF-RHF Final Energy:  -248.21217751542648
    Total Energy =                       -248.2121775154264469
  Basis Set: CC-PVTZ
  Basis Set:
  Charge       = 0
  Multiplicity = 1
  Basis Set: CC-PVTZ
  Basis Set:

    Orbital Energies (a.u.)
    -----------------------

    Doubly Occupied:

       1A    -20.541661     2A    -15.535321     3A    -11.263421
       4A    -11.262313     5A    -11.249129     6A     -1.371548
       7A     -1.185165     8A     -1.003471     9A     -0.921634
      10A     -0.806012    11A     -0.690542    12A     -0.674802
      13A     -0.641183    14A     -0.619238    15A     -0.607179
      16A     -0.548389    17A     -0.536078    18A     -0.518800
      19A     -0.455412    20A     -0.409008    21A     -0.392259

  @DF-RHF Final Energy:  -248.21217783584171

   => Energetics <=

    Nuclear Repulsion Energy =            197.0297172306426319
    One-Electron Energy =                -728.0186625633399444
    Two-Electron Energy =                 282.7767674968554843
    DFT Exchange-Correlation Energy =       0.0000000000000000
    Empirical Dispersion Energy =           0.0000000000000000
    PCM Polarization Energy =               0.0000000000000000
    EFP Energy =                            0.0000000000000000
    Total Energy =                       -248.2121778358418283
    Molecular point group: c1
  Basis Set: CC-PVTZ
  Basis Set:

  -Total Gradient:
     Atom            X                  Y                   Z
    ------   -----------------  -----------------  -----------------
       1        0.000004722413     0.000002139181    -0.000009709778
       2        0.000011700496     0.000011038164    -0.000007172744
       3       -0.000560773605    -0.001924028163     0.002154602946
       4        0.000002754009     0.000025534961     0.000012272222
       5        0.000739614786     0.003685856692    -0.004793839282
       6       -0.000008635493    -0.000001109769    -0.000012057729
       7        0.000001441130    -0.000012284401     0.000012311506
       8        0.000035027589    -0.003319142944     0.005553633715
       9       -0.000010078364     0.000002061120     0.000004325466
      10        0.000010517141    -0.000004874019     0.000007570221
      11       -0.000227789616     0.001541061247    -0.002920685686
      12       -0.000004044828    -0.000005307738    -0.000001501998
      13        0.000004794661    -0.000003420411    -0.000002047479
      14        0.000000749682     0.000002476082     0.000002298619

  **** Optimization is complete! (in 18 steps) ****
    Final optimized geometry and variables:
    Molecular point group: c1

    Geometry (in Angstrom), charge = 0, multiplicity = 1:

    H           -2.722197894959    -0.139774123678     0.492845166650
    N           -1.740637279736    -0.299149442095     0.568285152689
    C           -0.997442401803     0.793684256085    -0.039261072957
    H           -1.551412924455    -1.173536907301     0.130626950904
    C            0.455631571009     0.874570701151     0.407674298357
    H           -1.056397195996     0.808880125612    -1.126676538474
    H           -1.451933074464     1.716582857193     0.302288461716
    O            1.381127488091    -0.029084009938    -0.142126313097
    H            0.829696408557     1.860836987202     0.160898546768
    H            0.470672074483     0.770887201477     1.488245208942
    C            0.969781555935    -1.213916821218    -0.735765451724
    H            1.849721941675    -1.668221565227    -1.168418507956
    H            0.551879724813    -1.911027522050    -0.013511449812
    H            0.249725393714    -1.056281928752    -1.532603049705

  Mulliken Charges: (a.u.)
   Center  Symbol    Alpha    Beta     Spin     Total
       1     H     0.42722  0.42722  0.00000  0.14556
       2     N     3.68780  3.68780  0.00000 -0.37560
       3     C     3.06481  3.06481  0.00000 -0.12963
       4     H     0.42825  0.42825  0.00000  0.14351
       5     C     2.95844  2.95844  0.00000  0.08311
       6     H     0.45577  0.45577  0.00000  0.08847
       7     H     0.44733  0.44733  0.00000  0.10534
       8     O     4.18179  4.18179  0.00000 -0.36358
       9     H     0.46119  0.46119  0.00000  0.07763
      10     H     0.46621  0.46621  0.00000  0.06758
      11     C     3.03635  3.03635  0.00000 -0.07270
      12     H     0.44196  0.44196  0.00000  0.11608
      13     H     0.47011  0.47011  0.00000  0.05977
      14     H     0.47277  0.47277  0.00000  0.05446

   Total alpha = 21.00000, Total beta = 21.00000, Total charge =  0.00000
