  ==> Input File <==

--------------------------------------------------------------------------
set {
	reference rhf
	basis 6-31G*
}

set_num_threads( 1 )
memory 2 gb

molecule MOL {
0 1

H	 -2.644465	 1.541790	 2.007177
C	 -2.482748	 0.580574	 1.559324
C	 -1.411393	 0.370527	 0.829886
H	 -3.211128	 -0.191161	 1.723029
O	 -1.180634	 -0.819263	 0.215062
H	 -0.666537	 1.127784	 0.659747
C	 0.051604	 -1.018856	 -0.387932
C	 1.043764	 0.054862	 -0.001873
H	 -0.017620	 -1.041351	 -1.469781
H	 0.437898	 -1.966374	 -0.042284
F	 2.212596	 -0.199467	 -0.571921
F	 0.652529	 1.252447	 -0.405055
F	 1.230877	 0.110694	 1.300533

	symmetry c1
}
set optking {
	frozen_dihedral = ("
		11 8 7 9,
		6 3 2 1,
		6 3 5 7
	")
}

ee = energy('scf')
oeprop('DIPOLE', 'QUADRUPOLE', 'MULLIKEN_CHARGES')
f=open( 'psi4out.xyz', 'w' )
f.write( "13  " )
f.write( str(ee) + "\n" )
f.write( MOL.save_string_xyz() )
f.close()
--------------------------------------------------------------------------

    Molecular point group: c1

    Geometry (in Angstrom), charge = 0, multiplicity = 1:

       Center              X                  Y                   Z               Mass
    ------------   -----------------  -----------------  -----------------  -----------------
           H         -2.796798545358     1.475807410323     1.717718541710     1.007825032070
           C         -2.635081545358     0.514591410323     1.269865541710    12.000000000000
           C         -1.563726545358     0.304544410323     0.540427541710    12.000000000000
           H         -3.363461545358    -0.257143589677     1.433570541710     1.007825032070
           O         -1.332967545358    -0.885245589677    -0.074396458290    15.994914619560
           H         -0.818870545358     1.061801410323     0.370288541710     1.007825032070
           C         -0.100729545358    -1.084838589677    -0.677390458290    12.000000000000
           C          0.891430454642    -0.011120589677    -0.291331458290    12.000000000000
           H         -0.169953545358    -1.107333589677    -1.759239458290     1.007825032070
           H          0.285564454642    -2.032356589677    -0.331742458290     1.007825032070
           F          2.060262454642    -0.265449589677    -0.861379458290    18.998403224000
           F          0.500195454642     1.186464410323    -0.694513458290    18.998403224000
           F          1.078543454642     0.044711410323     1.011074541710    18.998403224000

  Charge       = 0
  Multiplicity = 1
  Basis Set: 6-31G*
  Basis Set:

    Orbital Energies (a.u.)
    -----------------------

    Doubly Occupied:

       1A    -26.361751     2A    -26.356807     3A    -26.355087
       4A    -20.602688     5A    -11.517882     6A    -11.320204
       7A    -11.282248     8A    -11.204515     9A     -1.759851
      10A     -1.659964    11A     -1.652815    12A     -1.435257
      13A     -1.082895    14A     -1.017356    15A     -0.936233
      16A     -0.866960    17A     -0.848093    18A     -0.836158
      19A     -0.764536    20A     -0.734048    21A     -0.721865
      22A     -0.711300    23A     -0.688857    24A     -0.664059
      25A     -0.660901    26A     -0.660138    27A     -0.645582
      28A     -0.581046    29A     -0.552822    30A     -0.526306
      31A     -0.494736    32A     -0.341084

  @DF-RHF Final Energy:  -527.50795535931991

   => Energetics <=

    Nuclear Repulsion Energy =            425.5467401212043796
    One-Electron Energy =               -1574.4212263105096099
    Two-Electron Energy =                 621.3665308299854360
    DFT Exchange-Correlation Energy =       0.0000000000000000
    Empirical Dispersion Energy =           0.0000000000000000
    PCM Polarization Energy =               0.0000000000000000
    EFP Energy =                            0.0000000000000000
    Total Energy =                       -527.5079553593196806

  Mulliken Charges: (a.u.)
   Center  Symbol    Alpha    Beta     Spin     Total
       1     H     0.40898  0.40898  0.00000  0.18205
       2     C     3.24322  3.24322  0.00000 -0.48645
       3     C     2.91522  2.91522  0.00000  0.16957
       4     H     0.40675  0.40675  0.00000  0.18650
       5     O     4.31536  4.31536  0.00000 -0.63071
       6     H     0.37142  0.37142  0.00000  0.25716
       7     C     3.01560  3.01560  0.00000 -0.03120
       8     C     2.49368  2.49368  0.00000  1.01264
       9     H     0.40173  0.40173  0.00000  0.19654
      10     H     0.39704  0.39704  0.00000  0.20592
      11     F     4.68094  4.68094  0.00000 -0.36188
      12     F     4.67687  4.67687  0.00000 -0.35373
      13     F     4.67321  4.67321  0.00000 -0.34641

   Total alpha = 32.00000, Total beta = 32.00000, Total charge = -0.00000
