  ==> Input File <==

--------------------------------------------------------------------------
set {
	reference rhf
	basis 6-31G*
}

set_num_threads( 4 )
memory 2 gb

molecule MOL {
0 1

O	 -0.046963	 0.418377	 1.942826
C	 0.128944	 -0.325626	 1.032189
C	 1.301064	 -1.266807	 0.888735
O	 -0.698257	 -0.426125	 0.001050
C	 2.279654	 -1.184236	 2.053427
H	 1.788535	 -1.037426	 -0.054135
H	 0.900685	 -2.270280	 0.779171
H	 2.688951	 -0.185845	 2.148596
H	 3.100357	 -1.877326	 1.902139
H	 1.793154	 -1.430166	 2.989461
C	 -1.853104	 0.406779	 0.000512
C	 -3.066105	 -0.499277	 -0.000959
H	 -1.828410	 1.043074	 -0.873618
H	 -1.829857	 1.042383	 0.875188
H	 -3.071820	 -1.133106	 -0.880383
H	 -3.972708	 0.097145	 -0.001528
H	 -3.073405	 -1.133813	 0.877999

	symmetry c1
}
set optking {
	frozen_dihedral = ("
		2 4 11 13
	")
}

ee = optimize('scf')
oeprop('DIPOLE', 'QUADRUPOLE', 'MULLIKEN_CHARGES')
f=open( 'psi4out.xyz', 'w' )
f.write( "17  " )
f.write( str(ee) + "\n" )
f.write( MOL.save_string_xyz() )
f.close()
--------------------------------------------------------------------------

    Molecular point group: c1
  Charge       = 0
  Multiplicity = 1
  Basis Set: 6-31G*
  Basis Set:
  @DF-RHF Final Energy:  -344.90898619312657
    Total Energy =                       -344.9089861931266228
    Molecular point group: c1
  Basis Set: 6-31G*
  Basis Set:
  Basis Set: 6-31G*
  Basis Set:
  @DF-RHF Final Energy:  -344.90940361055897
    Total Energy =                       -344.9094036105590817
  Basis Set: 6-31G*
  Basis Set:
  Basis Set: 6-31G*
  Basis Set:
  @DF-RHF Final Energy:  -344.90980212433197
    Total Energy =                       -344.9098021243322592
  Basis Set: 6-31G*
  Basis Set:
  Basis Set: 6-31G*
  Basis Set:
  @DF-RHF Final Energy:  -344.90985961730973
    Total Energy =                       -344.9098596173099622
  Basis Set: 6-31G*
  Basis Set:
  Basis Set: 6-31G*
  Basis Set:
  @DF-RHF Final Energy:  -344.90997641436917
    Total Energy =                       -344.9099764143695666
  Basis Set: 6-31G*
  Basis Set:
  Basis Set: 6-31G*
  Basis Set:
  @DF-RHF Final Energy:  -344.90999599994421
    Total Energy =                       -344.9099959999448970
  Basis Set: 6-31G*
  Basis Set:
  Charge       = 0
  Multiplicity = 1
  Basis Set: 6-31G*
  Basis Set:

    Orbital Energies (a.u.)
    -----------------------

    Doubly Occupied:

       1A    -20.599953     2A    -20.543915     3A    -11.373024
       4A    -11.283232     5A    -11.237002     6A    -11.221669
       7A    -11.215325     8A     -1.464957     9A     -1.362553
      10A     -1.069387    11A     -1.030406    12A     -0.913413
      13A     -0.850506    14A     -0.767298    15A     -0.701588
      16A     -0.681366    17A     -0.660174    18A     -0.626294
      19A     -0.597864    20A     -0.568370    21A     -0.554456
      22A     -0.530783    23A     -0.520284    24A     -0.514454
      25A     -0.495742    26A     -0.494591    27A     -0.447364
      28A     -0.436715

  @DF-RHF Final Energy:  -344.90999637795034

   => Energetics <=

    Nuclear Repulsion Energy =            315.5598555464701462
    One-Electron Energy =               -1095.4143346743489928
    Two-Electron Energy =                 434.9444827499286816
    DFT Exchange-Correlation Energy =       0.0000000000000000
    Empirical Dispersion Energy =           0.0000000000000000
    PCM Polarization Energy =               0.0000000000000000
    EFP Energy =                            0.0000000000000000
    Total Energy =                       -344.9099963779502218
    Molecular point group: c1
  Basis Set: 6-31G*
  Basis Set:

  -Total Gradient:
     Atom            X                  Y                   Z
    ------   -----------------  -----------------  -----------------
       1        0.000037219458     0.000011391176     0.000014300524
       2        0.000076655673     0.000202215850    -0.000104460663
       3        0.000009408396     0.000022721821    -0.000028240432
       4       -0.000234642127    -0.000249214824     0.000158714402
       5       -0.000010663606     0.000005549281     0.000004870794
       6        0.000002231314    -0.000007239347    -0.000001237587
       7       -0.000007676764     0.000000028714     0.000004327522
       8        0.000002241298     0.000002532190     0.000000665662
       9       -0.000004044108     0.000000167219    -0.000004779610
      10       -0.000000327334     0.000001315920    -0.000003376981
      11       -0.000155989226    -0.000134082857    -0.000183899280
      12        0.000034511063    -0.000051985591    -0.000010597073
      13        0.000225843389     0.000203113952     0.000165125903
      14        0.000016539165     0.000007515045    -0.000005700783
      15       -0.000018023691    -0.000018989605    -0.000007950793
      16        0.000034241756     0.000010296532    -0.000000376376
      17       -0.000007524657    -0.000005335476     0.000002614775

  **** Optimization is complete! (in 7 steps) ****
    Final optimized geometry and variables:
    Molecular point group: c1

    Geometry (in Angstrom), charge = 0, multiplicity = 1:

    O            0.279571157745     0.821956824703     1.129135011355
    C            0.430098368966     0.089825759069     0.204805104312
    C            1.596498576855    -0.853499621605     0.028980971290
    O           -0.411478052800    -0.008034931023    -0.816825285863
    C            2.596360701011    -0.789639392483     1.176599305631
    H            2.067456782084    -0.613309708478    -0.919524913785
    H            1.190445016782    -1.853916663853    -0.086727748094
    H            3.010990920088     0.205948613663     1.277473950349
    H            3.411613308205    -1.483474571253     1.001015742960
    H            2.126278015271    -1.046477057106     2.118091976519
    C           -1.584180787126     0.801951881547    -0.852124773650
    C           -2.808171832242    -0.092294868889    -0.887095061615
    H           -1.512959877300     1.401607428087    -1.750082466688
    H           -1.593457683683     1.456266721594     0.003664081068
    H           -2.767866606898    -0.768708653185    -1.733347808459
    H           -3.706403545554     0.511286223621    -0.972490602952
    H           -2.878412737600    -0.681483088627     0.020721317405

  Mulliken Charges: (a.u.)
   Center  Symbol    Alpha    Beta     Spin     Total
       1     O     4.28589  4.28589  0.00000 -0.57178
       2     C     2.60579  2.60579  0.00000  0.78841
       3     C     3.20571  3.20571  0.00000 -0.41141
       4     O     4.31461  4.31461  0.00000 -0.62923
       5     C     3.23875  3.23875  0.00000 -0.47750
       6     H     0.40063  0.40063  0.00000  0.19874
       7     H     0.40092  0.40092  0.00000  0.19817
       8     H     0.40997  0.40997  0.00000  0.18006
       9     H     0.41839  0.41839  0.00000  0.16322
      10     H     0.41022  0.41022  0.00000  0.17956
      11     C     3.01236  3.01236  0.00000 -0.02473
      12     C     3.24717  3.24717  0.00000 -0.49435
      13     H     0.41366  0.41366  0.00000  0.17268
      14     H     0.39357  0.39357  0.00000  0.21285
      15     H     0.41218  0.41218  0.00000  0.17565
      16     H     0.41749  0.41749  0.00000  0.16501
      17     H     0.41268  0.41268  0.00000  0.17464

   Total alpha = 28.00000, Total beta = 28.00000, Total charge =  0.00000
