  ==> Input File <==

--------------------------------------------------------------------------
set {
	reference rhf
	basis 6-31G*
}

set_num_threads( 1 )
memory 2 gb

molecule MOL {
0 1

O	 -0.682937	 1.318834	 -0.186099
C	 -0.860635	 0.152188	 -0.042321
C	 -2.173363	 -0.477127	 0.338347
O	 0.083258	 -0.765189	 -0.202595
H	 -2.477673	 -1.180929	 -0.427595
H	 -2.923125	 0.290956	 0.455536
H	 -2.058825	 -1.029004	 1.264191
C	 0.121501	 -1.491846	 -1.428689
C	 0.865962	 -0.725855	 -2.506502
H	 -0.887212	 -1.721848	 -1.736486
H	 0.633560	 -2.411055	 -1.183030
H	 0.944153	 -1.334604	 -3.402069
H	 0.343774	 0.187869	 -2.761057
H	 1.868303	 -0.477548	 -2.174733

	symmetry c1
}
set optking {
	frozen_dihedral = ("
		10 8 4 2
	")
}

ee = energy('scf')
oeprop('DIPOLE', 'QUADRUPOLE', 'MULLIKEN_CHARGES')
f=open( 'psi4out.xyz', 'w' )
f.write( "14  " )
f.write( str(ee) + "\n" )
f.write( MOL.save_string_xyz() )
f.close()
--------------------------------------------------------------------------

    Molecular point group: c1

    Geometry (in Angstrom), charge = 0, multiplicity = 1:

       Center              X                  Y                   Z               Mass
    ------------   -----------------  -----------------  -----------------  -----------------
           O         -0.242938482647     1.652639721040     0.494521955406    15.994914619560
           C         -0.420636482647     0.485993721040     0.638299955406    12.000000000000
           C         -1.733364482647    -0.143321278960     1.018967955406    12.000000000000
           O          0.523256517353    -0.431383278960     0.478025955406    15.994914619560
           H         -2.037674482647    -0.847123278960     0.253025955406     1.007825032070
           H         -2.483126482647     0.624761721040     1.136156955406     1.007825032070
           H         -1.618826482647    -0.695198278960     1.944811955406     1.007825032070
           C          0.561499517353    -1.158040278960    -0.748068044594    12.000000000000
           C          1.305960517353    -0.392049278960    -1.825881044594    12.000000000000
           H         -0.447213482647    -1.388042278960    -1.055865044594     1.007825032070
           H          1.073558517353    -2.077249278960    -0.502409044594     1.007825032070
           H          1.384151517353    -1.000798278960    -2.721448044594     1.007825032070
           H          0.783772517353     0.521674721040    -2.080436044594     1.007825032070
           H          2.308301517353    -0.143742278960    -1.494112044594     1.007825032070

  Charge       = 0
  Multiplicity = 1
  Basis Set: 6-31G*
  Basis Set:

    Orbital Energies (a.u.)
    -----------------------

    Doubly Occupied:

       1A    -20.585901     2A    -20.554218     3A    -11.376653
       4A    -11.301243     5A    -11.234733     6A    -11.223543
       7A     -1.462260     8A     -1.367676     9A     -1.051219
      10A     -1.008459    11A     -0.890362    12A     -0.772305
      13A     -0.692881    14A     -0.683950    15A     -0.671632
      16A     -0.606260    17A     -0.596343    18A     -0.582596
      19A     -0.551950    20A     -0.544728    21A     -0.521494
      22A     -0.481895    23A     -0.454088    24A     -0.437141

  @DF-RHF Final Energy:  -305.85281175743808

   => Energetics <=

    Nuclear Repulsion Energy =            248.8690505733507052
    One-Electron Energy =                -910.1367887796110381
    Two-Electron Energy =                 355.4149264488220297
    DFT Exchange-Correlation Energy =       0.0000000000000000
    Empirical Dispersion Energy =           0.0000000000000000
    PCM Polarization Energy =               0.0000000000000000
    EFP Energy =                            0.0000000000000000
    Total Energy =                       -305.8528117574383032

  Mulliken Charges: (a.u.)
   Center  Symbol    Alpha    Beta     Spin     Total
       1     O     4.25648  4.25648  0.00000 -0.51296
       2     C     2.63046  2.63046  0.00000  0.73909
       3     C     3.28721  3.28721  0.00000 -0.57441
       4     O     4.30900  4.30900  0.00000 -0.61799
       5     H     0.40780  0.40780  0.00000  0.18439
       6     H     0.39793  0.39793  0.00000  0.20415
       7     H     0.39846  0.39846  0.00000  0.20308
       8     C     3.00778  3.00778  0.00000 -0.01557
       9     C     3.24763  3.24763  0.00000 -0.49526
      10     H     0.42138  0.42138  0.00000  0.15725
      11     H     0.40467  0.40467  0.00000  0.19066
      12     H     0.41942  0.41942  0.00000  0.16117
      13     H     0.40623  0.40623  0.00000  0.18755
      14     H     0.40557  0.40557  0.00000  0.18887

   Total alpha = 24.00000, Total beta = 24.00000, Total charge = -0.00000
