  ==> Input File <==

--------------------------------------------------------------------------
set {
	reference rhf
	basis 6-31G*
}

set_num_threads( 4 )
memory 2 gb

molecule MOL {
0 1

H	 -0.395379	 1.322080	 -0.996932
O	 0.055946	 1.300438	 -0.164479
C	 0.004957	 -0.004114	 0.366649
C	 1.201664	 -0.828089	 -0.095740
C	 -1.317755	 -0.601827	 -0.081511
H	 0.013527	 0.048298	 1.454924
H	 1.216388	 -0.895289	 -1.178704
H	 2.135132	 -0.372895	 0.226467
H	 1.166770	 -1.832878	 0.313827
H	 -1.355732	 -0.658248	 -1.164429
H	 -2.141614	 0.017037	 0.254547
H	 -1.447303	 -1.600817	 0.322594

	symmetry c1
}
set optking {
	frozen_dihedral = ("
		1 2 3 4
	")
}

ee = optimize('scf')
oeprop('DIPOLE', 'QUADRUPOLE', 'MULLIKEN_CHARGES')
f=open( 'psi4out.xyz', 'w' )
f.write( "12  " )
f.write( str(ee) + "\n" )
f.write( MOL.save_string_xyz() )
f.close()
--------------------------------------------------------------------------

    Molecular point group: c1
  Charge       = 0
  Multiplicity = 1
  Basis Set: 6-31G*
  Basis Set:
  @DF-RHF Final Energy:  -193.11179603588852
    Total Energy =                       -193.1117960358884886
    Molecular point group: c1
  Basis Set: 6-31G*
  Basis Set:
  Basis Set: 6-31G*
  Basis Set:
  @DF-RHF Final Energy:  -193.11356751563423
    Total Energy =                       -193.1135675156342018
  Basis Set: 6-31G*
  Basis Set:
  Basis Set: 6-31G*
  Basis Set:
  @DF-RHF Final Energy:  -193.11400356633195
    Total Energy =                       -193.1140035663318599
  Basis Set: 6-31G*
  Basis Set:
  Basis Set: 6-31G*
  Basis Set:
  @DF-RHF Final Energy:  -193.11400821304071
    Total Energy =                       -193.1140082130407336
  Basis Set: 6-31G*
  Basis Set:
  Charge       = 0
  Multiplicity = 1
  Basis Set: 6-31G*
  Basis Set:

    Orbital Energies (a.u.)
    -----------------------

    Doubly Occupied:

       1A    -20.550111     2A    -11.275436     3A    -11.217959
       4A    -11.208337     5A     -1.359530     6A     -1.042045
       7A     -0.942345     8A     -0.817132     9A     -0.660682
      10A     -0.646629    11A     -0.604090    12A     -0.569300
      13A     -0.546162    14A     -0.515551    15A     -0.512035
      16A     -0.465416    17A     -0.429278

  @DF-RHF Final Energy:  -193.11400859675899

   => Energetics <=

    Nuclear Repulsion Energy =            135.3269509748072323
    One-Electron Energy =                -530.1578440021801271
    Two-Electron Energy =                 201.7168844306140443
    DFT Exchange-Correlation Energy =       0.0000000000000000
    Empirical Dispersion Energy =           0.0000000000000000
    PCM Polarization Energy =               0.0000000000000000
    EFP Energy =                            0.0000000000000000
    Total Energy =                       -193.1140085967588504
    Molecular point group: c1
  Basis Set: 6-31G*
  Basis Set:

  -Total Gradient:
     Atom            X                  Y                   Z
    ------   -----------------  -----------------  -----------------
       1       -0.001755213015     0.000427920095     0.000888097942
       2        0.002386875627    -0.000432011725    -0.000672073684
       3       -0.001240158089    -0.000297385878    -0.001319089916
       4        0.000602916161     0.000326197956     0.001073809661
       5       -0.000020100003     0.000021468374    -0.000011077590
       6       -0.000006175034    -0.000030988034     0.000003130008
       7       -0.000016203538     0.000005625316     0.000015374303
       8        0.000019537521    -0.000005015415    -0.000012646775
       9        0.000012801278    -0.000004351976     0.000004368401
      10        0.000013010971     0.000015596282     0.000029956853
      11        0.000006390289    -0.000005834646    -0.000014655280
      12       -0.000003682168    -0.000021220357     0.000014806077

  **** Optimization is complete! (in 5 steps) ****
    Final optimized geometry and variables:
    Molecular point group: c1

    Geometry (in Angstrom), charge = 0, multiplicity = 1:

    H           -0.284554763511     1.404648375132    -0.960915922060
    O            0.119149943123     1.328146607515    -0.107583106136
    C            0.006260124021     0.000417965422     0.355164456994
    C            1.211302316606    -0.819750546691    -0.090131233079
    C           -1.319595590060    -0.621583642218    -0.065919610006
    H            0.023596053829     0.077362355283     1.436486466477
    H            1.232938775549    -0.916953056742    -1.172747584797
    H            2.127673377911    -0.332120891178     0.221643041059
    H            1.187714661612    -1.817697506148     0.338025580255
    H           -1.376506400019    -0.714262464208    -1.149011499997
    H           -2.149933340412    -0.008315176643     0.267891506203
    H           -1.437033196951    -1.614569488393     0.355238688968

  Mulliken Charges: (a.u.)
   Center  Symbol    Alpha    Beta     Spin     Total
       1     H     0.28318  0.28318  0.00000  0.43364
       2     O     4.37443  4.37443  0.00000 -0.74886
       3     C     2.91230  2.91230  0.00000  0.17540
       4     C     3.24091  3.24091  0.00000 -0.48182
       5     C     3.25841  3.25841  0.00000 -0.51682
       6     H     0.41761  0.41761  0.00000  0.16478
       7     H     0.42584  0.42584  0.00000  0.14832
       8     H     0.41061  0.41061  0.00000  0.17878
       9     H     0.42407  0.42407  0.00000  0.15185
      10     H     0.42550  0.42550  0.00000  0.14900
      11     H     0.41102  0.41102  0.00000  0.17796
      12     H     0.41611  0.41611  0.00000  0.16777

   Total alpha = 17.00000, Total beta = 17.00000, Total charge =  0.00000
