  ==> Input File <==

--------------------------------------------------------------------------
set {
	reference rhf
	basis 6-31G*
}

set_num_threads( 4 )
memory 2 gb

molecule MOL {
0 1

H	 -2.602702	 0.676560	 0.353332
O	 -2.315789	 -0.143634	 -0.024262
C	 -0.945151	 -0.064130	 -0.333158
H	 -0.813375	 -0.223047	 -1.403232
C	 -0.232801	 -1.184051	 0.407206
C	 -0.355424	 1.302939	 0.054523
H	 -0.318824	 -0.992899	 1.473524
H	 -0.742411	 -2.122033	 0.217954
C	 1.248522	 -1.270719	 -0.013048
H	 -0.546144	 2.018388	 -0.742941
H	 -0.890929	 1.656788	 0.930149
C	 1.156425	 1.235120	 0.355905
H	 1.825384	 -1.683246	 0.809111
H	 1.357782	 -1.965923	 -0.840362
C	 1.828244	 0.099899	 -0.419275
H	 1.626109	 2.185622	 0.123525
H	 1.309438	 1.071213	 1.419539
H	 2.901447	 0.112642	 -0.255830
H	 1.681817	 0.263413	 -1.484607

	symmetry c1
}
set optking {
	frozen_dihedral = ("
		1 2 3 4
	")
}

ee = optimize('scf')
oeprop('DIPOLE', 'QUADRUPOLE', 'MULLIKEN_CHARGES')
f=open( 'psi4out.xyz', 'w' )
f.write( "19  " )
f.write( str(ee) + "\n" )
f.write( MOL.save_string_xyz() )
f.close()
--------------------------------------------------------------------------

    Molecular point group: c1
  Charge       = 0
  Multiplicity = 1
  Basis Set: 6-31G*
  Basis Set:
  @DF-RHF Final Energy:  -309.04557822496474
    Total Energy =                       -309.0455782249651406
    Molecular point group: c1
  Basis Set: 6-31G*
  Basis Set:
  Basis Set: 6-31G*
  Basis Set:
  @DF-RHF Final Energy:  -309.04605038988478
    Total Energy =                       -309.0460503898844991
  Basis Set: 6-31G*
  Basis Set:
  Basis Set: 6-31G*
  Basis Set:
  @DF-RHF Final Energy:  -309.04617648649082
    Total Energy =                       -309.0461764864905945
  Basis Set: 6-31G*
  Basis Set:
  Basis Set: 6-31G*
  Basis Set:
  @DF-RHF Final Energy:  -309.04617969169516
    Total Energy =                       -309.0461796916951016
  Basis Set: 6-31G*
  Basis Set:
  Charge       = 0
  Multiplicity = 1
  Basis Set: 6-31G*
  Basis Set:

    Orbital Energies (a.u.)
    -----------------------

    Doubly Occupied:

       1A    -20.547228     2A    -11.268725     3A    -11.222702
       4A    -11.221413     5A    -11.217751     6A    -11.215728
       7A    -11.207536     8A     -1.356718     9A     -1.110722
      10A     -1.005009    11A     -0.989213    12A     -0.846620
      13A     -0.840654    14A     -0.745197    15A     -0.674851
      16A     -0.668386    17A     -0.620105    18A     -0.603293
      19A     -0.581335    20A     -0.551601    21A     -0.528859
      22A     -0.521637    23A     -0.502543    24A     -0.485686
      25A     -0.468664    26A     -0.450201    27A     -0.427635
      28A     -0.410060

  @DF-RHF Final Energy:  -309.04618019374271

   => Energetics <=

    Nuclear Repulsion Energy =            331.3190705040303214
    One-Electron Energy =               -1076.1503616338382017
    Two-Electron Energy =                 435.7851109360649389
    DFT Exchange-Correlation Energy =       0.0000000000000000
    Empirical Dispersion Energy =           0.0000000000000000
    PCM Polarization Energy =               0.0000000000000000
    EFP Energy =                            0.0000000000000000
    Total Energy =                       -309.0461801937428845
    Molecular point group: c1
  Basis Set: 6-31G*
  Basis Set:

  -Total Gradient:
     Atom            X                  Y                   Z
    ------   -----------------  -----------------  -----------------
       1        0.000065020918    -0.000100653811     0.000283566550
       2       -0.000055041869     0.000053269531    -0.000332302249
       3       -0.000018844202     0.000275321017     0.000037226584
       4        0.000035330732    -0.000262427781     0.000037596853
       5       -0.000031715811     0.000012086683    -0.000025880317
       6        0.000012946119    -0.000007443051    -0.000001590928
       7        0.000002007376    -0.000005208875    -0.000004700382
       8        0.000009960028    -0.000008078803     0.000003521813
       9       -0.000013212206    -0.000005385085     0.000032128211
      10        0.000006295284     0.000013175402    -0.000006958549
      11        0.000005841461     0.000012330887    -0.000001360724
      12       -0.000004433088     0.000009034749    -0.000002196055
      13        0.000011148267    -0.000011449677    -0.000002784833
      14       -0.000009248052     0.000002721078    -0.000002285612
      15       -0.000007081123     0.000023646254    -0.000025637634
      16       -0.000003469934     0.000009875337     0.000010958933
      17       -0.000004028096    -0.000000811308     0.000003800554
      18       -0.000011402795    -0.000009047877     0.000004080539
      19        0.000009926987    -0.000000954670    -0.000007182753

  **** Optimization is complete! (in 5 steps) ****
    Final optimized geometry and variables:
    Molecular point group: c1

    Geometry (in Angstrom), charge = 0, multiplicity = 1:

    H           -2.645469710081     0.673962428768     0.287271601106
    O           -2.331531789849    -0.136040116607    -0.085336877274
    C           -0.944106733439    -0.064530578902    -0.323877800001
    H           -0.800162781424    -0.215181489978    -1.390608944892
    C           -0.228883849482    -1.186969937092     0.415651511648
    C           -0.356037169924     1.299250990194     0.070128987281
    H           -0.309176665844    -0.999891482598     1.484038907880
    H           -0.740991605474    -2.123907120793     0.227314191713
    C            1.250500952382    -1.275082258165    -0.012488545257
    H           -0.569490980422     2.022175995885    -0.712624769429
    H           -0.864423488406     1.649114169128     0.967232059869
    C            1.160932157125     1.232391516014     0.347714033733
    H            1.835086722272    -1.680991202678     0.807593200105
    H            1.355912944111    -1.974169924590    -0.836843035559
    C            1.823796098081     0.094648394760    -0.431491920887
    H            1.624733550754     2.182850617202     0.104321725464
    H            1.330168218414     1.072888311528     1.409410781359
    H            2.898455501872     0.110809680112    -0.278785353281
    H            1.666182644870     0.254187806166    -1.495481975404

  Mulliken Charges: (a.u.)
   Center  Symbol    Alpha    Beta     Spin     Total
       1     H     0.27987  0.27987  0.00000  0.44025
       2     O     4.38654  4.38654  0.00000 -0.77307
       3     C     2.89325  2.89325  0.00000  0.21351
       4     H     0.42381  0.42381  0.00000  0.15238
       5     C     3.16779  3.16779  0.00000 -0.33558
       6     C     3.18473  3.18473  0.00000 -0.36946
       7     H     0.42239  0.42239  0.00000  0.15521
       8     H     0.40882  0.40882  0.00000  0.18236
       9     C     3.16159  3.16159  0.00000 -0.32317
      10     H     0.41457  0.41457  0.00000  0.17086
      11     H     0.42386  0.42386  0.00000  0.15228
      12     C     3.16222  3.16222  0.00000 -0.32444
      13     H     0.41811  0.41811  0.00000  0.16377
      14     H     0.41756  0.41756  0.00000  0.16489
      15     C     3.16459  3.16459  0.00000 -0.32919
      16     H     0.41557  0.41557  0.00000  0.16887
      17     H     0.41842  0.41842  0.00000  0.16316
      18     H     0.41605  0.41605  0.00000  0.16789
      19     H     0.42026  0.42026  0.00000  0.15948

   Total alpha = 28.00000, Total beta = 28.00000, Total charge = -0.00000
