  ==> Input File <==

--------------------------------------------------------------------------
set {
	reference rhf
	basis cc-pvtz
}

set_num_threads( 4 )
memory 2 gb

molecule MOL {
0 1

H	 2.396946	 0.158740	 2.081196
O	 1.703928	 0.699725	 1.750867
C	 1.135873	 0.113391	 0.608264
C	 0.027642	 1.012027	 0.090274
H	 0.718490	 -0.860641	 0.850791
H	 1.893057	 -0.039349	 -0.155807
C	 -1.138737	 0.285728	 -0.581921
H	 0.464661	 1.708096	 -0.618252
H	 -0.340737	 1.603071	 0.925246
C	 -1.933983	 -0.631436	 0.343653
H	 -0.763151	 -0.285569	 -1.422081
H	 -1.808359	 1.035291	 -0.992333
H	 -2.789188	 -1.049673	 -0.174718
H	 -1.335629	 -1.461368	 0.700418
H	 -2.305435	 -0.092167	 1.209725

	symmetry c1
}
set optking {
	frozen_dihedral = ("
		2 3 4 8
	")
}

ee = optimize('scf')
oeprop('DIPOLE', 'QUADRUPOLE', 'MULLIKEN_CHARGES')
f=open( 'psi4out.xyz', 'w' )
f.write( "15  " )
f.write( str(ee) + "\n" )
f.write( MOL.save_string_xyz() )
f.close()
--------------------------------------------------------------------------

    Molecular point group: c1
  Charge       = 0
  Multiplicity = 1
  Basis Set: CC-PVTZ
  Basis Set:
  @DF-RHF Final Energy:  -232.23335405259581
    Total Energy =                       -232.2333540525959279
    Molecular point group: c1
  Basis Set: CC-PVTZ
  Basis Set:
  Basis Set: CC-PVTZ
  Basis Set:
  @DF-RHF Final Energy:  -232.23390107920355
    Total Energy =                       -232.2339010792035197
  Basis Set: CC-PVTZ
  Basis Set:
  Basis Set: CC-PVTZ
  Basis Set:
  @DF-RHF Final Energy:  -232.23417939194286
    Total Energy =                       -232.2341793919427460
  Basis Set: CC-PVTZ
  Basis Set:
  Basis Set: CC-PVTZ
  Basis Set:
  @DF-RHF Final Energy:  -232.23422239962946
    Total Energy =                       -232.2342223996293455
  Basis Set: CC-PVTZ
  Basis Set:
  Basis Set: CC-PVTZ
  Basis Set:
  @DF-RHF Final Energy:  -232.23422498951243
    Total Energy =                       -232.2342249895124269
  Basis Set: CC-PVTZ
  Basis Set:
  Basis Set: CC-PVTZ
  Basis Set:
  @DF-RHF Final Energy:  -232.23422717947912
    Total Energy =                       -232.2342271794791486
  Basis Set: CC-PVTZ
  Basis Set:
  Charge       = 0
  Multiplicity = 1
  Basis Set: CC-PVTZ
  Basis Set:

    Orbital Energies (a.u.)
    -----------------------

    Doubly Occupied:

       1A    -20.545399     2A    -11.265145     3A    -11.216000
       4A    -11.209764     5A    -11.206739     6A     -1.362730
       7A     -1.069438     8A     -0.970836     9A     -0.867896
      10A     -0.786527    11A     -0.698844    12A     -0.652306
      13A     -0.619430    14A     -0.576529    15A     -0.556974
      16A     -0.545202    17A     -0.503701    18A     -0.476833
      19A     -0.472665    20A     -0.457965    21A     -0.432863

  @DF-RHF Final Energy:  -232.23422745369206

   => Energetics <=

    Nuclear Repulsion Energy =            188.6079764362952744
    One-Electron Energy =                -688.6968324103202121
    Two-Electron Energy =                 267.8546285203328239
    DFT Exchange-Correlation Energy =       0.0000000000000000
    Empirical Dispersion Energy =           0.0000000000000000
    PCM Polarization Energy =               0.0000000000000000
    EFP Energy =                            0.0000000000000000
    Total Energy =                       -232.2342274536920854
    Molecular point group: c1
  Basis Set: CC-PVTZ
  Basis Set:

  -Total Gradient:
     Atom            X                  Y                   Z
    ------   -----------------  -----------------  -----------------
       1        0.000006124756     0.000000626100     0.000007970363
       2       -0.001922069361    -0.001704428525     0.001720097706
       3        0.002341854257     0.001670431085    -0.002962076199
       4        0.000262167075     0.002428074650     0.004376472577
       5       -0.000009136972     0.000000480387    -0.000001368924
       6        0.000003762844    -0.000003211672     0.000002759377
       7       -0.000002813391    -0.000010292942    -0.000011477914
       8       -0.000684091356    -0.002397200182    -0.003137313991
       9       -0.000000442589     0.000004453786     0.000006081051
      10        0.000002040201     0.000011357952    -0.000007484763
      11        0.000002398067     0.000003032423     0.000004153543
      12       -0.000007754255    -0.000005795648    -0.000002241703
      13       -0.000003439372     0.000001358904    -0.000001887351
      14        0.000008175472     0.000001841546     0.000002929193
      15        0.000003224623    -0.000000727865     0.000003387039

  **** Optimization is complete! (in 7 steps) ****
    Final optimized geometry and variables:
    Molecular point group: c1

    Geometry (in Angstrom), charge = 0, multiplicity = 1:

    H            2.493170745106    -0.126967242617     1.495078942645
    O            1.730226855337     0.367144572906     1.257952092503
    C            1.157796390146    -0.161048693945     0.089096021949
    C           -0.003189476223     0.731558485028    -0.337459336838
    H            0.806162205121    -1.170811682781     0.279672945960
    H            1.894366819982    -0.220872246409    -0.707837680945
    C           -1.121429687858    -0.022962287134    -1.063486682679
    H            0.371295767945     1.500066897973    -1.004391240343
    H           -0.397268260372     1.223322746076     0.543721797501
    C           -2.005083687498    -0.868937325201    -0.149935873064
    H           -0.690460908142    -0.651808082839    -1.839200953842
    H           -1.747152093865     0.698219883509    -1.578778476582
    H           -2.774749046888    -1.377318014344    -0.719510752347
    H           -1.439104563274    -1.625533685911     0.380565698193
    H           -2.497064037953    -0.248415832606     0.591301072270

  Mulliken Charges: (a.u.)
   Center  Symbol    Alpha    Beta     Spin     Total
       1     H     0.39568  0.39568  0.00000  0.20863
       2     O     4.19684  4.19684  0.00000 -0.39367
       3     C     2.96345  2.96345  0.00000  0.07309
       4     C     3.09060  3.09060  0.00000 -0.18120
       5     H     0.47604  0.47604  0.00000  0.04791
       6     H     0.47158  0.47158  0.00000  0.05683
       7     C     3.09861  3.09861  0.00000 -0.19723
       8     H     0.45077  0.45077  0.00000  0.09846
       9     H     0.44821  0.44821  0.00000  0.10358
      10     C     3.14702  3.14702  0.00000 -0.29403
      11     H     0.45609  0.45609  0.00000  0.08782
      12     H     0.44785  0.44785  0.00000  0.10429
      13     H     0.44830  0.44830  0.00000  0.10340
      14     H     0.45559  0.45559  0.00000  0.08881
      15     H     0.45334  0.45334  0.00000  0.09331

   Total alpha = 21.00000, Total beta = 21.00000, Total charge = -0.00000
