                              Psi4 1.0.54 Driver

  ==> Input File <==

--------------------------------------------------------------------------
set {
	reference rhf
	basis cc-pvtz
}

set_num_threads( 4 )
memory 2 gb

molecule MOL {
0 1

H	 -2.408652	 -0.002798	 0.740003
N	 -1.851927	 0.161443	 -0.071573
C	 -0.561396	 -0.500007	 0.035200
H	 -1.739785	 1.150121	 -0.156879
C	 0.575129	 0.507849	 -0.048832
H	 -0.478089	 -1.200753	 -0.788956
H	 -0.456191	 -1.081816	 0.952176
C	 1.951750	 -0.141983	 0.035101
H	 0.478254	 1.061643	 -0.975981
H	 0.467676	 1.231891	 0.755499
H	 2.101550	 -0.848142	 -0.774949
H	 2.738260	 0.600794	 -0.026526
H	 2.078939	 -0.679792	 0.968824

	symmetry c1
}
set optking {
	frozen_dihedral = ("
		1 2 3 6
	")
}

ee,wfn = optimize('scf', return_wfn=True)
oeprop( wfn, 'DIPOLE', 'QUADRUPOLE', 'MULLIKEN_CHARGES')
f=open( 'psi4out.xyz', 'w' )
f.write( "13  " )
f.write( str(ee) + "\n" )
f.write( MOL.save_string_xyz() )
f.close()
--------------------------------------------------------------------------

    Molecular point group: c1
  Charge       = 0
  Multiplicity = 1
  Basis Set: CC-PVTZ
  Basis Set:
  @DF-RHF Final Energy:  -173.34803506599729
    Total Energy =                       -173.3480350659973226
    Molecular point group: c1
  Basis Set: CC-PVTZ
  Basis Set:
  Basis Set: CC-PVTZ
  Basis Set:
  @DF-RHF Final Energy:  -173.34870911132791
    Total Energy =                       -173.3487091113279064
  Basis Set: CC-PVTZ
  Basis Set:
  Basis Set: CC-PVTZ
  Basis Set:
  @DF-RHF Final Energy:  -173.34882327847939
    Total Energy =                       -173.3488232784796139
  Basis Set: CC-PVTZ
  Basis Set:
  Basis Set: CC-PVTZ
  Basis Set:
  @DF-RHF Final Energy:  -173.34883328324182
    Total Energy =                       -173.3488332832418450
  Basis Set: CC-PVTZ
  Basis Set:
  Charge       = 0
  Multiplicity = 1
  Basis Set: CC-PVTZ
  Basis Set:

    Orbital Energies (a.u.)
    -----------------------

    Doubly Occupied:

       1A    -15.523196     2A    -11.238160     3A    -11.216305
       4A    -11.210113     5A     -1.175222     6A     -1.038877
       7A     -0.900575     8A     -0.807588     9A     -0.665066
      10A     -0.625177    11A     -0.606429    12A     -0.555142
      13A     -0.545085    14A     -0.499992    15A     -0.483613
      16A     -0.471087    17A     -0.377266

  @DF-RHF Final Energy:  -173.34883527227274

   => Energetics <=

    Nuclear Repulsion Energy =            131.9168065696074734
    One-Electron Energy =                -494.6534964118997095
    Two-Electron Energy =                 189.3878545700194991
    DFT Exchange-Correlation Energy =       0.0000000000000000
    Empirical Dispersion Energy =           0.0000000000000000
    PCM Polarization Energy =               0.0000000000000000
    EFP Energy =                            0.0000000000000000
    Total Energy =                       -173.3488352722727086
    Molecular point group: c1
  Basis Set: CC-PVTZ
  Basis Set:

  -Total Gradient:
     Atom            X                  Y                   Z
    ------   -----------------  -----------------  -----------------
       1       -0.000225749468    -0.000543411115    -0.000235052506
       2        0.000055549381     0.000686420251     0.000302551641
       3        0.000446245461     0.000355323037    -0.000395529490
       4        0.000009671023    -0.000021417204    -0.000007289585
       5       -0.000149294266    -0.000058709582     0.000025815454
       6       -0.000249175208    -0.000352811554     0.000343965650
       7        0.000059641288    -0.000020735373    -0.000010548944
       8        0.000045764173    -0.000034675056    -0.000021929647
       9       -0.000004448352    -0.000004883705     0.000015017416
      10       -0.000021020547    -0.000018836255    -0.000031844295
      11       -0.000009669481     0.000006440156     0.000022722421
      12        0.000042155618    -0.000003000039     0.000003814341
      13        0.000000330381     0.000010296437    -0.000011692457

  **** Optimization is complete! (in 5 steps) ****
    Final optimized geometry and variables:
    Molecular point group: c1

    Geometry (in Angstrom), charge = 0, multiplicity = 1:

    H           -2.443344954828     0.004487854962     0.717553443168
    N           -1.878518804041     0.153198684513    -0.088152260247
    C           -0.572814953111    -0.489005011217     0.028391182142
    H           -1.799117737746     1.136144553491    -0.229683247579
    C            0.588777723725     0.495016731719    -0.015722835941
    H           -0.455289941597    -1.209849847215    -0.775636858036
    H           -0.521507274723    -1.056056244860     0.953185329288
    C            1.950210578905    -0.189327561075     0.032337594256
    H            0.513170352514     1.085576767321    -0.925419800408
    H            0.497122119782     1.190206732144     0.814435115767
    H            2.076780840356    -0.867979822721    -0.804113480150
    H            2.754339039792     0.535978307053    -0.006145014570
    H            2.067756570276    -0.764394174743     0.944764870566

  Mulliken Charges: (a.u.)
   Center  Symbol    Alpha    Beta     Spin     Total
       1     H     0.42684  0.42684  0.00000  0.14632
       2     N     3.69767  3.69767  0.00000 -0.39534
       3     C     3.01327  3.01327  0.00000 -0.02654
       4     H     0.42795  0.42795  0.00000  0.14411
       5     C     3.08596  3.08596  0.00000 -0.17191
       6     H     0.46348  0.46348  0.00000  0.07305
       7     H     0.46371  0.46371  0.00000  0.07258
       8     C     3.15251  3.15251  0.00000 -0.30501
       9     H     0.45452  0.45452  0.00000  0.09096
      10     H     0.45681  0.45681  0.00000  0.08637
      11     H     0.45383  0.45383  0.00000  0.09235
      12     H     0.44794  0.44794  0.00000  0.10411
      13     H     0.45552  0.45552  0.00000  0.08896

   Total alpha = 17.00000, Total beta = 17.00000, Total charge = -0.00000

*** Psi4 exiting successfully. Buy a developer a beer!
