  ==> Input File <==

--------------------------------------------------------------------------
set {
	reference rhf
	basis 6-31G*
}

set_num_threads( 4 )
memory 2 gb

molecule MOL {
0 1

O	 0.537621	 1.228185	 0.803377
C	 0.439379	 0.104411	 0.427577
C	 1.567956	 -0.897089	 0.367773
O	 -0.698257	 -0.426125	 0.001050
C	 2.897074	 -0.328942	 0.849043
H	 1.636408	 -1.248745	 -0.657361
H	 1.269564	 -1.758702	 0.957561
H	 3.198819	 0.519875	 0.247524
H	 3.671943	 -1.085525	 0.785994
H	 2.828777	 0.005040	 1.877204
C	 -1.853104	 0.406779	 0.000512
C	 -3.066105	 -0.499277	 -0.000959
H	 -1.828410	 1.043074	 -0.873618
H	 -1.829857	 1.042383	 0.875188
H	 -3.071820	 -1.133106	 -0.880383
H	 -3.972708	 0.097145	 -0.001528
H	 -3.073405	 -1.133813	 0.877999

	symmetry c1
}
set optking {
	frozen_dihedral = ("
		2 4 11 13
	")
}

ee = optimize('scf')
oeprop('DIPOLE', 'QUADRUPOLE', 'MULLIKEN_CHARGES')
f=open( 'psi4out.xyz', 'w' )
f.write( "17  " )
f.write( str(ee) + "\n" )
f.write( MOL.save_string_xyz() )
f.close()
--------------------------------------------------------------------------

    Molecular point group: c1
  Charge       = 0
  Multiplicity = 1
  Basis Set: 6-31G*
  Basis Set:
  @DF-RHF Final Energy:  -344.91119949088682
    Total Energy =                       -344.9111994908869860
    Molecular point group: c1
  Basis Set: 6-31G*
  Basis Set:
  Basis Set: 6-31G*
  Basis Set:
  @DF-RHF Final Energy:  -344.91126355564472
    Total Energy =                       -344.9112635556446094
  Basis Set: 6-31G*
  Basis Set:
  Basis Set: 6-31G*
  Basis Set:
  @DF-RHF Final Energy:  -344.91131875216513
    Total Energy =                       -344.9113187521653572
  Basis Set: 6-31G*
  Basis Set:
  Basis Set: 6-31G*
  Basis Set:
  @DF-RHF Final Energy:  -344.91118380946989
    Total Energy =                       -344.9111838094697191
  Basis Set: 6-31G*
  Basis Set:
  Basis Set: 6-31G*
  Basis Set:
  @DF-RHF Final Energy:  -344.91133136395018
    Total Energy =                       -344.9113313639498983
  Basis Set: 6-31G*
  Basis Set:
  Charge       = 0
  Multiplicity = 1
  Basis Set: 6-31G*
  Basis Set:

    Orbital Energies (a.u.)
    -----------------------

    Doubly Occupied:

       1A    -20.600693     2A    -20.544124     3A    -11.371712
       4A    -11.284514     5A    -11.237376     6A    -11.222222
       7A    -11.215615     8A     -1.466755     9A     -1.362120
      10A     -1.069914    11A     -1.031671    12A     -0.911049
      13A     -0.847672    14A     -0.772062    15A     -0.697532
      16A     -0.687487    17A     -0.663684    18A     -0.629638
      19A     -0.584143    20A     -0.571506    21A     -0.557825
      22A     -0.524817    23A     -0.519541    24A     -0.514541
      25A     -0.502743    26A     -0.492881    27A     -0.451827
      28A     -0.435769

  @DF-RHF Final Energy:  -344.91133154182853

   => Energetics <=

    Nuclear Repulsion Energy =            314.6657736062163622
    One-Electron Energy =               -1093.6113520616202095
    Two-Electron Energy =                 434.0342469135753731
    DFT Exchange-Correlation Energy =       0.0000000000000000
    Empirical Dispersion Energy =           0.0000000000000000
    PCM Polarization Energy =               0.0000000000000000
    EFP Energy =                            0.0000000000000000
    Total Energy =                       -344.9113315418284742
    Molecular point group: c1
  Basis Set: 6-31G*
  Basis Set:

  -Total Gradient:
     Atom            X                  Y                   Z
    ------   -----------------  -----------------  -----------------
       1        0.000021734355    -0.000009548649    -0.000000446625
       2       -0.000290601313    -0.000385971998     0.001276457340
       3       -0.000026425423    -0.000008233113     0.000005794381
       4        0.000223176361     0.000283539980    -0.002046445714
       5       -0.000003745014     0.000013255027     0.000000378410
       6       -0.000005230176     0.000004868761    -0.000009465609
       7       -0.000003470037     0.000006237472    -0.000006087217
       8       -0.000000439906    -0.000000604863     0.000001073981
       9       -0.000004773060    -0.000000917578    -0.000000007762
      10        0.000004390169     0.000002208103     0.000005294454
      11        0.000849221362     0.001158948483     0.001587160151
      12        0.000017648658     0.000008847054    -0.000009145674
      13       -0.000769949920    -0.001086087836    -0.000807816742
      14       -0.000013673441     0.000011261503     0.000000623450
      15       -0.000002269116    -0.000000733855     0.000001261812
      16       -0.000001022809     0.000000433481    -0.000000703957
      17        0.000005429307     0.000002498024     0.000002075320

  **** Optimization is complete! (in 6 steps) ****
    Final optimized geometry and variables:
    Molecular point group: c1

    Geometry (in Angstrom), charge = 0, multiplicity = 1:

    O            0.595438115668     1.293616784960     0.435286916046
    C            0.481741783275     0.166858915657     0.073415950124
    C            1.598750575934    -0.848270545122     0.023932271084
    O           -0.661061685240    -0.359393381630    -0.345751439131
    C            2.935602027039    -0.289420277948     0.494635697040
    H            1.660457658673    -1.213147790105    -0.997011453461
    H            1.292052625271    -1.699120683265     0.624874892777
    H            3.245594363416     0.547950671900    -0.118572803284
    H            3.701420759733    -1.055780140832     0.439492355493
    H            2.873893938061     0.058569445432     1.518574286619
    C           -1.826709486328     0.458955179813    -0.329111823911
    C           -3.030147022772    -0.460802189169    -0.358787240037
    H           -1.808351814590     1.100166656023    -1.201436342136
    H           -1.816706526940     1.080592710536     0.552910643215
    H           -3.014112850226    -1.088733209075    -1.242282861801
    H           -3.943311764965     0.125605327894    -0.371279539151
    H           -3.045460840614    -1.101385122356     0.515783036813

  Mulliken Charges: (a.u.)
   Center  Symbol    Alpha    Beta     Spin     Total
       1     O     4.28608  4.28608  0.00000 -0.57216
       2     C     2.60585  2.60585  0.00000  0.78830
       3     C     3.20517  3.20517  0.00000 -0.41034
       4     O     4.31356  4.31356  0.00000 -0.62712
       5     C     3.23875  3.23875  0.00000 -0.47750
       6     H     0.40061  0.40061  0.00000  0.19878
       7     H     0.40101  0.40101  0.00000  0.19797
       8     H     0.40992  0.40992  0.00000  0.18016
       9     H     0.41829  0.41829  0.00000  0.16342
      10     H     0.41010  0.41010  0.00000  0.17980
      11     C     3.00410  3.00410  0.00000 -0.00820
      12     C     3.24789  3.24789  0.00000 -0.49578
      13     H     0.41425  0.41425  0.00000  0.17150
      14     H     0.40338  0.40338  0.00000  0.19323
      15     H     0.41163  0.41163  0.00000  0.17674
      16     H     0.41666  0.41666  0.00000  0.16667
      17     H     0.41275  0.41275  0.00000  0.17450

   Total alpha = 28.00000, Total beta = 28.00000, Total charge = -0.00000
