                              Psi4 1.0.54 Driver

  ==> Input File <==

--------------------------------------------------------------------------
set {
	reference rhf
	basis cc-pvtz
}

set_num_threads( 4 )
memory 2 gb

molecule MOL {
0 1

O	 0.084313	 -0.156740	 0.495429
C	 1.121787	 0.124983	 0.000110
C	 1.433484	 1.422156	 -0.701067
O	 2.167739	 -0.685178	 -0.000678
C	 0.266107	 2.397923	 -0.733254
H	 2.295023	 1.856263	 -0.204296
H	 1.765338	 1.173104	 -1.703717
C	 0.615899	 3.699281	 -1.449090
H	 -0.050871	 2.610718	 0.281529
H	 -0.580815	 1.927268	 -1.219825
C	 -0.546411	 4.685497	 -1.485184
H	 1.467190	 4.164509	 -0.959082
H	 0.932903	 3.479672	 -2.465218
H	 -0.864022	 4.951690	 -0.482762
H	 -0.269706	 5.599007	 -1.998614
H	 -1.402130	 4.261969	 -1.999917
C	 3.449556	 -0.089977	 -0.000570
H	 3.585694	 0.522473	 -0.879546
H	 4.155805	 -0.904274	 -0.001389
H	 3.586173	 0.521118	 0.879272

	symmetry c1
}
set optking {
	frozen_dihedral = ("
		1 2 4 17
	")
}

ee,wfn = optimize('scf', return_wfn=True)
oeprop( wfn, 'DIPOLE', 'QUADRUPOLE', 'MULLIKEN_CHARGES')
f=open( 'psi4out.xyz', 'w' )
f.write( "20  " )
f.write( str(ee) + "\n" )
f.write( MOL.save_string_xyz() )
f.close()
--------------------------------------------------------------------------

    Molecular point group: c1
  Charge       = 0
  Multiplicity = 1
  Basis Set: CC-PVTZ
  Basis Set:
  @DF-RHF Final Energy:  -384.05900205717768
    Total Energy =                       -384.0590020571772811
    Molecular point group: c1
  Basis Set: CC-PVTZ
  Basis Set:
  Basis Set: CC-PVTZ
  Basis Set:
  @DF-RHF Final Energy:  -383.91484615910861
    Total Energy =                       -383.9148461591087198
  Basis Set: CC-PVTZ
  Basis Set:
  Basis Set: CC-PVTZ
  Basis Set:
  @DF-RHF Final Energy:  -384.02412567271790
    Total Energy =                       -384.0241256727182417
  Basis Set: CC-PVTZ
  Basis Set:
  Basis Set: CC-PVTZ
  Basis Set:
  @DF-RHF Final Energy:  -384.06409453177577
    Total Energy =                       -384.0640945317760497
  Basis Set: CC-PVTZ
  Basis Set:
  @DF-RHF Final Energy:  -384.06598034422615
    Total Energy =                       -384.0659803442258635
  Basis Set: CC-PVTZ
  Basis Set:
  @DF-RHF Final Energy:  -384.06720436651182
    Total Energy =                       -384.0672043665115325
  Basis Set: CC-PVTZ
  Basis Set:
  Basis Set: CC-PVTZ
  Basis Set:
  @DF-RHF Final Energy:  -384.06740756893549
    Total Energy =                       -384.0674075689357778
  Basis Set: CC-PVTZ
  Basis Set:
  Basis Set: CC-PVTZ
  Basis Set:
  @DF-RHF Final Energy:  -384.06742459538629
    Total Energy =                       -384.0674245953863419
  Basis Set: CC-PVTZ
  Basis Set:
  Charge       = 0
  Multiplicity = 1
  Basis Set: CC-PVTZ
  Basis Set:

    Orbital Energies (a.u.)
    -----------------------

    Doubly Occupied:

       1A    -20.590957     2A    -20.532109     3A    -11.366493
       4A    -11.292961     5A    -11.242763     6A    -11.222395
       7A    -11.221373     8A    -11.211528     9A     -1.464590
      10A     -1.368633    11A     -1.092773    12A     -1.017978
      13A     -0.983093    14A     -0.902218    15A     -0.810926
      16A     -0.767776    17A     -0.701216    18A     -0.689351
      19A     -0.676331    20A     -0.650481    21A     -0.608150
      22A     -0.593561    23A     -0.590079    24A     -0.554390
      25A     -0.541441    26A     -0.522182    27A     -0.507294
      28A     -0.483095    29A     -0.478430    30A     -0.474571
      31A     -0.452660    32A     -0.434422

  @DF-RHF Final Energy:  -384.06742510646706

   => Energetics <=

    Nuclear Repulsion Energy =            383.6751471402353104
    One-Electron Energy =               -1283.3927008182483860
    Two-Electron Energy =                 515.6501285715457925
    DFT Exchange-Correlation Energy =       0.0000000000000000
    Empirical Dispersion Energy =           0.0000000000000000
    PCM Polarization Energy =               0.0000000000000000
    EFP Energy =                            0.0000000000000000
    Total Energy =                       -384.0674251064672262
    Molecular point group: c1
  Basis Set: CC-PVTZ
  Basis Set:

  -Total Gradient:
     Atom            X                  Y                   Z
    ------   -----------------  -----------------  -----------------
       1        0.001326862988     0.002047247398     0.002176594170
       2       -0.001785563586    -0.002462023923    -0.001660740997
       3       -0.000000736414     0.000046212571     0.000061380877
       4        0.000080039704    -0.000479567471    -0.003183066240
       5        0.000003166952    -0.000021099883    -0.000031006731
       6        0.000005707292     0.000001630370    -0.000006176694
       7        0.000002523956    -0.000032503564    -0.000011391189
       8        0.000005680815     0.000019003106     0.000032075738
       9        0.000000371993     0.000016221158     0.000014777661
      10       -0.000019416612    -0.000006302917     0.000000651351
      11       -0.000015652570    -0.000013097370    -0.000006205257
      12        0.000016102193     0.000007164199     0.000005357673
      13        0.000000996940    -0.000013071582    -0.000004771934
      14        0.000002204185     0.000005766993     0.000009689434
      15        0.000005455328     0.000006031688    -0.000012863070
      16       -0.000012012602    -0.000003365739    -0.000001117706
      17        0.000359546037     0.000880310776     0.002621928953
      18        0.000008494638     0.000000974496    -0.000010963453
      19        0.000032752086    -0.000006189309     0.000000276875
      20       -0.000016523320     0.000006659002     0.000005570539

  **** Optimization is complete! (in 9 steps) ****
    Final optimized geometry and variables:
    Molecular point group: c1

    Geometry (in Angstrom), charge = 0, multiplicity = 1:

    O           -0.842085651559    -1.020241249168     1.518237468269
    C            0.128049709170    -0.987246335502     0.850903357378
    C            0.346819301608     0.016579891531    -0.259748338078
    O            1.089890060108    -1.892502354041     1.050022684898
    C           -0.864086521481     0.904694448655    -0.512374567695
    H            1.211025333137     0.623867683844    -0.009212480537
    H            0.615886402886    -0.532238635406    -1.157116268962
    C           -0.623691778016     1.908094923718    -1.636611046111
    H           -1.118695618588     1.427837250100     0.401567854618
    H           -1.719068735175     0.282496430482    -0.750289630587
    C           -1.832005882043     2.800192181418    -1.899775346046
    H            0.234509708400     2.528848473021    -1.391772512795
    H           -0.364365494062     1.376552042025    -2.548617578263
    H           -2.095193864635     3.371557274957    -1.016225317570
    H           -1.633807940448     3.501864607489    -2.701620932523
    H           -2.698219240066     2.211134131498    -2.180921331584
    C            2.443968122757    -1.609770919306     0.799592591027
    H            2.640958611148    -1.456966906476    -0.253327145922
    H            2.995530563561    -2.472334428832     1.136365960569
    H            2.772612294770    -0.743247366002     1.359526604097

  Mulliken Charges: (a.u.)
   Center  Symbol    Alpha    Beta     Spin     Total
       1     O     4.17622  4.17622  0.00000 -0.35244
       2     C     2.80248  2.80248  0.00000  0.39504
       3     C     3.13494  3.13494  0.00000 -0.26987
       4     O     4.13532  4.13532  0.00000 -0.27063
       5     C     3.08147  3.08147  0.00000 -0.16293
       6     H     0.44233  0.44233  0.00000  0.11534
       7     H     0.43816  0.43816  0.00000  0.12368
       8     C     3.08528  3.08528  0.00000 -0.17056
       9     H     0.44359  0.44359  0.00000  0.11283
      10     H     0.44450  0.44450  0.00000  0.11101
      11     C     3.14986  3.14986  0.00000 -0.29972
      12     H     0.45607  0.45607  0.00000  0.08787
      13     H     0.45568  0.45568  0.00000  0.08864
      14     H     0.45321  0.45321  0.00000  0.09359
      15     H     0.44817  0.44817  0.00000  0.10365
      16     H     0.45307  0.45307  0.00000  0.09385
      17     C     3.04667  3.04667  0.00000 -0.09335
      18     H     0.46079  0.46079  0.00000  0.07841
      19     H     0.43382  0.43382  0.00000  0.13236
      20     H     0.45838  0.45838  0.00000  0.08323

   Total alpha = 32.00000, Total beta = 32.00000, Total charge = -0.00000

*** Psi4 exiting successfully. Buy a developer a beer!
