                              Psi4 1.0.54 Driver

  ==> Input File <==

--------------------------------------------------------------------------
set {
	reference rhf
	basis cc-pvtz
}

set_num_threads( 4 )
memory 2 gb

molecule MOL {
0 1

O	 0.395927	 1.296676	 -0.000076
C	 0.503051	 0.114301	 -0.000074
C	 -0.701422	 -0.805636	 -0.000109
C	 1.858118	 -0.556123	 0.000212
C	 -0.517264	 -2.068140	 0.827086
H	 -1.552964	 -0.230582	 0.354326
H	 -0.927450	 -1.049565	 -1.034928
H	 -0.315860	 -1.827619	 1.862371
H	 -1.410995	 -2.679138	 0.784883
H	 0.315194	 -2.653876	 0.460811
H	 1.961106	 -1.191101	 -0.872843
H	 2.636688	 0.191085	 -0.000109
H	 1.961070	 -1.190284	 0.873873

	symmetry c1
}
set optking {
	frozen_dihedral = ("
		6 3 2 1
	")
}

ee,wfn = optimize('scf', return_wfn=True)
oeprop( wfn, 'DIPOLE', 'QUADRUPOLE', 'MULLIKEN_CHARGES')
f=open( 'psi4out.xyz', 'w' )
f.write( "13  " )
f.write( str(ee) + "\n" )
f.write( MOL.save_string_xyz() )
f.close()
--------------------------------------------------------------------------

    Molecular point group: c1
  Charge       = 0
  Multiplicity = 1
  Basis Set: CC-PVTZ
  Basis Set:
  @DF-RHF Final Energy:  -231.07903798923249
    Total Energy =                       -231.0790379892324609
    Molecular point group: c1
  Basis Set: CC-PVTZ
  Basis Set:
  Basis Set: CC-PVTZ
  Basis Set:
  @DF-RHF Final Energy:  -230.56916861370664
    Total Energy =                       -230.5691686137068643
  Basis Set: CC-PVTZ
  Basis Set:
  Basis Set: CC-PVTZ
  Basis Set:
  @DF-RHF Final Energy:  -230.72890146854382
    Total Energy =                       -230.7289014685440520
  Basis Set: CC-PVTZ
  Basis Set:
  Basis Set: CC-PVTZ
  Basis Set:
  @DF-RHF Final Energy:  -230.96533132084190
    Total Energy =                       -230.9653313208418695
  Basis Set: CC-PVTZ
  Basis Set:
  @DF-RHF Final Energy:  -231.06844151066369
    Total Energy =                       -231.0684415106636038
  @DF-RHF Final Energy:  -231.07915824695476
    Total Energy =                       -231.0791582469548189
  @DF-RHF Final Energy:  -231.07739719800932
    Total Energy =                       -231.0773971980092369
  @DF-RHF Final Energy:  -231.08030728289287
    Total Energy =                       -231.0803072828927895
  @DF-RHF Final Energy:  -231.08037340088987
    Total Energy =                       -231.0803734008899823
  Basis Set: CC-PVTZ
  Basis Set:
  @DF-RHF Final Energy:  -231.08049482396339
    Total Energy =                       -231.0804948239633063
  Basis Set: CC-PVTZ
  Basis Set:
  Basis Set: CC-PVTZ
  Basis Set:
  @DF-RHF Final Energy:  -231.08049952435223
    Total Energy =                       -231.0804995243523194
  Basis Set: CC-PVTZ
  Basis Set:
  Basis Set: CC-PVTZ
  Basis Set:
  @DF-RHF Final Energy:  -231.08050071779823
    Total Energy =                       -231.0805007177980883
  Basis Set: CC-PVTZ
  Basis Set:
  Charge       = 0
  Multiplicity = 1
  Basis Set: CC-PVTZ
  Basis Set:

    Orbital Energies (a.u.)
    -----------------------

    Doubly Occupied:

       1A    -20.537578     2A    -11.320975     3A    -11.232856
       4A    -11.227587     5A    -11.227447     6A     -1.397974
       7A     -1.068880     8A     -0.994884     9A     -0.890950
      10A     -0.733369    11A     -0.655191    12A     -0.648070
      13A     -0.623189    14A     -0.589204    15A     -0.559073
      16A     -0.545450    17A     -0.529990    18A     -0.509579
      19A     -0.483119    20A     -0.402240

  @DF-RHF Final Energy:  -231.08050075794259

   => Energetics <=

    Nuclear Repulsion Energy =            177.1801298558171709
    One-Electron Energy =                -664.1660520557993550
    Two-Electron Energy =                 255.9054214420395965
    DFT Exchange-Correlation Energy =       0.0000000000000000
    Empirical Dispersion Energy =           0.0000000000000000
    PCM Polarization Energy =               0.0000000000000000
    EFP Energy =                            0.0000000000000000
    Total Energy =                       -231.0805007579425592
    Molecular point group: c1
  Basis Set: CC-PVTZ
  Basis Set:

  -Total Gradient:
     Atom            X                  Y                   Z
    ------   -----------------  -----------------  -----------------
       1       -0.000780792774    -0.000434526798    -0.001037848456
       2        0.001308348347     0.000643854921     0.001612206879
       3       -0.001615932550    -0.000368361283    -0.001379931821
       4        0.000004646787     0.000003330581     0.000002033332
       5       -0.000000304621    -0.000005149918     0.000000779293
       6        0.001085051453     0.000164567722     0.000797877551
       7        0.000003040371     0.000002626721     0.000000243465
       8       -0.000000735798    -0.000000907722    -0.000000140538
       9        0.000002645954     0.000003500518    -0.000002451915
      10        0.000001733609    -0.000001267390     0.000003137147
      11       -0.000000295949    -0.000001472525     0.000001741153
      12       -0.000002448886    -0.000005030198     0.000006235447
      13       -0.000004955945    -0.000001164633    -0.000003881540

  **** Optimization is complete! (in 13 steps) ****
    Final optimized geometry and variables:
    Molecular point group: c1

    Geometry (in Angstrom), charge = 0, multiplicity = 1:

    O           -0.802574873798     1.491821160641    -0.231105641966
    C           -0.181422950726     0.480090282733    -0.272472219402
    C           -0.609497745395    -0.721609973004     0.550959207728
    C            1.016493330487     0.338608595194    -1.183299607261
    C            0.518967482679    -1.568955231046     1.136059933595
    H           -1.248245241849    -0.347426299540     1.338860756806
    H           -1.226778720744    -1.334974148957    -0.101047891420
    H            1.164907313937    -0.977971009608     1.775638924269
    H            0.106010687290    -2.368847510110     1.737497683856
    H            1.132254218441    -2.021596543823     0.367046369574
    H            0.934637262095    -0.557419062831    -1.788514097017
    H            1.086225170580     1.207496460955    -1.819053938897
    H            1.923323349872     0.249713897054    -0.596035719156

  Mulliken Charges: (a.u.)
   Center  Symbol    Alpha    Beta     Spin     Total
       1     O     4.17196  4.17196  0.00000 -0.34393
       2     C     2.85731  2.85731  0.00000  0.28537
       3     C     3.09742  3.09742  0.00000 -0.19483
       4     C     3.16166  3.16166  0.00000 -0.32332
       5     C     3.15762  3.15762  0.00000 -0.31525
       6     H     0.43685  0.43685  0.00000  0.12630
       7     H     0.44640  0.44640  0.00000  0.10719
       8     H     0.44828  0.44828  0.00000  0.10344
       9     H     0.44152  0.44152  0.00000  0.11695
      10     H     0.45251  0.45251  0.00000  0.09497
      11     H     0.44873  0.44873  0.00000  0.10254
      12     H     0.43219  0.43219  0.00000  0.13561
      13     H     0.44753  0.44753  0.00000  0.10494

   Total alpha = 20.00000, Total beta = 20.00000, Total charge =  0.00000

*** Psi4 exiting successfully. Buy a developer a beer!
