  ==> Input File <==

--------------------------------------------------------------------------
set {
	reference rhf
	basis 6-31G*
}

set_num_threads( 4 )
memory 2 gb

molecule MOL {
0 1

H	 1.024865	 -0.869706	 0.611597
C	 0.943226	 -0.354199	 -0.353437
C	 0.065331	 0.871482	 -0.349150
O	 1.526696	 -0.767560	 -1.302339
C	 -1.339775	 0.583656	 0.198860
H	 0.024283	 1.266257	 -1.357803
H	 0.551599	 1.613854	 0.282189
C	 -1.808407	 -0.848507	 -0.061364
H	 -2.036183	 1.280685	 -0.256307
H	 -1.360094	 0.788874	 1.267089
H	 -1.828843	 -1.063152	 -1.125336
H	 -2.808409	 -1.004529	 0.329750
H	 -1.153967	 -1.577789	 0.406873

	symmetry c1
}
set optking {
	frozen_dihedral = ("
		6 3 5 9
	")
}

ee = optimize('scf')
oeprop('DIPOLE', 'QUADRUPOLE', 'MULLIKEN_CHARGES')
f=open( 'psi4out.xyz', 'w' )
f.write( "13  " )
f.write( str(ee) + "\n" )
f.write( MOL.save_string_xyz() )
f.close()
--------------------------------------------------------------------------

    Molecular point group: c1
  Charge       = 0
  Multiplicity = 1
  Basis Set: 6-31G*
  Basis Set:
  @DF-RHF Final Energy:  -230.97891291255701
    Total Energy =                       -230.9789129125570923
    Molecular point group: c1
  Basis Set: 6-31G*
  Basis Set:
  Basis Set: 6-31G*
  Basis Set:
  @DF-RHF Final Energy:  -230.97921498584594
    Total Energy =                       -230.9792149858458856
  Basis Set: 6-31G*
  Basis Set:
  Basis Set: 6-31G*
  Basis Set:
  @DF-RHF Final Energy:  -230.97585221778215
    Total Energy =                       -230.9758522177821192
  Basis Set: 6-31G*
  Basis Set:
  Basis Set: 6-31G*
  Basis Set:
  @DF-RHF Final Energy:  -230.98014964344000
    Total Energy =                       -230.9801496434398302
  Basis Set: 6-31G*
  Basis Set:
  Basis Set: 6-31G*
  Basis Set:
  @DF-RHF Final Energy:  -230.98032240774145
    Total Energy =                       -230.9803224077414256
  Basis Set: 6-31G*
  Basis Set:
  Basis Set: 6-31G*
  Basis Set:
  @DF-RHF Final Energy:  -230.98033702312867
    Total Energy =                       -230.9803370231284418
  Basis Set: 6-31G*
  Basis Set:
  Charge       = 0
  Multiplicity = 1
  Basis Set: 6-31G*
  Basis Set:

    Orbital Energies (a.u.)
    -----------------------

    Doubly Occupied:

       1A    -20.562348     2A    -11.327090     3A    -11.239076
       4A    -11.235674     5A    -11.222329     6A     -1.402254
       7A     -1.084049     8A     -0.972836     9A     -0.853886
      10A     -0.782546    11A     -0.667617    12A     -0.643027
      13A     -0.630127    14A     -0.600466    15A     -0.556677
      16A     -0.527701    17A     -0.512416    18A     -0.489033
      19A     -0.480138    20A     -0.410044

  @DF-RHF Final Energy:  -230.98033801878177

   => Energetics <=

    Nuclear Repulsion Energy =            174.1878147572404600
    One-Electron Energy =                -657.9376368158754076
    Two-Electron Energy =                 252.7694840398531255
    DFT Exchange-Correlation Energy =       0.0000000000000000
    Empirical Dispersion Energy =           0.0000000000000000
    PCM Polarization Energy =               0.0000000000000000
    EFP Energy =                            0.0000000000000000
    Total Energy =                       -230.9803380187818220
    Molecular point group: c1
  Basis Set: 6-31G*
  Basis Set:

  -Total Gradient:
     Atom            X                  Y                   Z
    ------   -----------------  -----------------  -----------------
       1        0.000063152552    -0.000067528720    -0.000007987899
       2       -0.000077312325     0.000056331083    -0.000017690246
       3        0.000196022600    -0.007665028911    -0.003675601964
       4        0.000040026453    -0.000090882299     0.000017745661
       5        0.001178325933     0.006024271563     0.005916699362
       6       -0.000231377704     0.005589305848     0.002179700136
       7       -0.000023422149    -0.000005569085     0.000002148985
       8       -0.000113268023     0.000008649347    -0.000079737349
       9       -0.001015162477    -0.003871885778    -0.004360643400
      10       -0.000051593803     0.000031204316     0.000021393654
      11       -0.000052545255    -0.000024245621    -0.000007172191
      12        0.000020172369    -0.000042950039     0.000021626309
      13        0.000066981825     0.000058328295    -0.000010481055

  **** Optimization is complete! (in 7 steps) ****
    Final optimized geometry and variables:
    Molecular point group: c1

    Geometry (in Angstrom), charge = 0, multiplicity = 1:

    H            1.288992826776    -0.651404777564     1.022877909551
    C            1.121094261296    -0.204629986995     0.036022442304
    C            0.179327710287     0.969878851317     0.013403580116
    O            1.680458298439    -0.639987769510    -0.917859547595
    C           -1.219685473495     0.685306178978     0.605792277667
    H            0.108130348796     1.360119989878    -0.994600929695
    H            0.650216224622     1.755510586541     0.604257877035
    C           -1.752051622800    -0.720925616793     0.303953305128
    H           -1.913147840985     1.388770373244     0.157861534478
    H           -1.220858650996     0.855496985029     1.677196012042
    H           -1.751961159927    -0.917706819400    -0.763815577663
    H           -2.771096938905    -0.825416049187     0.661416487395
    H           -1.160304617730    -1.495872542738     0.781211799881

  Mulliken Charges: (a.u.)
   Center  Symbol    Alpha    Beta     Spin     Total
       1     H     0.43148  0.43148  0.00000  0.13704
       2     C     2.83136  2.83136  0.00000  0.33728
       3     C     3.21117  3.21117  0.00000 -0.42234
       4     O     4.23754  4.23754  0.00000 -0.47509
       5     C     3.16053  3.16053  0.00000 -0.32106
       6     H     0.39881  0.39881  0.00000  0.20238
       7     H     0.40816  0.40816  0.00000  0.18368
       8     C     3.24937  3.24937  0.00000 -0.49874
       9     H     0.41081  0.41081  0.00000  0.17838
      10     H     0.41578  0.41578  0.00000  0.16844
      11     H     0.41194  0.41194  0.00000  0.17612
      12     H     0.41420  0.41420  0.00000  0.17161
      13     H     0.41885  0.41885  0.00000  0.16230

   Total alpha = 20.00000, Total beta = 20.00000, Total charge =  0.00000
