                              Psi4 1.0.54 Driver

  ==> Input File <==

--------------------------------------------------------------------------
set {
	reference rhf
	basis cc-pvtz
}

set_num_threads( 4 )
memory 2 gb

molecule MOL {
0 1

O	 -2.071633	 -1.227563	 -0.223463
C	 -1.652164	 -0.152425	 0.058082
C	 -0.327811	 0.006324	 0.778296
C	 -2.402515	 1.108629	 -0.298924
C	 0.360033	 1.319395	 0.385689
H	 -0.478455	 -0.023034	 1.852339
H	 0.299387	 -0.830588	 0.498941
C	 1.707168	 1.508335	 1.076889
H	 -0.286168	 2.159618	 0.626820
H	 0.496278	 1.331706	 -0.690253
C	 2.400745	 2.806969	 0.679820
H	 1.565500	 1.489042	 2.153959
H	 2.351223	 0.667094	 0.838044
H	 1.795573	 3.669524	 0.938277
H	 2.584429	 2.841045	 -0.388575
H	 3.354900	 2.910105	 1.183162
H	 -3.240910	 0.874416	 -0.936711
H	 -1.747554	 1.818823	 -0.790984
H	 -2.760419	 1.579708	 0.610998

	symmetry c1
}
set optking {
	frozen_dihedral = ("
		5 3 2 4
	")
}

ee,wfn = optimize('scf', return_wfn=True)
oeprop( wfn, 'DIPOLE', 'QUADRUPOLE', 'MULLIKEN_CHARGES')
f=open( 'psi4out.xyz', 'w' )
f.write( "19  " )
f.write( str(ee) + "\n" )
f.write( MOL.save_string_xyz() )
f.close()
--------------------------------------------------------------------------

    Molecular point group: c1
  Charge       = 0
  Multiplicity = 1
  Basis Set: CC-PVTZ
  Basis Set:
  @DF-RHF Final Energy:  -309.17155395288017
    Total Energy =                       -309.1715539528802879
    Molecular point group: c1
  Basis Set: CC-PVTZ
  Basis Set:
  Basis Set: CC-PVTZ
  Basis Set:
  @DF-RHF Final Energy:  -309.12677496667584
    Total Energy =                       -309.1267749666757254
  Basis Set: CC-PVTZ
  Basis Set:
  Basis Set: CC-PVTZ
  Basis Set:
  @DF-RHF Final Energy:  -309.17257761802824
    Total Energy =                       -309.1725776180284129
  Basis Set: CC-PVTZ
  Basis Set:
  Basis Set: CC-PVTZ
  Basis Set:
  @DF-RHF Final Energy:  -309.17543068108893
    Total Energy =                       -309.1754306810890967
  Basis Set: CC-PVTZ
  Basis Set:
  @DF-RHF Final Energy:  -309.17111348152559
    Total Energy =                       -309.1711134815255946
  @DF-RHF Final Energy:  -309.17550662277301
    Total Energy =                       -309.1755066227732414
  @DF-RHF Final Energy:  -309.17512782463490
    Total Energy =                       -309.1751278246351831
  @DF-RHF Final Energy:  -309.17534045022927
    Total Energy =                       -309.1753404502293279
  @DF-RHF Final Energy:  -309.17569130488556
    Total Energy =                       -309.1756913048855608
  Basis Set: CC-PVTZ
  Basis Set:
  @DF-RHF Final Energy:  -309.17569563905568
    Total Energy =                       -309.1756956390556752
  Basis Set: CC-PVTZ
  Basis Set:
  Basis Set: CC-PVTZ
  Basis Set:
  @DF-RHF Final Energy:  -309.17577282393569
    Total Energy =                       -309.1757728239355174
  Basis Set: CC-PVTZ
  Basis Set:
  Basis Set: CC-PVTZ
  Basis Set:
  @DF-RHF Final Energy:  -309.17577798901817
    Total Energy =                       -309.1757779890179449
  Basis Set: CC-PVTZ
  Basis Set:
  Charge       = 0
  Multiplicity = 1
  Basis Set: CC-PVTZ
  Basis Set:

    Orbital Energies (a.u.)
    -----------------------

    Doubly Occupied:

       1A    -20.535735     2A    -11.320331     3A    -11.229804
       4A    -11.229070     5A    -11.226519     6A    -11.224925
       7A    -11.215446     8A     -1.396520     9A     -1.095642
      10A     -1.029519    11A     -0.983534    12A     -0.896308
      13A     -0.810762    14A     -0.733054    15A     -0.664305
      16A     -0.649845    17A     -0.630023    18A     -0.613898
      19A     -0.586410    20A     -0.573794    21A     -0.554933
      22A     -0.531831    23A     -0.521613    24A     -0.495078
      25A     -0.487227    26A     -0.481372    27A     -0.472048
      28A     -0.399324

  @DF-RHF Final Energy:  -309.17577872250070

   => Energetics <=

    Nuclear Repulsion Energy =            301.5245177743616978
    One-Electron Energy =               -1016.2228592250068004
    Two-Electron Energy =                 405.5225627281445213
    DFT Exchange-Correlation Energy =       0.0000000000000000
    Empirical Dispersion Energy =           0.0000000000000000
    PCM Polarization Energy =               0.0000000000000000
    EFP Energy =                            0.0000000000000000
    Total Energy =                       -309.1757787225005814
    Molecular point group: c1
  Basis Set: CC-PVTZ
  Basis Set:

  -Total Gradient:
     Atom            X                  Y                   Z
    ------   -----------------  -----------------  -----------------
       1       -0.000008838418     0.000023972486     0.000006047351
       2       -0.001671016391     0.001196024539     0.001400614242
       3        0.001367360027    -0.001765118444    -0.001130803483
       4        0.000953210416    -0.000550003885    -0.000843470821
       5       -0.000655312330     0.001038423541     0.000521286301
       6        0.000001376412     0.000018013982     0.000018822755
       7       -0.000001336986    -0.000013028127     0.000007358821
       8        0.000017572437     0.000010305321    -0.000014617445
       9       -0.000007727404     0.000026322883    -0.000004037547
      10        0.000010156212    -0.000006426757    -0.000020291482
      11       -0.000007966807    -0.000011719986     0.000009206454
      12       -0.000011494324     0.000011579564     0.000016296349
      13        0.000001587210    -0.000013733798     0.000004967973
      14       -0.000007415779     0.000011035408     0.000000272596
      15        0.000012559238    -0.000007183566    -0.000024197299
      16        0.000015074728    -0.000000855436     0.000015427327
      17       -0.000002211395     0.000010368119     0.000001195181
      18        0.000002734496     0.000009331791     0.000007895845
      19       -0.000008311342     0.000012692364     0.000028026880

  **** Optimization is complete! (in 13 steps) ****
    Final optimized geometry and variables:
    Molecular point group: c1

    Geometry (in Angstrom), charge = 0, multiplicity = 1:

    O           -2.135262067345    -1.501639472386    -0.861508767103
    C           -1.455249527844    -0.538943614250    -0.711214835088
    C           -0.444883352964    -0.488556528962     0.422520926345
    C           -1.593618142475     0.658131770344    -1.622922308485
    C            0.804369956579     0.363420754144     0.206725954346
    H           -0.989761448893    -0.112019227245     1.286579618871
    H           -0.182504136490    -1.513439835959     0.649728477615
    C            1.757289766810     0.303957331803     1.397923548210
    H            0.527356891963     1.397156664818     0.027319520298
    H            1.329195285068     0.026051436931    -0.683421641286
    C            3.013417097021     1.144952108406     1.198796856662
    H            1.235809102565     0.638987723340     2.290299709213
    H            2.039176216712    -0.728934035766     1.579851951375
    H            2.765672844225     2.190583405969     1.049239399868
    H            3.574507878084     0.811581627349     0.332216013290
    H            3.667538277285     1.080640142018     2.060331477910
    H           -2.424138324643     0.500904563559    -2.293385010544
    H           -0.685237051857     0.796084327025    -2.197728325435
    H           -1.751446705112     1.563412142094    -1.047130591359

  Mulliken Charges: (a.u.)
   Center  Symbol    Alpha    Beta     Spin     Total
       1     O     4.17389  4.17389  0.00000 -0.34779
       2     C     2.86010  2.86010  0.00000  0.27980
       3     C     3.09744  3.09744  0.00000 -0.19489
       4     C     3.16492  3.16492  0.00000 -0.32983
       5     C     3.10110  3.10110  0.00000 -0.20219
       6     H     0.44452  0.44452  0.00000  0.11097
       7     H     0.43683  0.43683  0.00000  0.12633
       8     C     3.08633  3.08633  0.00000 -0.17266
       9     H     0.45067  0.45067  0.00000  0.09866
      10     H     0.44867  0.44867  0.00000  0.10266
      11     C     3.14922  3.14922  0.00000 -0.29844
      12     H     0.45301  0.45301  0.00000  0.09397
      13     H     0.45040  0.45040  0.00000  0.09919
      14     H     0.45501  0.45501  0.00000  0.08997
      15     H     0.45412  0.45412  0.00000  0.09177
      16     H     0.44643  0.44643  0.00000  0.10713
      17     H     0.43193  0.43193  0.00000  0.13614
      18     H     0.44713  0.44713  0.00000  0.10574
      19     H     0.44827  0.44827  0.00000  0.10346

   Total alpha = 28.00000, Total beta = 28.00000, Total charge = -0.00000

*** Psi4 exiting successfully. Buy a developer a beer!
