                              Psi4 1.0.54 Driver

  ==> Input File <==

--------------------------------------------------------------------------
set {
	reference rhf
	basis cc-pvtz
}

set_num_threads( 4 )
memory 2 gb

molecule MOL {
0 1

H	 -3.402940	 -1.024479	 0.134363
O	 -3.113621	 -0.142218	 -0.014854
C	 -1.775048	 -0.059117	 -0.004177
C	 -0.968249	 -1.170593	 0.205898
C	 -1.209489	 1.187911	 -0.212134
H	 -1.414416	 -2.134733	 0.366512
C	 0.399141	 -1.029397	 0.206934
H	 -1.849649	 2.032064	 -0.372200
C	 0.161469	 1.312342	 -0.208092
H	 1.032541	 -1.879115	 0.367848
C	 0.981121	 0.213562	 0.000000
H	 0.601313	 2.279327	 -0.369324
C	 2.447402	 0.371303	 0.000000
O	 3.227427	 -0.521847	 0.000000
H	 2.796538	 1.409525	 0.000000

	symmetry c1
}
set optking {
	frozen_dihedral = ("
		7 11 13 14
	")
}

ee,wfn = optimize('scf', return_wfn=True)
oeprop( wfn, 'DIPOLE', 'QUADRUPOLE', 'MULLIKEN_CHARGES')
f=open( 'psi4out.xyz', 'w' )
f.write( "15  " )
f.write( str(ee) + "\n" )
f.write( MOL.save_string_xyz() )
f.close()
--------------------------------------------------------------------------

    Molecular point group: c1
  Charge       = 0
  Multiplicity = 1
  Basis Set: CC-PVTZ
  Basis Set:
  @DF-RHF Final Energy:  -418.44222124989608
    Total Energy =                       -418.4422212498958515
    Molecular point group: c1
  Basis Set: CC-PVTZ
  Basis Set:
  Basis Set: CC-PVTZ
  Basis Set:
  @DF-RHF Final Energy:  -418.44186698630750
    Total Energy =                       -418.4418669863072182
  Basis Set: CC-PVTZ
  Basis Set:
  Basis Set: CC-PVTZ
  Basis Set:
  @DF-RHF Final Energy:  -418.44225715270591
    Total Energy =                       -418.4422571527055652
  Basis Set: CC-PVTZ
  Basis Set:
  Basis Set: CC-PVTZ
  Basis Set:
  @DF-RHF Final Energy:  -418.44228279060479
    Total Energy =                       -418.4422827906048497
  Basis Set: CC-PVTZ
  Basis Set:
  Charge       = 0
  Multiplicity = 1
  Basis Set: CC-PVTZ
  Basis Set:

    Orbital Energies (a.u.)
    -----------------------

    Doubly Occupied:

       1A    -20.604798     2A    -20.545822     3A    -11.322809
       4A    -11.322447     5A    -11.258140     6A    -11.254724
       7A    -11.242343     8A    -11.236877     9A    -11.236571
      10A     -1.437998    11A     -1.402017    12A     -1.175242
      13A     -1.044808    14A     -1.042510    15A     -0.892106
      16A     -0.871009    17A     -0.797581    18A     -0.762526
      19A     -0.717825    20A     -0.671085    21A     -0.646517
      22A     -0.631431    23A     -0.615274    24A     -0.610839
      25A     -0.587849    26A     -0.563138    27A     -0.554332
      28A     -0.509101    29A     -0.490464    30A     -0.421690
      31A     -0.362490    32A     -0.331419

  @DF-RHF Final Energy:  -418.44228298843774

   => Energetics <=

    Nuclear Repulsion Energy =            402.2880746609571929
    One-Electron Energy =               -1367.1331503088958925
    Two-Electron Energy =                 546.4027926595010740
    DFT Exchange-Correlation Energy =       0.0000000000000000
    Empirical Dispersion Energy =           0.0000000000000000
    PCM Polarization Energy =               0.0000000000000000
    EFP Energy =                            0.0000000000000000
    Total Energy =                       -418.4422829884376824
    Molecular point group: c1
  Basis Set: CC-PVTZ
  Basis Set:

  -Total Gradient:
     Atom            X                  Y                   Z
    ------   -----------------  -----------------  -----------------
       1       -0.000002959697     0.000006191559     0.000012977094
       2       -0.000004890877     0.000012066927     0.000071507557
       3        0.000011270139    -0.000070713163    -0.000241258151
       4       -0.000027413363     0.000019748170     0.000046600638
       5        0.000023330378     0.000038587098     0.000074586810
       6        0.000004032748     0.000002938182     0.000001859813
       7       -0.000020675826     0.000378390698     0.001881243468
       8       -0.000006867236    -0.000005690279    -0.000003479478
       9       -0.000045063217     0.000025216923     0.000045573207
      10       -0.000000265525     0.000003626459    -0.000013804088
      11        0.000099153640    -0.000564567153    -0.003787284431
      12        0.000002924160    -0.000015610729    -0.000041936965
      13       -0.000006375378     0.000279763397     0.004276060830
      14        0.000011162462    -0.000024537325    -0.002335825609
      15       -0.000037362401    -0.000085410763     0.000013179305

  **** Optimization is complete! (in 5 steps) ****
    Final optimized geometry and variables:
    Molecular point group: c1

    Geometry (in Angstrom), charge = 0, multiplicity = 1:

    H           -3.403011268587    -1.020069353255     0.159797513298
    O           -3.114127611432    -0.138665956333     0.004026033216
    C           -1.775501646323    -0.057257132477     0.004049535814
    C           -0.968536313307    -1.167951036085     0.218940431474
    C           -1.209626494173     1.187733331723    -0.213443037723
    H           -1.415083214405    -2.129300946879     0.394901970560
    C            0.398948292620    -1.029246390471     0.206809287941
    H           -1.849237288015     2.032514526490    -0.372795982310
    C            0.161713760532     1.311267654660    -0.214006717145
    H            1.031954441065    -1.879175423487     0.368781358922
    C            0.981288232196     0.210672293919    -0.017261199827
    H            0.601298608220     2.278473750789    -0.374904850910
    C            2.448018830791     0.369364618552    -0.011532165149
    O            3.227880523616    -0.523427734060     0.007577910437
    H            2.796464062051     1.407292219748    -0.045080450378

  Mulliken Charges: (a.u.)
   Center  Symbol    Alpha    Beta     Spin     Total
       1     H     0.38536  0.38536  0.00000  0.22928
       2     O     4.16626  4.16626  0.00000 -0.33253
       3     C     2.84440  2.84440  0.00000  0.31119
       4     C     3.13224  3.13224  0.00000 -0.26448
       5     C     3.10846  3.10846  0.00000 -0.21692
       6     H     0.43107  0.43107  0.00000  0.13786
       7     C     3.06754  3.06754  0.00000 -0.13508
       8     H     0.41667  0.41667  0.00000  0.16666
       9     C     3.06636  3.06636  0.00000 -0.13272
      10     H     0.40736  0.40736  0.00000  0.18528
      11     C     3.00158  3.00158  0.00000 -0.00317
      12     H     0.42150  0.42150  0.00000  0.15700
      13     C     2.91182  2.91182  0.00000  0.17635
      14     O     4.17872  4.17872  0.00000 -0.35745
      15     H     0.46065  0.46065  0.00000  0.07871

   Total alpha = 32.00000, Total beta = 32.00000, Total charge =  0.00000

*** Psi4 exiting successfully. Buy a developer a beer!
