  ==> Input File <==

--------------------------------------------------------------------------
set {
	reference rhf
	basis 6-31G*
}

set_num_threads( 4 )
memory 2 gb

molecule MOL {
0 1

H	 -1.671591	 2.458543	 -0.518336
C	 -0.650314	 2.096208	 -0.536491
C	 -0.603454	 0.661669	 0.000000
H	 -0.042052	 2.757007	 0.069152
H	 -0.289583	 2.140791	 -1.556945
C	 0.763625	 0.112519	 0.000000
H	 -0.978921	 0.619473	 1.015782
H	 -1.224884	 0.007161	 -0.600011
N	 1.813038	 -0.320305	 0.000000

	symmetry c1
}
set optking {
	frozen_dihedral = ("
		7 3 6 9
	")
}

ee = optimize('scf')
oeprop('DIPOLE', 'QUADRUPOLE', 'MULLIKEN_CHARGES')
f=open( 'psi4out.xyz', 'w' )
f.write( "9  " )
f.write( str(ee) + "\n" )
f.write( MOL.save_string_xyz() )
f.close()
--------------------------------------------------------------------------

    Molecular point group: c1
  Charge       = 0
  Multiplicity = 1
  Basis Set: 6-31G*
  Basis Set:
  @DF-RHF Final Energy:  -170.96241500082957
    Total Energy =                       -170.9624150008296510
    Molecular point group: c1
  Basis Set: 6-31G*
  Basis Set:
  Basis Set: 6-31G*
  Basis Set:
  @DF-RHF Final Energy:  -170.79446008297248
    Total Energy =                       -170.7944600829723925
  Basis Set: 6-31G*
  Basis Set:
  Basis Set: 6-31G*
  Basis Set:
  @DF-RHF Final Energy:  -170.89954985921293
    Total Energy =                       -170.8995498592129820
  Basis Set: 6-31G*
  Basis Set:
  Basis Set: 6-31G*
  Basis Set:
  @DF-RHF Final Energy:  -170.95280559889531
    Total Energy =                       -170.9528055988954236
  Basis Set: 6-31G*
  Basis Set:
  @DF-RHF Final Energy:  -170.96185093403727
    Total Energy =                       -170.9618509340373294
  @DF-RHF Final Energy:  -170.96206358831657
    Total Energy =                       -170.9620635883164823
  @DF-RHF Final Energy:  -170.96228012307859
    Total Energy =                       -170.9622801230785853
  @DF-RHF Final Energy:  -170.96241452843668
    Total Energy =                       -170.9624145284366818
  @DF-RHF Final Energy:  -170.95388904539573
    Total Energy =                       -170.9538890453956981
  @DF-RHF Final Energy:  -170.96121023290121
    Total Energy =                       -170.9612102329011805
  @DF-RHF Final Energy:  -170.96178460623628
    Total Energy =                       -170.9617846062363355
  @DF-RHF Final Energy:  -170.96222577252109
    Total Energy =                       -170.9622257725210943
  @DF-RHF Final Energy:  -170.96237416959741
    Total Energy =                       -170.9623741695974104
  @DF-RHF Final Energy:  -170.96241933195898
    Total Energy =                       -170.9624193319589835
  @DF-RHF Final Energy:  -170.95752217631559
    Total Energy =                       -170.9575221763155639
  @DF-RHF Final Energy:  -170.95979631277757
    Total Energy =                       -170.9597963127776268
  @DF-RHF Final Energy:  -170.96191591130395
    Total Energy =                       -170.9619159113040041
  @DF-RHF Final Energy:  -170.96128604267557
    Total Energy =                       -170.9612860426755674
  @DF-RHF Final Energy:  -170.96203264346548
    Total Energy =                       -170.9620326434654771
  @DF-RHF Final Energy:  -170.96228505430577
    Total Energy =                       -170.9622850543058519
  @DF-RHF Final Energy:  -170.96206573600068
    Total Energy =                       -170.9620657360005396
  @DF-RHF Final Energy:  -170.96213983616224
    Total Energy =                       -170.9621398361623505
  @DF-RHF Final Energy:  -170.96216968180374
    Total Energy =                       -170.9621696818037435
  @DF-RHF Final Energy:  -170.96218150210854
    Total Energy =                       -170.9621815021084785
  @DF-RHF Final Energy:  -170.96209847994623
    Total Energy =                       -170.9620984799462917
  @DF-RHF Final Energy:  -170.96212457450284
    Total Energy =                       -170.9621245745027807
  @DF-RHF Final Energy:  -170.96228406987370
    Total Energy =                       -170.9622840698736468
  @DF-RHF Final Energy:  -170.96234703226236
    Total Energy =                       -170.9623470322623575
  @DF-RHF Final Energy:  -170.96239477642578
    Total Energy =                       -170.9623947764257252
  @DF-RHF Final Energy:  -170.96202331768944
    Total Energy =                       -170.9620233176894430
  @DF-RHF Final Energy:  -170.96235542839167
    Total Energy =                       -170.9623554283917031
  @DF-RHF Final Energy:  -170.96240403522538
    Total Energy =                       -170.9624040352254610
  @DF-RHF Final Energy:  -170.96241474306126
    Total Energy =                       -170.9624147430612027
  @DF-RHF Final Energy:  -170.96240528677228
    Total Energy =                       -170.9624052867723094
  @DF-RHF Final Energy:  -170.96236298620920
    Total Energy =                       -170.9623629862091718
  @DF-RHF Final Energy:  -170.96236749067742
    Total Energy =                       -170.9623674906773658
  Basis Set: 6-31G*
  Basis Set:
  @DF-RHF Final Energy:  -170.96239012769530
    Total Energy =                       -170.9623901276953291
  Basis Set: 6-31G*
  Basis Set:
  Basis Set: 6-31G*
  Basis Set:
  @DF-RHF Final Energy:  -170.96241549670674
    Total Energy =                       -170.9624154967067966
  Basis Set: 6-31G*
  Basis Set:
  Basis Set: 6-31G*
  Basis Set:
  @DF-RHF Final Energy:  -170.96238163554943
    Total Energy =                       -170.9623816355494341
  Basis Set: 6-31G*
  Basis Set:
  Charge       = 0
  Multiplicity = 1
  Basis Set: 6-31G*
  Basis Set:

    Orbital Energies (a.u.)
    -----------------------

    Doubly Occupied:

       1A    -15.568222     2A    -11.284043     3A    -11.270513
       4A    -11.246031     5A     -1.222844     6A     -1.082289
       7A     -0.911488     8A     -0.699958     9A     -0.659414
      10A     -0.587586    11A     -0.560876    12A     -0.543903
      13A     -0.536604    14A     -0.457546    15A     -0.457491

  @DF-RHF Final Energy:  -170.96216432500262

   => Energetics <=

    Nuclear Repulsion Energy =            103.2311515342393449
    One-Electron Energy =                -434.2090128407336920
    Two-Electron Energy =                 160.0156969814917716
    DFT Exchange-Correlation Energy =       0.0000000000000000
    Empirical Dispersion Energy =           0.0000000000000000
    PCM Polarization Energy =               0.0000000000000000
    EFP Energy =                            0.0000000000000000
    Total Energy =                       -170.9621643250025613
    Molecular point group: c1
  Basis Set: 6-31G*
  Basis Set:

  -Total Gradient:
     Atom            X                  Y                   Z
    ------   -----------------  -----------------  -----------------
       1       -0.000297998852    -0.000090188770     0.000112761553
       2        0.000766964040    -0.000284903346     0.000030583111
       3       -0.001215832410    -0.002766145772     0.001006244746
       4        0.000210689033     0.000126507007     0.000074313087
       5        0.000069595891     0.000023793623    -0.000293830773
       6       -0.006704230328     0.009841982559    -0.002507959273
       7       -0.000539757599     0.000015478319     0.000284914229
       8       -0.000511859634     0.000123579273     0.000019102462
       9        0.008222429859    -0.006990102894     0.001273870857

    Molecular point group: c1

    Geometry (in Angstrom), charge = 0, multiplicity = 1:

    H           -1.962551327947     1.768487178818    -0.323754443625
    C           -0.941736279373     1.408935637435    -0.374200180713
    C           -0.875179447492    -0.024022243237     0.159279611877
    H           -0.316050967641     2.070937437327     0.212047742311
    H           -0.613401778457     1.454828419999    -1.405884717683
    C            0.498158280759    -0.561597254414     0.127808339094
    H           -1.228050388535    -0.069640341038     1.183995357726
    H           -1.506769674706    -0.682235965488    -0.428434266597
    N            1.535087478831    -1.032467202964     0.129495851833

  Mulliken Charges: (a.u.)
   Center  Symbol    Alpha    Beta     Spin     Total
       1     H     0.40896  0.40896  0.00000  0.18209
       2     C     3.24380  3.24380  0.00000 -0.48761
       3     C     3.18220  3.18220  0.00000 -0.36439
       4     H     0.40554  0.40554  0.00000  0.18892
       5     H     0.40565  0.40565  0.00000  0.18871
       6     C     2.84795  2.84795  0.00000  0.30411
       7     H     0.38806  0.38806  0.00000  0.22388
       8     H     0.38802  0.38802  0.00000  0.22397
       9     N     3.72983  3.72983  0.00000 -0.45966

   Total alpha = 15.00000, Total beta = 15.00000, Total charge =  0.00000
