  ==> Input File <==

--------------------------------------------------------------------------
set {
	reference rhf
	basis 6-31G*
}

set_num_threads( 1 )
memory 2 gb

molecule MOL {
0 1

H	 -3.892951	 0.981613	 -0.358725
C	 -3.196921	 0.361773	 0.172313
C	 -2.076860	 -0.007332	 -0.404944
H	 -3.439953	 0.057760	 1.173024
O	 -2.063673	 -0.712122	 -1.566821
H	 -1.108737	 0.240570	 -0.006851
C	 -0.852202	 -1.213538	 -2.017120
C	 -0.547839	 -2.566311	 -1.414077
H	 -0.023443	 -0.550625	 -1.794856
H	 -0.924190	 -1.336870	 -3.087677
F	 0.598165	 -3.018609	 -1.901836
F	 -0.426391	 -2.501051	 -0.098470
F	 -1.483274	 -3.452006	 -1.687746

	symmetry c1
}
set optking {
	frozen_dihedral = ("
		11 8 7 9,
		3 5 7 9,
		6 3 5 7
	")
}

ee = energy('scf')
oeprop('DIPOLE', 'QUADRUPOLE', 'MULLIKEN_CHARGES')
f=open( 'psi4out.xyz', 'w' )
f.write( "13  " )
f.write( str(ee) + "\n" )
f.write( MOL.save_string_xyz() )
f.close()
--------------------------------------------------------------------------

    Molecular point group: c1

    Geometry (in Angstrom), charge = 0, multiplicity = 1:

       Center              X                  Y                   Z               Mass
    ------------   -----------------  -----------------  -----------------  -----------------
           H         -2.722799711490     2.755446153287     0.777528500039     1.007825032070
           C         -2.026769711490     2.135606153287     1.308566500039    12.000000000000
           C         -0.906708711490     1.766501153287     0.731309500039    12.000000000000
           H         -2.269801711490     1.831593153287     2.309277500039     1.007825032070
           O         -0.893521711490     1.061711153287    -0.430567499961    15.994914619560
           H          0.061414288510     2.014403153287     1.129402500039     1.007825032070
           C          0.317949288510     0.560295153287    -0.880866499961    12.000000000000
           C          0.622312288510    -0.792477846713    -0.277823499961    12.000000000000
           H          1.146708288510     1.223208153287    -0.658602499961     1.007825032070
           H          0.245961288510     0.436963153287    -1.951423499961     1.007825032070
           F          1.768316288510    -1.244775846713    -0.765582499961    18.998403224000
           F          0.743760288510    -0.727217846713     1.037783500039    18.998403224000
           F         -0.313122711490    -1.678172846713    -0.551492499961    18.998403224000

  Charge       = 0
  Multiplicity = 1
  Basis Set: 6-31G*
  Basis Set:

    Orbital Energies (a.u.)
    -----------------------

    Doubly Occupied:

       1A    -26.347415     2A    -26.345223     3A    -26.342566
       4A    -20.617081     5A    -11.506562     6A    -11.322587
       7A    -11.317206     8A    -11.199488     9A     -1.743874
      10A     -1.642092    11A     -1.640134    12A     -1.445861
      13A     -1.087335    14A     -1.017194    15A     -0.927628
      16A     -0.838999    17A     -0.833067    18A     -0.824160
      19A     -0.794418    20A     -0.723410    21A     -0.712911
      22A     -0.697155    23A     -0.676776    24A     -0.661801
      25A     -0.656259    26A     -0.645060    27A     -0.638884
      28A     -0.588744    29A     -0.576833    30A     -0.529035
      31A     -0.508807    32A     -0.301754

  @DF-RHF Final Energy:  -527.45715407700322

   => Energetics <=

    Nuclear Repulsion Energy =            413.4810662603858873
    One-Electron Energy =               -1550.4559703383088163
    Two-Electron Energy =                 609.5177500009201594
    DFT Exchange-Correlation Energy =       0.0000000000000000
    Empirical Dispersion Energy =           0.0000000000000000
    PCM Polarization Energy =               0.0000000000000000
    EFP Energy =                            0.0000000000000000
    Total Energy =                       -527.4571540770027696

  Mulliken Charges: (a.u.)
   Center  Symbol    Alpha    Beta     Spin     Total
       1     H     0.40515  0.40515  0.00000  0.18970
       2     C     3.27061  3.27061  0.00000 -0.54123
       3     C     2.88355  2.88355  0.00000  0.23289
       4     H     0.40021  0.40021  0.00000  0.19959
       5     O     4.28604  4.28604  0.00000 -0.57208
       6     H     0.40514  0.40514  0.00000  0.18972
       7     C     3.06769  3.06769  0.00000 -0.13539
       8     C     2.45375  2.45375  0.00000  1.09251
       9     H     0.40415  0.40415  0.00000  0.19170
      10     H     0.38859  0.38859  0.00000  0.22282
      11     F     4.68229  4.68229  0.00000 -0.36457
      12     F     4.67894  4.67894  0.00000 -0.35788
      13     F     4.67389  4.67389  0.00000 -0.34777

   Total alpha = 32.00000, Total beta = 32.00000, Total charge =  0.00000
