  ==> Input File <==

--------------------------------------------------------------------------
set {
	reference rhf
	basis 6-31G*
}

set_num_threads( 4 )
memory 2 gb

molecule MOL {
0 1

O	 -2.324811	 1.361668	 -0.277141
C	 -2.105949	 0.203097	 -0.092081
C	 -0.889235	 -0.467034	 -0.705952
C	 -3.002726	 -0.644460	 0.782455
C	 -0.100563	 -1.250060	 0.356126
H	 -0.259998	 0.311889	 -1.122657
H	 -1.185093	 -1.130978	 -1.513214
C	 1.152083	 -1.911805	 -0.223172
H	 0.163664	 -0.565368	 1.154102
H	 -0.738583	 -2.014794	 0.796421
C	 1.939111	 -2.764180	 0.778875
H	 1.805722	 -1.143853	 -0.632722
H	 0.860292	 -2.542294	 -1.060544
C	 2.577497	 -1.972421	 1.921494
H	 2.721679	 -3.291024	 0.238768
H	 1.285630	 -3.531191	 1.189659
H	 3.228540	 -1.191161	 1.538740
H	 3.177374	 -2.622333	 2.550907
H	 1.834062	 -1.501856	 2.556051
H	 -3.496582	 -1.399307	 0.176174
H	 -3.747939	 -0.023774	 1.260148
H	 -2.421318	 -1.168775	 1.535358

	symmetry c1
}
set optking {
	frozen_dihedral = ("
		6 3 2 1
	")
}

ee = optimize('scf')
oeprop('DIPOLE', 'QUADRUPOLE', 'MULLIKEN_CHARGES')
f=open( 'psi4out.xyz', 'w' )
f.write( "22  " )
f.write( str(ee) + "\n" )
f.write( MOL.save_string_xyz() )
f.close()
--------------------------------------------------------------------------

    Molecular point group: c1
  Charge       = 0
  Multiplicity = 1
  Basis Set: 6-31G*
  Basis Set:
  @DF-RHF Final Energy:  -348.09481259469629
    Total Energy =                       -348.0948125946963501
    Molecular point group: c1
  Basis Set: 6-31G*
  Basis Set:
  Basis Set: 6-31G*
  Basis Set:
  @DF-RHF Final Energy:  -348.09555799781089
    Total Energy =                       -348.0955579978103742
  Basis Set: 6-31G*
  Basis Set:
  Basis Set: 6-31G*
  Basis Set:
  @DF-RHF Final Energy:  -348.09679282512769
    Total Energy =                       -348.0967928251277499
  Basis Set: 6-31G*
  Basis Set:
  Basis Set: 6-31G*
  Basis Set:
  @DF-RHF Final Energy:  -348.09672954946944
    Total Energy =                       -348.0967295494695577
  Basis Set: 6-31G*
  Basis Set:
  @DF-RHF Final Energy:  -348.09739268098411
    Total Energy =                       -348.0973926809840577
  @DF-RHF Final Energy:  -348.09745120037593
    Total Energy =                       -348.0974512003755308
  @DF-RHF Final Energy:  -348.09725479646158
    Total Energy =                       -348.0972547964612431
  @DF-RHF Final Energy:  -348.09757751308797
    Total Energy =                       -348.0975775130877992
  @DF-RHF Final Energy:  -348.09755884932503
    Total Energy =                       -348.0975588493250825
  Basis Set: 6-31G*
  Basis Set:
  @DF-RHF Final Energy:  -348.09759771361644
    Total Energy =                       -348.0975977136165511
  Basis Set: 6-31G*
  Basis Set:
  Basis Set: 6-31G*
  Basis Set:
  @DF-RHF Final Energy:  -348.09759081178959
    Total Energy =                       -348.0975908117889617
  Basis Set: 6-31G*
  Basis Set:
  Basis Set: 6-31G*
  Basis Set:
  @DF-RHF Final Energy:  -348.09760228446959
    Total Energy =                       -348.0976022844698718
  Basis Set: 6-31G*
  Basis Set:
  Charge       = 0
  Multiplicity = 1
  Basis Set: 6-31G*
  Basis Set:

    Orbital Energies (a.u.)
    -----------------------

    Doubly Occupied:

       1A    -20.547475     2A    -11.324482     3A    -11.232114
       4A    -11.229985     5A    -11.227409     6A    -11.224804
       7A    -11.223117     8A    -11.214416     9A     -1.392941
      10A     -1.099017    11A     -1.046106    12A     -0.996401
      13A     -0.940575    14A     -0.862896    15A     -0.789255
      16A     -0.732461    17A     -0.662507    18A     -0.645203
      19A     -0.632409    20A     -0.615689    21A     -0.604432
      22A     -0.584752    23A     -0.558349    24A     -0.540952
      25A     -0.533388    26A     -0.525596    27A     -0.499428
      28A     -0.486047    29A     -0.472875    30A     -0.469528
      31A     -0.464374    32A     -0.396387

  @DF-RHF Final Energy:  -348.09760272110395

   => Energetics <=

    Nuclear Repulsion Energy =            372.7377066854392069
    One-Electron Energy =               -1210.1198774678282462
    Two-Electron Energy =                 489.2845680612851993
    DFT Exchange-Correlation Energy =       0.0000000000000000
    Empirical Dispersion Energy =           0.0000000000000000
    PCM Polarization Energy =               0.0000000000000000
    EFP Energy =                            0.0000000000000000
    Total Energy =                       -348.0976027211038399
    Molecular point group: c1
  Basis Set: 6-31G*
  Basis Set:

  -Total Gradient:
     Atom            X                  Y                   Z
    ------   -----------------  -----------------  -----------------
       1       -0.000468649858    -0.000275161400    -0.000711615126
       2        0.000740363894     0.000401055329     0.001163537629
       3       -0.000668715958    -0.000252484312    -0.001187951244
       4       -0.000007756012     0.000011685887     0.000003585059
       5       -0.000012235161    -0.000014541503    -0.000015521040
       6        0.000418749034     0.000128387594     0.000752072021
       7        0.000012402702    -0.000007160134     0.000004909616
       8        0.000002632650     0.000003687429    -0.000008013536
       9       -0.000007738567     0.000008734193    -0.000023072674
      10       -0.000004492171    -0.000009629432     0.000016328637
      11       -0.000015410247    -0.000003383775     0.000003458871
      12        0.000004075043     0.000000477241     0.000005344754
      13       -0.000000755773     0.000004908980    -0.000005758535
      14        0.000006557272     0.000003314162     0.000003754865
      15       -0.000007258557     0.000007151335    -0.000005922981
      16        0.000001440287    -0.000005459255    -0.000000238706
      17        0.000005605572     0.000000645936     0.000003184062
      18       -0.000003230400     0.000001358599     0.000002507150
      19        0.000004093649    -0.000000422164    -0.000001472435
      20        0.000007473991     0.000006383506    -0.000003729819
      21       -0.000007720984    -0.000005156186     0.000001163993
      22        0.000000569595    -0.000004392035     0.000003449437

  **** Optimization is complete! (in 13 steps) ****
    Final optimized geometry and variables:
    Molecular point group: c1

    Geometry (in Angstrom), charge = 0, multiplicity = 1:

    O           -2.006943759694     2.287125968162    -0.689144283738
    C           -1.781412531986     1.146384913465    -0.420645646584
    C           -0.552934880083     0.442363445627    -0.970102860726
    C           -2.730759545833     0.349326526050     0.450525196543
    C            0.256229536144    -0.352736509908     0.063072613423
    H            0.066235906002     1.203614852358    -1.429397417049
    H           -0.888086234120    -0.227931479510    -1.760804578224
    C            1.521821941172    -0.959464619606    -0.549121455663
    H            0.520921780440     0.303120827535     0.888010509227
    H           -0.352468380254    -1.150201327778     0.481994564209
    C            2.331899160179    -1.841328212606     0.407682769313
    H            2.156912859801    -0.160155778685    -0.926086759303
    H            1.238129683437    -1.555843702515    -1.413846209173
    C            2.954477250912    -1.093597980831     1.588161277339
    H            3.125733617682    -2.320650511547    -0.159395959768
    H            1.699015697775    -2.644246728787     0.780325968997
    H            3.583394714035    -0.276740864120     1.244858352010
    H            3.573592919314    -1.759370754950     2.181202895787
    H            2.201876638813    -0.676498783093     2.249123691276
    H           -2.931284263981    -0.628090693287     0.022842526945
    H           -3.655455254194     0.897609709924     0.565200840666
    H           -2.292437618434     0.190528191942     1.431396496331

  Mulliken Charges: (a.u.)
   Center  Symbol    Alpha    Beta     Spin     Total
       1     O     4.26185  4.26185  0.00000 -0.52369
       2     C     2.73132  2.73132  0.00000  0.53735
       3     C     3.20641  3.20641  0.00000 -0.41282
       4     C     3.29126  3.29126  0.00000 -0.58252
       5     C     3.16631  3.16631  0.00000 -0.33262
       6     H     0.39901  0.39901  0.00000  0.20199
       7     H     0.40984  0.40984  0.00000  0.18031
       8     C     3.15279  3.15279  0.00000 -0.30559
       9     H     0.41394  0.41394  0.00000  0.17212
      10     H     0.41935  0.41935  0.00000  0.16130
      11     C     3.15328  3.15328  0.00000 -0.30656
      12     H     0.41976  0.41976  0.00000  0.16049
      13     H     0.42067  0.42067  0.00000  0.15866
      14     C     3.24185  3.24185  0.00000 -0.48369
      15     H     0.41872  0.41872  0.00000  0.16256
      16     H     0.42294  0.42294  0.00000  0.15412
      17     H     0.42045  0.42045  0.00000  0.15911
      18     H     0.41759  0.41759  0.00000  0.16483
      19     H     0.42047  0.42047  0.00000  0.15907
      20     H     0.41139  0.41139  0.00000  0.17722
      21     H     0.39599  0.39599  0.00000  0.20801
      22     H     0.40482  0.40482  0.00000  0.19036

   Total alpha = 32.00000, Total beta = 32.00000, Total charge =  0.00000
