                              Psi4 1.0.54 Driver

  ==> Input File <==

--------------------------------------------------------------------------
set {
	reference rhf
	basis cc-pvtz
}

set_num_threads( 4 )
memory 2 gb

molecule MOL {
0 1

O	 -1.168761	 -4.330436	 -0.654974
C	 -0.494713	 -3.858143	 -1.511729
C	 -0.067436	 -2.404646	 -1.458525
C	 -0.013418	 -4.679678	 -2.683993
C	 1.182643	 -2.229815	 -0.586987
H	 -0.887078	 -1.837420	 -1.035970
H	 0.125405	 -2.032253	 -2.459025
C	 1.630207	 -0.772146	 -0.501001
H	 0.965739	 -2.618918	 0.399816
H	 1.996060	 -2.829460	 -0.988330
C	 2.907848	 -0.545876	 0.309149
H	 0.825914	 -0.176646	 -0.076183
H	 1.788220	 -0.395595	 -1.507899
C	 3.373802	 0.906639	 0.372125
H	 3.699140	 -1.146831	 -0.127906
H	 2.764321	 -0.923458	 1.318191
H	 3.519798	 1.311927	 -0.623875
H	 4.316899	 0.983758	 0.900700
H	 2.661122	 1.540651	 0.885346
H	 -0.494914	 -4.325084	 -3.589765
H	 -0.253633	 -5.720762	 -2.532298
H	 1.055403	 -4.560595	 -2.821948

	symmetry c1
}
set optking {
	frozen_dihedral = ("
		12 8 11 15
	")
}

ee,wfn = optimize('scf', return_wfn=True)
oeprop( wfn, 'DIPOLE', 'QUADRUPOLE', 'MULLIKEN_CHARGES')
f=open( 'psi4out.xyz', 'w' )
f.write( "22  " )
f.write( str(ee) + "\n" )
f.write( MOL.save_string_xyz() )
f.close()
--------------------------------------------------------------------------

    Molecular point group: c1
  Charge       = 0
  Multiplicity = 1
  Basis Set: CC-PVTZ
  Basis Set:
  @DF-RHF Final Energy:  -348.22480080617498
    Total Energy =                       -348.2248008061752671
    Molecular point group: c1
  Basis Set: CC-PVTZ
  Basis Set:
  Basis Set: CC-PVTZ
  Basis Set:
  @DF-RHF Final Energy:  -348.22494677673410
    Total Energy =                       -348.2249467767337592
  Basis Set: CC-PVTZ
  Basis Set:
  Basis Set: CC-PVTZ
  Basis Set:
  @DF-RHF Final Energy:  -348.22507253492597
    Total Energy =                       -348.2250725349260847
  Basis Set: CC-PVTZ
  Basis Set:
  Basis Set: CC-PVTZ
  Basis Set:
  @DF-RHF Final Energy:  -348.22500039750480
    Total Energy =                       -348.2250003975047434
  Basis Set: CC-PVTZ
  Basis Set:
  Basis Set: CC-PVTZ
  Basis Set:
  @DF-RHF Final Energy:  -348.22518108748261
    Total Energy =                       -348.2251810874826106
  Basis Set: CC-PVTZ
  Basis Set:
  Charge       = 0
  Multiplicity = 1
  Basis Set: CC-PVTZ
  Basis Set:

    Orbital Energies (a.u.)
    -----------------------

    Doubly Occupied:

       1A    -20.536737     2A    -11.319277     3A    -11.228427
       4A    -11.227616     5A    -11.226904     6A    -11.220464
       7A    -11.218820     8A    -11.210971     9A     -1.396823
      10A     -1.097780    11A     -1.047269    12A     -1.001647
      13A     -0.940096    14A     -0.846271    15A     -0.799508
      16A     -0.733763    17A     -0.667642    18A     -0.649476
      19A     -0.633691    20A     -0.610348    21A     -0.593893
      22A     -0.585255    23A     -0.563186    24A     -0.553302
      25A     -0.530698    26A     -0.517518    27A     -0.498578
      28A     -0.486313    29A     -0.476174    30A     -0.470828
      31A     -0.462360    32A     -0.398439

  @DF-RHF Final Energy:  -348.22518059958969

   => Energetics <=

    Nuclear Repulsion Energy =            369.2934400122773582
    One-Electron Energy =               -1203.5370964085427659
    Two-Electron Energy =                 486.0184757966751476
    DFT Exchange-Correlation Energy =       0.0000000000000000
    Empirical Dispersion Energy =           0.0000000000000000
    PCM Polarization Energy =               0.0000000000000000
    EFP Energy =                            0.0000000000000000
    Total Energy =                       -348.2251805995902032
    Molecular point group: c1
  Basis Set: CC-PVTZ
  Basis Set:

  -Total Gradient:
     Atom            X                  Y                   Z
    ------   -----------------  -----------------  -----------------
       1       -0.000048427034    -0.000020275394     0.000078443028
       2        0.000128934591    -0.000016336440    -0.000085472984
       3        0.000002640217     0.000015411236    -0.000032723844
       4       -0.000078643968    -0.000005742046    -0.000006869554
       5        0.000004278481    -0.000006008238     0.000068741522
       6       -0.000025705628    -0.000004789471     0.000030685921
       7       -0.000002206909     0.000043095800    -0.000002655349
       8        0.000009404487     0.000000213662    -0.000030913987
       9       -0.000022674226     0.000025525111     0.000042026701
      10       -0.000002685371    -0.000026585340    -0.000014070558
      11        0.000013991907    -0.000022896897    -0.000037998255
      12       -0.000013831422    -0.000008390149     0.000011571130
      13        0.000004508288     0.000024504215    -0.000029245347
      14       -0.000023767196    -0.000003692279     0.000001080033
      15        0.000019406708    -0.000026809009    -0.000002231144
      16       -0.000010981380    -0.000004921833     0.000017197636
      17        0.000003785065     0.000008820070    -0.000035778291
      18        0.000030029857    -0.000006827792     0.000015667973
      19       -0.000029575301     0.000034867886     0.000026192123
      20        0.000005736770     0.000007845017    -0.000026132452
      21       -0.000002862155    -0.000021219920     0.000005995647
      22        0.000038644220     0.000014211812     0.000006490050

  **** Optimization is complete! (in 6 steps) ****
    Final optimized geometry and variables:
    Molecular point group: c1

    Geometry (in Angstrom), charge = 0, multiplicity = 1:

    O           -1.969071996714    -2.182031991632     0.347475090555
    C           -1.387456680497    -1.683964944380    -0.560824967808
    C           -1.031255614209    -0.210644810170    -0.547589062383
    C           -0.958825514778    -2.490105740727    -1.763806673925
    C            0.281865619178     0.032488145420     0.206498571513
    H           -1.837404049610     0.316923940559    -0.053940784094
    H           -0.947811191429     0.164909433250    -1.562044157622
    C            0.672382339767     1.506797483708     0.247695551950
    H            0.176282857578    -0.347276238592     1.216841389362
    H            1.082553900444    -0.537359042680    -0.257925692457
    C            1.971929587051     1.763211481662     1.005438724825
    H           -0.130543203402     2.075949263266     0.709182548160
    H            0.768837161917     1.883521131982    -0.767878243044
    C            2.357401098571     3.238075109415     1.048535355659
    H            2.774840858559     1.194396084126     0.544360033151
    H            1.875238699854     1.386153398491     2.019599522229
    H            2.494252688985     3.636607921409     0.048671770585
    H            3.283237118087     3.385436375772     1.592409840751
    H            1.589601889477     3.829123777401     1.536573255740
    H           -1.529648122770    -2.169251138718    -2.629395462382
    H           -1.131477889897    -3.540760439104    -1.587986367627
    H            0.087739102941    -2.317359988670    -1.988438744935

  Mulliken Charges: (a.u.)
   Center  Symbol    Alpha    Beta     Spin     Total
       1     O     4.17809  4.17809  0.00000 -0.35619
       2     C     2.85836  2.85836  0.00000  0.28327
       3     C     3.09791  3.09791  0.00000 -0.19582
       4     C     3.15518  3.15518  0.00000 -0.31036
       5     C     3.10086  3.10086  0.00000 -0.20172
       6     H     0.43903  0.43903  0.00000  0.12195
       7     H     0.44935  0.44935  0.00000  0.10131
       8     C     3.08757  3.08757  0.00000 -0.17513
       9     H     0.44070  0.44070  0.00000  0.11859
      10     H     0.45244  0.45244  0.00000  0.09512
      11     C     3.08464  3.08464  0.00000 -0.16927
      12     H     0.45193  0.45193  0.00000  0.09614
      13     H     0.45465  0.45465  0.00000  0.09070
      14     C     3.15028  3.15028  0.00000 -0.30055
      15     H     0.45450  0.45450  0.00000  0.09100
      16     H     0.45228  0.45228  0.00000  0.09545
      17     H     0.45533  0.45533  0.00000  0.08934
      18     H     0.44742  0.44742  0.00000  0.10515
      19     H     0.45424  0.45424  0.00000  0.09151
      20     H     0.44835  0.44835  0.00000  0.10330
      21     H     0.43601  0.43601  0.00000  0.12798
      22     H     0.45088  0.45088  0.00000  0.09823

   Total alpha = 32.00000, Total beta = 32.00000, Total charge =  0.00000

*** Psi4 exiting successfully. Buy a developer a beer!
