                              Psi4 1.0.54 Driver

  ==> Input File <==

--------------------------------------------------------------------------
set {
	reference rhf
	basis cc-pvtz
}

set_num_threads( 4 )
memory 2 gb

molecule MOL {
0 1

H	 1.802240	 2.454291	 0.187700
N	 0.966272	 1.916500	 0.100935
C	 1.263552	 0.494993	 0.021953
H	 0.499126	 2.229281	 -0.724462
C	 -0.016533	 -0.325589	 -0.026925
H	 1.827825	 0.224752	 0.908270
H	 1.886799	 0.238773	 -0.835892
C	 -1.280353	 0.525521	 0.047747
H	 -0.016686	 -0.912532	 -0.939714
H	 -0.014099	 -1.037598	 0.796369
C	 -2.560681	 -0.301323	 -0.007747
H	 -1.279957	 1.241025	 -0.770189
H	 -1.270445	 1.110526	 0.963468
H	 -2.617064	 -0.872870	 -0.928010
H	 -3.439525	 0.331102	 0.043462
H	 -2.609427	 -1.002736	 0.818585

	symmetry c1
}
set optking {
	frozen_dihedral = ("
		6 3 5 9
	")
}

ee,wfn = optimize('scf', return_wfn=True)
oeprop( wfn, 'DIPOLE', 'QUADRUPOLE', 'MULLIKEN_CHARGES')
f=open( 'psi4out.xyz', 'w' )
f.write( "16  " )
f.write( str(ee) + "\n" )
f.write( MOL.save_string_xyz() )
f.close()
--------------------------------------------------------------------------

    Molecular point group: c1
  Charge       = 0
  Multiplicity = 1
  Basis Set: CC-PVTZ
  Basis Set:
  @DF-RHF Final Energy:  -212.38731865688308
    Total Energy =                       -212.3873186568828828
    Molecular point group: c1
  Basis Set: CC-PVTZ
  Basis Set:
  Basis Set: CC-PVTZ
  Basis Set:
  @DF-RHF Final Energy:  -212.38746260101414
    Total Energy =                       -212.3874626010141924
  Basis Set: CC-PVTZ
  Basis Set:
  Basis Set: CC-PVTZ
  Basis Set:
  @DF-RHF Final Energy:  -212.39034726462211
    Total Energy =                       -212.3903472646218802
  Basis Set: CC-PVTZ
  Basis Set:
  Basis Set: CC-PVTZ
  Basis Set:
  @DF-RHF Final Energy:  -212.39064276803802
    Total Energy =                       -212.3906427680380489
  Basis Set: CC-PVTZ
  Basis Set:
  Basis Set: CC-PVTZ
  Basis Set:
  @DF-RHF Final Energy:  -212.39066657259096
    Total Energy =                       -212.3906665725910443
  Basis Set: CC-PVTZ
  Basis Set:
  Basis Set: CC-PVTZ
  Basis Set:
  @DF-RHF Final Energy:  -212.39067450154170
    Total Energy =                       -212.3906745015416391
  Basis Set: CC-PVTZ
  Basis Set:
  Basis Set: CC-PVTZ
  Basis Set:
  @DF-RHF Final Energy:  -212.39067643588484
    Total Energy =                       -212.3906764358847568
  Basis Set: CC-PVTZ
  Basis Set:
  Charge       = 0
  Multiplicity = 1
  Basis Set: CC-PVTZ
  Basis Set:

    Orbital Energies (a.u.)
    -----------------------

    Doubly Occupied:

       1A    -15.526877     2A    -11.239399     3A    -11.208345
       4A    -11.205941     5A    -11.201718     6A     -1.177366
       7A     -1.052823     8A     -0.957024     9A     -0.851738
      10A     -0.776688    11A     -0.668595    12A     -0.633830
      13A     -0.604616    14A     -0.579236    15A     -0.555347
      16A     -0.524588    17A     -0.500182    18A     -0.467148
      19A     -0.465814    20A     -0.451480    21A     -0.380182

  @DF-RHF Final Energy:  -212.39067648158820

   => Energetics <=

    Nuclear Repulsion Energy =            189.2135047551227274
    One-Electron Energy =                -661.1504878669408072
    Two-Electron Energy =                 259.5463066302297648
    DFT Exchange-Correlation Energy =       0.0000000000000000
    Empirical Dispersion Energy =           0.0000000000000000
    PCM Polarization Energy =               0.0000000000000000
    EFP Energy =                            0.0000000000000000
    Total Energy =                       -212.3906764815883434
    Molecular point group: c1
  Basis Set: CC-PVTZ
  Basis Set:

  -Total Gradient:
     Atom            X                  Y                   Z
    ------   -----------------  -----------------  -----------------
       1        0.000011655246     0.000005502171     0.000001736180
       2       -0.000002056780     0.000000735987     0.000001240461
       3       -0.000647951635     0.001149318227     0.001087652117
       4       -0.000004384043    -0.000002119787    -0.000001914772
       5       -0.000578675627     0.001158848621    -0.001109239403
       6        0.000638473551    -0.001155642743    -0.000744640279
       7        0.000000952667     0.000002667333     0.000001106640
       8       -0.000007053039     0.000000523192    -0.000004443078
       9        0.000586625273    -0.001159138503     0.000773822753
      10       -0.000000604849    -0.000001406709    -0.000001323265
      11        0.000002657616    -0.000000281639     0.000000753006
      12       -0.000001314089     0.000003331231    -0.000005151023
      13        0.000000301580    -0.000003257286     0.000000585213
      14       -0.000000486043     0.000000764286    -0.000001665500
      15        0.000000542268     0.000000912262     0.000002156839
      16        0.000001317902    -0.000000756645    -0.000000675889

  **** Optimization is complete! (in 8 steps) ****
    Final optimized geometry and variables:
    Molecular point group: c1

    Geometry (in Angstrom), charge = 0, multiplicity = 1:

    H            2.379880041515     1.791778956292     0.186712718192
    N            1.481749572231     1.388796044893     0.024067333645
    C            1.576835188120    -0.064566629178     0.012462934978
    H            1.160516747083     1.739676919157    -0.853238563447
    C            0.208497121025    -0.789309595892    -0.033246343684
    H            2.099305368137    -0.356857967865     0.914686200898
    H            2.187465744920    -0.426810077497    -0.813114598736
    C           -1.037792910251     0.092204974717     0.023931326517
    H            0.163064124705    -1.404532404574    -0.926811704732
    H            0.163512752400    -1.488069804912     0.796429154155
    C           -2.320685899058    -0.733325416628     0.015923599158
    H           -1.052266443538     0.774250685338    -0.820437638080
    H           -1.005737806036     0.712474242380     0.910528625314
    H           -2.393137880109    -1.342696094366    -0.879285379073
    H           -3.196092919613    -0.094875064043     0.052062100751
    H           -2.363271424178    -1.400088892481     0.870987835784

  Mulliken Charges: (a.u.)
   Center  Symbol    Alpha    Beta     Spin     Total
       1     H     0.42922  0.42922  0.00000  0.14155
       2     N     3.68479  3.68479  0.00000 -0.36959
       3     C     3.03463  3.03463  0.00000 -0.06926
       4     H     0.43137  0.43137  0.00000  0.13726
       5     C     3.09804  3.09804  0.00000 -0.19607
       6     H     0.45606  0.45606  0.00000  0.08788
       7     H     0.46163  0.46163  0.00000  0.07675
       8     C     3.07969  3.07969  0.00000 -0.15939
       9     H     0.45327  0.45327  0.00000  0.09346
      10     H     0.45410  0.45410  0.00000  0.09180
      11     C     3.15158  3.15158  0.00000 -0.30316
      12     H     0.45966  0.45966  0.00000  0.08069
      13     H     0.44418  0.44418  0.00000  0.11165
      14     H     0.45729  0.45729  0.00000  0.08542
      15     H     0.44878  0.44878  0.00000  0.10245
      16     H     0.45572  0.45572  0.00000  0.08856

   Total alpha = 21.00000, Total beta = 21.00000, Total charge =  0.00000

*** Psi4 exiting successfully. Buy a developer a beer!
