                              Psi4 1.0.54 Driver

  ==> Input File <==

--------------------------------------------------------------------------
set {
	reference rhf
	basis cc-pvtz
}

set_num_threads( 4 )
memory 2 gb

molecule MOL {
0 1

H	 -4.340537	 -0.784487	 0.000000
O	 -3.958786	 0.074640	 0.000000
C	 -2.613554	 0.009900	 0.000000
C	 -1.917975	 1.131507	 0.419930
C	 -1.922518	 -1.118325	 -0.398075
H	 -2.464291	 2.001210	 0.726551
C	 -0.540961	 1.120100	 0.439875
H	 -2.455165	 -1.992330	 -0.725138
C	 -0.539696	 -1.128107	 -0.377437
H	 -0.004689	 1.988692	 0.765033
C	 0.145456	 -0.010883	 0.040716
H	 -0.008059	 -2.005171	 -0.686992
Br	 2.043587	 -0.021516	 0.070060

	symmetry c1
}
set optking {
	frozen_dihedral = ("
		4 3 2 1
	")
}

ee,wfn = optimize('scf', return_wfn=True)
oeprop( wfn, 'DIPOLE', 'QUADRUPOLE', 'MULLIKEN_CHARGES')
f=open( 'psi4out.xyz', 'w' )
f.write( "13  " )
f.write( str(ee) + "\n" )
f.write( MOL.save_string_xyz() )
f.close()
--------------------------------------------------------------------------

    Molecular point group: c1
  Charge       = 0
  Multiplicity = 1
  Basis Set: CC-PVTZ
  Basis Set:
  @DF-RHF Final Energy: -2877.54645631962467
    Total Energy =                      -2877.5464563196246672
    Molecular point group: c1
  Basis Set: CC-PVTZ
  Basis Set:
  Basis Set: CC-PVTZ
  Basis Set:
  @DF-RHF Final Energy: -2877.54647139931649
    Total Energy =                      -2877.5464713993201258
  Basis Set: CC-PVTZ
  Basis Set:
  Charge       = 0
  Multiplicity = 1
  Basis Set: CC-PVTZ
  Basis Set:

    Orbital Energies (a.u.)
    -----------------------

    Doubly Occupied:

       1A   -490.018674     2A    -65.158996     3A    -58.514222
       4A    -58.512854     5A    -58.512849     6A    -20.595249
       7A    -11.311091     8A    -11.288335     9A    -11.253895
      10A    -11.252227    11A    -11.242803    12A    -11.237751
      13A     -9.832791    14A     -7.444411    15A     -7.437659
      16A     -7.437591    17A     -3.188100    18A     -3.184545
      19A     -3.184446    20A     -3.175794    21A     -3.175790
      22A     -1.426479    23A     -1.179966    24A     -1.066830
      25A     -1.042158    26A     -0.970531    27A     -0.869043
      28A     -0.828038    29A     -0.757986    30A     -0.689024
      31A     -0.654234    32A     -0.631706    33A     -0.610254
      34A     -0.607170    35A     -0.576173    36A     -0.524013
      37A     -0.511228    38A     -0.501471    39A     -0.428318
      40A     -0.413811    41A     -0.360260    42A     -0.318483

  @DF-RHF Final Energy: -2877.54647464944037

   => Energetics <=

    Nuclear Repulsion Energy =            525.4748704655531810
    One-Electron Energy =               -5042.1881833252864453
    Two-Electron Energy =                1639.1668382102941450
    DFT Exchange-Correlation Energy =       0.0000000000000000
    Empirical Dispersion Energy =           0.0000000000000000
    PCM Polarization Energy =               0.0000000000000000
    EFP Energy =                            0.0000000000000000
    Total Energy =                      -2877.5464746494390056
    Molecular point group: c1
  Basis Set: CC-PVTZ
  Basis Set:

  -Total Gradient:
     Atom            X                  Y                   Z
    ------   -----------------  -----------------  -----------------
       1       -0.000032656907     0.000000430949     0.001863543973
       2        0.000087949419    -0.000246946914    -0.001743390785
       3       -0.000140875500     0.000516392812    -0.001497754275
       4        0.000232550880    -0.000362239210     0.001260830467
       5       -0.000150808819     0.000056016540     0.000139405861
       6       -0.000018823987    -0.000015740530     0.000019728445
       7       -0.000156247951     0.000107792222     0.000069380431
       8        0.000011083132     0.000013341924    -0.000023556417
       9        0.000163550686     0.000120645770    -0.000006993739
      10        0.000010638373     0.000005391098    -0.000005660266
      11       -0.000012326956    -0.000185875581    -0.000085816343
      12       -0.000011511504    -0.000017700398     0.000002474676
      13        0.000017479993     0.000008491314     0.000007807976

  **** Optimization is complete! (in 3 steps) ****
    Final optimized geometry and variables:
    Molecular point group: c1

    Geometry (in Angstrom), charge = 0, multiplicity = 1:

    H           -4.340258774397    -0.779052844250    -0.045636300962
    O           -3.960002032341     0.080840990701    -0.044660096204
    C           -2.612747741280     0.017230094725    -0.037400254408
    C           -1.917037693958     1.137481005336     0.384025215204
    C           -1.922215567125    -1.111771571961    -0.434156980526
    H           -2.463266962673     2.005395439486     0.695958437675
    C           -0.539350391783     1.128752543481     0.397192644166
    H           -2.456241648069    -1.982587007366    -0.766797857244
    C           -0.539598137546    -1.122580710371    -0.412888075598
    H           -0.002750633839     1.997421258191     0.721606869921
    C            0.145948486387    -0.003099823084    -0.000130284531
    H           -0.008180606859    -2.000314514037    -0.720937852703
    BR           2.043924834685    -0.013686366145     0.026246626892

  Mulliken Charges: (a.u.)
   Center  Symbol    Alpha    Beta     Spin     Total
       1     H     0.38563  0.38563  0.00000  0.22875
       2     O     4.17316  4.17316  0.00000 -0.34632
       3     C     2.86238  2.86238  0.00000  0.27525
       4     C     3.09307  3.09307  0.00000 -0.18613
       5     C     3.11641  3.11641  0.00000 -0.23282
       6     H     0.41546  0.41546  0.00000  0.16908
       7     C     3.07778  3.07778  0.00000 -0.15556
       8     H     0.42861  0.42861  0.00000  0.14278
       9     C     3.08474  3.08474  0.00000 -0.16949
      10     H     0.41060  0.41060  0.00000  0.17881
      11     C     2.97493  2.97493  0.00000  0.05014
      12     H     0.41057  0.41057  0.00000  0.17885
      13    BR    17.56667 17.56667  0.00000 -0.13334

   Total alpha = 42.00000, Total beta = 42.00000, Total charge = -0.00000

*** Psi4 exiting successfully. Buy a developer a beer!
