  ==> Input File <==

--------------------------------------------------------------------------
set {
	reference rhf
	basis 6-31G*
}

set_num_threads( 4 )
memory 2 gb

molecule MOL {
0 1

O	 1.596437	 -0.343955	 0.382067
C	 0.576249	 0.131685	 -0.000108
C	 -0.766779	 -0.556801	 -0.000461
O	 0.486100	 1.362229	 -0.488265
C	 -1.945214	 0.412366	 0.000161
H	 -0.796911	 -1.211249	 -0.867467
H	 -0.796854	 -1.212390	 0.865687
C	 -3.287791	 -0.317055	 0.000105
H	 -1.876087	 1.060580	 -0.866812
H	 -1.875822	 1.059691	 0.867761
H	 -3.394745	 -0.949193	 -0.877058
H	 -4.111778	 0.388953	 0.000015
H	 -3.394954	 -0.949187	 0.877259
C	 1.680607	 2.120699	 -0.543814
H	 2.094086	 2.251354	 0.445886
H	 1.404426	 3.075706	 -0.962802
H	 2.411537	 1.633051	 -1.172663

	symmetry c1
}
set optking {
	frozen_dihedral = ("
		1 2 3 6
	")
}

ee = optimize('scf')
oeprop('DIPOLE', 'QUADRUPOLE', 'MULLIKEN_CHARGES')
f=open( 'psi4out.xyz', 'w' )
f.write( "17  " )
f.write( str(ee) + "\n" )
f.write( MOL.save_string_xyz() )
f.close()
--------------------------------------------------------------------------

    Molecular point group: c1
  Charge       = 0
  Multiplicity = 1
  Basis Set: 6-31G*
  Basis Set:
  @DF-RHF Final Energy:  -344.90350862753280
    Total Energy =                       -344.9035086275328013
    Molecular point group: c1
  Basis Set: 6-31G*
  Basis Set:
  Basis Set: 6-31G*
  Basis Set:
  @DF-RHF Final Energy:  -344.90347989936669
    Total Energy =                       -344.9034798993665163
  Basis Set: 6-31G*
  Basis Set:
  Basis Set: 6-31G*
  Basis Set:
  @DF-RHF Final Energy:  -344.90357757630363
    Total Energy =                       -344.9035775763036327
  Basis Set: 6-31G*
  Basis Set:
  Basis Set: 6-31G*
  Basis Set:
  @DF-RHF Final Energy:  -344.90453855988994
    Total Energy =                       -344.9045385598897155
  Basis Set: 6-31G*
  Basis Set:
  Basis Set: 6-31G*
  Basis Set:
  @DF-RHF Final Energy:  -344.90459038218046
    Total Energy =                       -344.9045903821803449
  Basis Set: 6-31G*
  Basis Set:
  Basis Set: 6-31G*
  Basis Set:
  @DF-RHF Final Energy:  -344.90459763880671
    Total Energy =                       -344.9045976388069903
  Basis Set: 6-31G*
  Basis Set:
  Basis Set: 6-31G*
  Basis Set:
  @DF-RHF Final Energy:  -344.90460014234026
    Total Energy =                       -344.9046001423404846
  Basis Set: 6-31G*
  Basis Set:
  Charge       = 0
  Multiplicity = 1
  Basis Set: 6-31G*
  Basis Set:

    Orbital Energies (a.u.)
    -----------------------

    Doubly Occupied:

       1A    -20.606400     2A    -20.541723     3A    -11.372568
       4A    -11.281811     5A    -11.236109     6A    -11.226903
       7A    -11.217099     8A     -1.470372     9A     -1.361439
      10A     -1.083181    11A     -0.997607    12A     -0.943108
      13A     -0.831495    14A     -0.775065    15A     -0.696790
      16A     -0.683067    17A     -0.670732    18A     -0.637873
      19A     -0.595918    20A     -0.573021    21A     -0.557299
      22A     -0.533551    23A     -0.523565    24A     -0.514731
      25A     -0.490159    26A     -0.482292    27A     -0.453608
      28A     -0.430799

  @DF-RHF Final Energy:  -344.90460034158536

   => Energetics <=

    Nuclear Repulsion Energy =            314.2718451167356761
    One-Electron Energy =               -1092.7763223730125901
    Two-Electron Energy =                 433.5998769146915492
    DFT Exchange-Correlation Energy =       0.0000000000000000
    Empirical Dispersion Energy =           0.0000000000000000
    PCM Polarization Energy =               0.0000000000000000
    EFP Energy =                            0.0000000000000000
    Total Energy =                       -344.9046003415853647
    Molecular point group: c1
  Basis Set: 6-31G*
  Basis Set:

  -Total Gradient:
     Atom            X                  Y                   Z
    ------   -----------------  -----------------  -----------------
       1        0.000148712875    -0.000282216491    -0.000755105979
       2       -0.000136973763     0.000253742071     0.001167188498
       3       -0.000287907514     0.000602331758    -0.000816730674
       4        0.000010486079     0.000033511862    -0.000011078883
       5       -0.000012033765    -0.000001221158    -0.000003936382
       6        0.000287624635    -0.000601160468     0.000415610790
       7        0.000000548529    -0.000003772954     0.000002002655
       8        0.000004607780     0.000002601926    -0.000004703290
       9       -0.000007379738    -0.000004382212     0.000003444772
      10       -0.000001426259     0.000000995227    -0.000002132348
      11       -0.000005674492     0.000000334363    -0.000003570681
      12        0.000003536421     0.000001453163     0.000003743484
      13        0.000007533089    -0.000000031614    -0.000003399249
      14       -0.000010735645     0.000001753403     0.000019233166
      15        0.000002673146     0.000001742935    -0.000004526413
      16       -0.000001999748    -0.000000973814    -0.000003555589
      17       -0.000001591634    -0.000004707998    -0.000002483879

  **** Optimization is complete! (in 8 steps) ****
    Final optimized geometry and variables:
    Molecular point group: c1

    Geometry (in Angstrom), charge = 0, multiplicity = 1:

    O            1.777139985734    -0.772086184630     0.483818367142
    C            0.780454824691    -0.248850830530     0.099447078598
    C           -0.569242722830    -0.930130745928     0.080031261554
    O            0.754209758614     0.980023126075    -0.394780971694
    C           -1.793696869687    -0.014445091205     0.092613676469
    H           -0.577601858738    -1.560120972236    -0.807146158244
    H           -0.578615388814    -1.607203521173     0.926449366143
    C           -3.096559065439    -0.812661916303     0.119077499472
    H           -1.775013534018     0.630693568260    -0.777845248355
    H           -1.749285890345     0.638072676472     0.959901340976
    H           -3.182987078844    -1.454141930299    -0.753459690478
    H           -3.956320788644    -0.150704554123     0.128470721069
    H           -3.155591499716    -1.444425993339     1.000631802939
    C            1.986838253002     1.676000740738    -0.448840095672
    H            2.404299843776     1.784948043531     0.541542507674
    H            1.760639031121     2.643508708357    -0.869121281784
    H            2.691750391648     1.149563217595    -1.075837727397

  Mulliken Charges: (a.u.)
   Center  Symbol    Alpha    Beta     Spin     Total
       1     O     4.28855  4.28855  0.00000 -0.57710
       2     C     2.60660  2.60660  0.00000  0.78680
       3     C     3.20735  3.20735  0.00000 -0.41471
       4     O     4.30349  4.30349  0.00000 -0.60698
       5     C     3.15368  3.15368  0.00000 -0.30736
       6     H     0.40038  0.40038  0.00000  0.19924
       7     H     0.39804  0.39804  0.00000  0.20392
       8     C     3.24287  3.24287  0.00000 -0.48574
       9     H     0.40930  0.40930  0.00000  0.18140
      10     H     0.41652  0.41652  0.00000  0.16695
      11     H     0.42036  0.42036  0.00000  0.15928
      12     H     0.41546  0.41546  0.00000  0.16907
      13     H     0.41962  0.41962  0.00000  0.16077
      14     C     3.09263  3.09263  0.00000 -0.18526
      15     H     0.40812  0.40812  0.00000  0.18376
      16     H     0.40861  0.40861  0.00000  0.18278
      17     H     0.40841  0.40841  0.00000  0.18318

   Total alpha = 28.00000, Total beta = 28.00000, Total charge = -0.00000
