  ==> Input File <==

--------------------------------------------------------------------------
set {
	reference rhf
	basis cc-pvtz
}

set_num_threads( 4 )
memory 2 gb

molecule MOL {
0 1

H	 -2.698799	 -0.000846	 0.036018
C	 -1.694291	 -0.000483	 0.434279
O	 -0.828718	 -0.000608	 -0.655022
H	 -1.576855	 0.881100	 1.056504
H	 -1.576401	 -0.881658	 1.057001
C	 -1.370848	 -0.001135	 -1.952701
C	 -2.163665	 -1.267597	 -2.255661
C	 -2.163945	 1.264922	 -2.256586
H	 -0.493485	 -0.001271	 -2.587409
H	 -1.586287	 -2.145581	 -1.993293
H	 -2.391543	 -1.314041	 -3.314274
H	 -3.103948	 -1.301110	 -1.717769
H	 -1.586743	 2.143229	 -1.994940
H	 -2.391943	 1.310508	 -3.315223
H	 -3.104167	 1.298650	 -1.718640

	symmetry c1
}
set optking {
	frozen_dihedral = ("
		6 3 2 1
	")
}

ee = optimize('scf')
oeprop('DIPOLE', 'QUADRUPOLE', 'MULLIKEN_CHARGES')
f=open( 'psi4out.xyz', 'w' )
f.write( "15  " )
f.write( str(ee) + "\n" )
f.write( MOL.save_string_xyz() )
f.close()
--------------------------------------------------------------------------

    Molecular point group: c1
  Charge       = 0
  Multiplicity = 1
  Basis Set: CC-PVTZ
  Basis Set:
  @DF-RHF Final Energy:  -232.22166427044488
    Total Energy =                       -232.2216642704449896
    Molecular point group: c1
  Basis Set: CC-PVTZ
  Basis Set:
  Basis Set: CC-PVTZ
  Basis Set:
  @DF-RHF Final Energy:  -232.22325953237970
    Total Energy =                       -232.2232595323798137
  Basis Set: CC-PVTZ
  Basis Set:
  Basis Set: CC-PVTZ
  Basis Set:
  @DF-RHF Final Energy:  -232.22381804853961
    Total Energy =                       -232.2238180485397265
  Basis Set: CC-PVTZ
  Basis Set:
  Basis Set: CC-PVTZ
  Basis Set:
  @DF-RHF Final Energy:  -232.22382599184354
    Total Energy =                       -232.2238259918436256
  Basis Set: CC-PVTZ
  Basis Set:
  Charge       = 0
  Multiplicity = 1
  Basis Set: CC-PVTZ
  Basis Set:

    Orbital Energies (a.u.)
    -----------------------

    Doubly Occupied:

       1A    -20.539308     2A    -11.273286     3A    -11.258905
       4A    -11.208599     5A    -11.208582     6A     -1.371045
       7A     -1.050982     8A     -0.940331     9A     -0.931785
      10A     -0.781819    11A     -0.677159    12A     -0.640271
      13A     -0.633634    14A     -0.570215    15A     -0.563639
      16A     -0.552277    17A     -0.538287    18A     -0.501372
      19A     -0.498628    20A     -0.443356    21A     -0.405833

  @DF-RHF Final Energy:  -232.22383185646265

   => Energetics <=

    Nuclear Repulsion Energy =            198.8565799162535086
    One-Electron Energy =                -708.9822009071199318
    Two-Electron Energy =                 277.9017891344038844
    DFT Exchange-Correlation Energy =       0.0000000000000000
    Empirical Dispersion Energy =           0.0000000000000000
    PCM Polarization Energy =               0.0000000000000000
    EFP Energy =                            0.0000000000000000
    Total Energy =                       -232.2238318564625388
    Molecular point group: c1
  Basis Set: CC-PVTZ
  Basis Set:

  -Total Gradient:
     Atom            X                  Y                   Z
    ------   -----------------  -----------------  -----------------
       1        0.000010409403    -0.000000711030    -0.000034476180
       2        0.000033734730    -0.000001721953    -0.000015440626
       3       -0.000068501615    -0.000000079529     0.000009585651
       4        0.000012884936     0.000010098348    -0.000010534186
       5        0.000013020937    -0.000009984484    -0.000010352229
       6       -0.000001825021     0.000001144779     0.000039944295
       7       -0.000016102268    -0.000024328799     0.000005640730
       8       -0.000016678978     0.000024481817     0.000003578831
       9        0.000016660242     0.000000005536     0.000013284181
      10       -0.000008473223    -0.000006494618     0.000001359528
      11        0.000007465999     0.000003554609     0.000001939655
      12        0.000008783841    -0.000001889999    -0.000002877936
      13       -0.000008523622     0.000006857688     0.000001278069
      14        0.000007594707    -0.000003348448     0.000002262443
      15        0.000009549933     0.000002416081    -0.000005192227

  **** Optimization is complete! (in 5 steps) ****
    Final optimized geometry and variables:
    Molecular point group: c1

    Geometry (in Angstrom), charge = 0, multiplicity = 1:

    H           -1.107804202119     0.000186156466     1.462871960275
    C           -0.065970833402     0.000504222338     1.756067564312
    O            0.809825090967     0.000360152766     0.669229534953
    H            0.110754644754     0.880159985944     2.364319999759
    H            0.111139063755    -0.878697816658     2.364864011307
    C            0.291514988696    -0.000162775462    -0.637350723493
    C           -0.491787212240    -1.269950772724    -0.950653289088
    C           -0.492071566214     1.269224293823    -0.951568285122
    H            1.179271639800    -0.000284788502    -1.257482402381
    H            0.102105483538    -2.143662381910    -0.712265217044
    H           -0.739799192476    -1.303496659674    -2.005393625630
    H           -1.420147578127    -1.326297088959    -0.393957476300
    H            0.101612203324     2.143240722919    -0.713777599025
    H           -0.740059392065     1.301971506168    -2.006339250727
    H           -1.420462233298     1.325748988812    -0.394942134515

  Mulliken Charges: (a.u.)
   Center  Symbol    Alpha    Beta     Spin     Total
       1     H     0.46936  0.46936  0.00000  0.06127
       2     C     3.03811  3.03811  0.00000 -0.07622
       3     O     4.18788  4.18788  0.00000 -0.37577
       4     H     0.45364  0.45364  0.00000  0.09271
       5     H     0.45364  0.45364  0.00000  0.09271
       6     C     2.93956  2.93956  0.00000  0.12087
       7     C     3.15480  3.15480  0.00000 -0.30960
       8     C     3.15480  3.15480  0.00000 -0.30959
       9     H     0.44599  0.44599  0.00000  0.10802
      10     H     0.44494  0.44494  0.00000  0.11012
      11     H     0.45064  0.45064  0.00000  0.09872
      12     H     0.45553  0.45553  0.00000  0.08895
      13     H     0.44494  0.44494  0.00000  0.11012
      14     H     0.45064  0.45064  0.00000  0.09872
      15     H     0.45553  0.45553  0.00000  0.08895

   Total alpha = 21.00000, Total beta = 21.00000, Total charge = -0.00000
