  ==> Input File <==

--------------------------------------------------------------------------
set {
	reference rhf
	basis cc-pvtz
}

set_num_threads( 4 )
memory 2 gb

molecule MOL {
0 1

O	 1.159603	 -2.310976	 -1.402696
C	 0.325700	 -1.787196	 -0.746847
C	 -1.104347	 -2.236342	 -0.652557
O	 0.550743	 -0.719877	 0.000412
H	 -1.345640	 -2.465530	 0.377324
H	 -1.251334	 -3.106324	 -1.271475
H	 -1.758039	 -1.435412	 -0.972923
C	 1.863204	 -0.194033	 0.000410
H	 2.031502	 0.409177	 -0.879273
H	 2.524488	 -1.045142	 0.000793
H	 2.031291	 0.409823	 0.879686

	symmetry c1
}
set optking {
	frozen_dihedral = ("
		2 4 8 9
	")
}

ee = optimize('scf')
oeprop('DIPOLE', 'QUADRUPOLE', 'MULLIKEN_CHARGES')
f=open( 'psi4out.xyz', 'w' )
f.write( "11  " )
f.write( str(ee) + "\n" )
f.write( MOL.save_string_xyz() )
f.close()
--------------------------------------------------------------------------

    Molecular point group: c1
  Charge       = 0
  Multiplicity = 1
  Basis Set: CC-PVTZ
  Basis Set:
  @DF-RHF Final Energy:  -266.93699066111992
    Total Energy =                       -266.9369906611199212
    Molecular point group: c1
  Basis Set: CC-PVTZ
  Basis Set:
  Basis Set: CC-PVTZ
  Basis Set:
  @DF-RHF Final Energy:  -266.93832014652071
    Total Energy =                       -266.9383201465205957
  Basis Set: CC-PVTZ
  Basis Set:
  Basis Set: CC-PVTZ
  Basis Set:
  @DF-RHF Final Energy:  -266.93868355303368
    Total Energy =                       -266.9386835530335702
  Basis Set: CC-PVTZ
  Basis Set:
  Basis Set: CC-PVTZ
  Basis Set:
  @DF-RHF Final Energy:  -266.93839677862462
    Total Energy =                       -266.9383967786245648
  Basis Set: CC-PVTZ
  Basis Set:
  Basis Set: CC-PVTZ
  Basis Set:
  @DF-RHF Final Energy:  -266.93870998816249
    Total Energy =                       -266.9387099881624863
  Basis Set: CC-PVTZ
  Basis Set:
  Charge       = 0
  Multiplicity = 1
  Basis Set: CC-PVTZ
  Basis Set:

    Orbital Energies (a.u.)
    -----------------------

    Doubly Occupied:

       1A    -20.598572     2A    -20.535100     3A    -11.369127
       4A    -11.279694     5A    -11.233064     6A     -1.473651
       7A     -1.367847     8A     -1.037032     9A     -0.953906
      10A     -0.779875    11A     -0.698446    12A     -0.684089
      13A     -0.681162    14A     -0.596566    15A     -0.593197
      16A     -0.561750    17A     -0.528060    18A     -0.524025
      19A     -0.461705    20A     -0.445787

  @DF-RHF Final Energy:  -266.93871026512818

   => Energetics <=

    Nuclear Repulsion Energy =            183.5815327946886271
    One-Electron Energy =                -728.2351788010206519
    Two-Electron Energy =                 277.7149357412041013
    DFT Exchange-Correlation Energy =       0.0000000000000000
    Empirical Dispersion Energy =           0.0000000000000000
    PCM Polarization Energy =               0.0000000000000000
    EFP Energy =                            0.0000000000000000
    Total Energy =                       -266.9387102651278951
    Molecular point group: c1
  Basis Set: CC-PVTZ
  Basis Set:

  -Total Gradient:
     Atom            X                  Y                   Z
    ------   -----------------  -----------------  -----------------
       1       -0.000030982755    -0.000049749968    -0.000025978778
       2        0.000329738598    -0.000712132292     0.000927829803
       3        0.000020409487    -0.000004045671     0.000027667945
       4       -0.000500411202     0.001433478219    -0.001186300373
       5       -0.000000483588     0.000003195735    -0.000000348800
       6        0.000007875457    -0.000000970800    -0.000000677079
       7        0.000009369639     0.000004628562    -0.000007676258
       8        0.000705062664    -0.001826114313    -0.000448618780
       9       -0.000510153151     0.001158316133     0.000698705873
      10       -0.000024920574    -0.000015165784     0.000004257820
      11       -0.000005504576     0.000008560182     0.000011138625

  **** Optimization is complete! (in 6 steps) ****
    Final optimized geometry and variables:
    Molecular point group: c1

    Geometry (in Angstrom), charge = 0, multiplicity = 1:

    O            0.565196893892    -0.875125950484    -0.869533376241
    C           -0.253178191515    -0.348802757701    -0.196565247445
    C           -1.683826721069    -0.790877337375    -0.079705585961
    O           -0.013376427297     0.715377315796     0.551239220590
    H           -1.908888488567    -1.023456098215     0.953053918624
    H           -1.846116459107    -1.656930656744    -0.700314308327
    H           -2.338159452686     0.015282371970    -0.385327190641
    C            1.303475569149     1.230519479436     0.565603212504
    H            1.477755134624     1.833114346964    -0.314831271184
    H            2.028960256065     0.434618541376     0.609119665195
    H            1.371983116924     1.851089266567     1.444827346310

  Mulliken Charges: (a.u.)
   Center  Symbol    Alpha    Beta     Spin     Total
       1     O     4.19689  4.19689  0.00000 -0.39377
       2     C     2.80078  2.80078  0.00000  0.39843
       3     C     3.13853  3.13853  0.00000 -0.27705
       4     O     4.14824  4.14824  0.00000 -0.29648
       5     H     0.44570  0.44570  0.00000  0.10860
       6     H     0.43789  0.43789  0.00000  0.12422
       7     H     0.44522  0.44522  0.00000  0.10956
       8     C     3.03361  3.03361  0.00000 -0.06722
       9     H     0.45641  0.45641  0.00000  0.08718
      10     H     0.44996  0.44996  0.00000  0.10007
      11     H     0.44677  0.44677  0.00000  0.10646

   Total alpha = 20.00000, Total beta = 20.00000, Total charge =  0.00000
