  ==> Input File <==

--------------------------------------------------------------------------
set {
	reference rhf
	basis 6-31G*
}

set_num_threads( 4 )
memory 2 gb

molecule MOL {
0 1

O	 1.846825	 1.296220	 0.000415
C	 1.705091	 0.115954	 0.001797
C	 0.381791	 -0.609817	 0.001258
O	 2.721346	 -0.737485	 -0.000216
C	 -0.823008	 0.326187	 0.001381
H	 0.371250	 -1.265087	 -0.865474
H	 0.370908	 -1.265746	 0.867490
C	 -2.143553	 -0.427516	 -0.163399
H	 -0.711043	 1.053233	 -0.796777
H	 -0.834925	 0.893649	 0.926667
C	 -3.362740	 0.496299	 -0.166334
H	 -2.123951	 -0.997382	 -1.091227
H	 -2.248830	 -1.156660	 0.638566
C	 -4.681975	 -0.257461	 -0.329784
H	 -3.260336	 1.223696	 -0.968549
H	 -3.384199	 1.065607	 0.760254
H	 -4.705058	 -0.809773	 -1.265002
H	 -5.526859	 0.424168	 -0.327762
H	 -4.829683	 -0.969500	 0.477367
C	 4.024888	 -0.184556	 -0.001949
H	 4.179030	 0.422472	 -0.882452
H	 4.701782	 -1.024608	 -0.003642
H	 4.181981	 0.421185	 0.878906

	symmetry c1
}
set optking {
	frozen_dihedral = ("
		9 5 3 6
	")
}

ee = optimize('scf')
oeprop('DIPOLE', 'QUADRUPOLE', 'MULLIKEN_CHARGES')
f=open( 'psi4out.xyz', 'w' )
f.write( "23  " )
f.write( str(ee) + "\n" )
f.write( MOL.save_string_xyz() )
f.close()
--------------------------------------------------------------------------

    Molecular point group: c1
  Charge       = 0
  Multiplicity = 1
  Basis Set: 6-31G*
  Basis Set:
  @DF-RHF Final Energy:  -422.97616120677151
    Total Energy =                       -422.9761612067711667
    Molecular point group: c1
  Basis Set: 6-31G*
  Basis Set:
  Basis Set: 6-31G*
  Basis Set:
  @DF-RHF Final Energy:  -422.97612616813058
    Total Energy =                       -422.9761261681302358
  Basis Set: 6-31G*
  Basis Set:
  Basis Set: 6-31G*
  Basis Set:
  @DF-RHF Final Energy:  -422.97606412045423
    Total Energy =                       -422.9760641204543390
  Basis Set: 6-31G*
  Basis Set:
  Basis Set: 6-31G*
  Basis Set:
  @DF-RHF Final Energy:  -422.97618343325519
    Total Energy =                       -422.9761834332554145
  Basis Set: 6-31G*
  Basis Set:
  Basis Set: 6-31G*
  Basis Set:
  @DF-RHF Final Energy:  -422.97618460866840
    Total Energy =                       -422.9761846086682908
  Basis Set: 6-31G*
  Basis Set:
  Charge       = 0
  Multiplicity = 1
  Basis Set: 6-31G*
  Basis Set:

    Orbital Energies (a.u.)
    -----------------------

    Doubly Occupied:

       1A    -20.603687     2A    -20.545513     3A    -11.372391
       4A    -11.280885     5A    -11.235480     6A    -11.219200
       7A    -11.217958     8A    -11.216493     9A    -11.209663
      10A     -1.469408    11A     -1.362855    12A     -1.093174
      13A     -1.043666    14A     -0.987083    15A     -0.932147
      16A     -0.843629    17A     -0.795198    18A     -0.767370
      19A     -0.697275    20A     -0.683682    21A     -0.671580
      22A     -0.651481    23A     -0.609063    24A     -0.599573
      25A     -0.572841    26A     -0.558115    27A     -0.557151
      28A     -0.523900    29A     -0.521119    30A     -0.507732
      31A     -0.483940    32A     -0.469962    33A     -0.466118
      34A     -0.461356    35A     -0.455668    36A     -0.435747

  @DF-RHF Final Energy:  -422.97618469220026

   => Energetics <=

    Nuclear Repulsion Energy =            452.1102968405147067
    One-Electron Energy =               -1471.9287637738982539
    Two-Electron Energy =                 596.8422822411838524
    DFT Exchange-Correlation Energy =       0.0000000000000000
    Empirical Dispersion Energy =           0.0000000000000000
    PCM Polarization Energy =               0.0000000000000000
    EFP Energy =                            0.0000000000000000
    Total Energy =                       -422.9761846921996948
    Molecular point group: c1
  Basis Set: 6-31G*
  Basis Set:

  -Total Gradient:
     Atom            X                  Y                   Z
    ------   -----------------  -----------------  -----------------
       1       -0.000007560647    -0.000021934754    -0.000057532495
       2       -0.000019735791    -0.000000462141     0.000143724596
       3        0.000888285815     0.001164215932    -0.000642382542
       4       -0.000005672788     0.000003827606    -0.000043301652
       5       -0.000829881532    -0.001086311583    -0.000728011888
       6       -0.000601468905    -0.000777381337     0.000589403224
       7        0.000006589996    -0.000004864682     0.000011041430
       8        0.000022394422     0.000010874594    -0.000010101882
       9        0.000529914494     0.000716299515     0.000703424662
      10        0.000009325408    -0.000005408526     0.000016704023
      11       -0.000000012297    -0.000000449388     0.000018210826
      12       -0.000000817595    -0.000021096230     0.000009890291
      13        0.000007461134     0.000022577452     0.000014707377
      14        0.000000541120     0.000004177249    -0.000033743825
      15        0.000002211070     0.000005188779     0.000010135510
      16       -0.000002835185    -0.000010133879     0.000006662778
      17       -0.000003763178    -0.000010203773     0.000000770539
      18       -0.000000168246     0.000000476673    -0.000009437702
      19        0.000003743280     0.000009936081     0.000003124010
      20       -0.000000216559    -0.000000213399    -0.000001690806
      21        0.000002070583     0.000000569162    -0.000000740506
      22        0.000001255989     0.000000884373    -0.000001040798
      23       -0.000001660587    -0.000000567724     0.000000184829

  **** Optimization is complete! (in 6 steps) ****
    Final optimized geometry and variables:
    Molecular point group: c1

    Geometry (in Angstrom), charge = 0, multiplicity = 1:

    O            1.846835969418     1.293478067462     0.068734619746
    C            1.703895212081     0.113381773990     0.068499378157
    C            0.380190841445    -0.610675415444     0.055964266933
    O            2.719049289353    -0.741201102207     0.079594382136
    C           -0.826081360986     0.323875072900     0.052294635056
    H            0.372137873773    -1.269710115403    -0.808034649458
    H            0.362734123751    -1.268079358813     0.921144130832
    C           -2.147532614477    -0.430902887771    -0.094991266866
    H           -0.716282131051     1.048740344787    -0.747755391252
    H           -0.831883596145     0.898898461836     0.973689674285
    C           -3.367517263806     0.491721559150    -0.083402012173
    H           -2.138432757846    -1.000868060956    -1.022849262885
    H           -2.242314081709    -1.160028549303     0.708404045546
    C           -4.687322255822    -0.262489973058    -0.240195194286
    H           -3.272021169163     1.223129968900    -0.882753420468
    H           -3.382226931502     1.056354802189     0.846146080531
    H           -4.716844205479    -0.811166687857    -1.177404413622
    H           -5.532723747715     0.418371628142    -0.229304803114
    H           -4.828563830461    -0.977827727192     0.565189000008
    C            4.023191486439    -0.189723453250     0.091870888489
    H            4.188145094106     0.415685508333    -0.787778318189
    H            4.699099720740    -1.030589159256     0.099205043850
    H            4.170862220698     0.417188209465     0.973553134818

  Mulliken Charges: (a.u.)
   Center  Symbol    Alpha    Beta     Spin     Total
       1     O     4.28606  4.28606  0.00000 -0.57211
       2     C     2.60477  2.60477  0.00000  0.79047
       3     C     3.20858  3.20858  0.00000 -0.41716
       4     O     4.30733  4.30733  0.00000 -0.61466
       5     C     3.15276  3.15276  0.00000 -0.30552
       6     H     0.40068  0.40068  0.00000  0.19865
       7     H     0.40054  0.40054  0.00000  0.19892
       8     C     3.15334  3.15334  0.00000 -0.30668
       9     H     0.40971  0.40971  0.00000  0.18057
      10     H     0.41349  0.41349  0.00000  0.17302
      11     C     3.15160  3.15160  0.00000 -0.30320
      12     H     0.42382  0.42382  0.00000  0.15236
      13     H     0.42408  0.42408  0.00000  0.15185
      14     C     3.23960  3.23960  0.00000 -0.47919
      15     H     0.42112  0.42112  0.00000  0.15776
      16     H     0.42146  0.42146  0.00000  0.15708
      17     H     0.42177  0.42177  0.00000  0.15645
      18     H     0.41846  0.41846  0.00000  0.16307
      19     H     0.42185  0.42185  0.00000  0.15629
      20     C     3.09245  3.09245  0.00000 -0.18489
      21     H     0.40907  0.40907  0.00000  0.18187
      22     H     0.40842  0.40842  0.00000  0.18317
      23     H     0.40906  0.40906  0.00000  0.18189

   Total alpha = 36.00000, Total beta = 36.00000, Total charge =  0.00000
