  ==> Input File <==

--------------------------------------------------------------------------
set {
	reference rhf
	basis 6-31G*
}

set_num_threads( 1 )
memory 2 gb

molecule MOL {
0 1

H	 3.089270	 -1.380733	 0.000000
O	 2.178328	 -1.639175	 0.000000
C	 1.368216	 -0.558384	 0.000000
C	 1.640778	 0.575940	 -0.753873
C	 0.231782	 -0.608609	 0.788305
H	 2.525722	 0.612978	 -1.366686
C	 0.777627	 1.658264	 -0.719033
H	 0.020071	 -1.484172	 1.371096
C	 -0.627137	 0.479262	 0.817512
H	 0.999096	 2.530577	 -1.306741
C	 -0.360423	 1.616731	 0.065982
C	 -1.849841	 0.431948	 1.662276
H	 -1.032247	 2.456280	 0.094542
O	 -2.165867	 -0.492956	 2.339938
H	 -2.470369	 1.332424	 1.625731

	symmetry c1
}
set optking {
	frozen_dihedral = ("
		11 9 12 14
	")
}

ee = energy('scf')
oeprop('DIPOLE', 'QUADRUPOLE', 'MULLIKEN_CHARGES')
f=open( 'psi4out.xyz', 'w' )
f.write( "15  " )
f.write( str(ee) + "\n" )
f.write( MOL.save_string_xyz() )
f.close()
--------------------------------------------------------------------------

    Molecular point group: c1

    Geometry (in Angstrom), charge = 0, multiplicity = 1:

       Center              X                  Y                   Z               Mass
    ------------   -----------------  -----------------  -----------------  -----------------
           H          2.945646215948    -1.488387036217    -0.493149272006     1.007825032070
           O          2.034704215948    -1.746829036217    -0.493149272006    15.994914619560
           C          1.224592215948    -0.666038036217    -0.493149272006    12.000000000000
           C          1.497154215948     0.468285963783    -1.247022272006    12.000000000000
           C          0.088158215948    -0.716263036217     0.295155727994    12.000000000000
           H          2.382098215948     0.505323963783    -1.859835272006     1.007825032070
           C          0.634003215948     1.550609963783    -1.212182272006    12.000000000000
           H         -0.123552784052    -1.591826036217     0.877946727994     1.007825032070
           C         -0.770760784052     0.371607963783     0.324362727994    12.000000000000
           H          0.855472215948     2.422922963783    -1.799890272006     1.007825032070
           C         -0.504046784052     1.509076963783    -0.427167272006    12.000000000000
           C         -1.993464784052     0.324293963783     1.169126727994    12.000000000000
           H         -1.175870784052     2.348625963783    -0.398607272006     1.007825032070
           O         -2.309490784052    -0.600610036217     1.846788727994    15.994914619560
           H         -2.613992784052     1.224769963783     1.132581727994     1.007825032070

  Charge       = 0
  Multiplicity = 1
  Basis Set: 6-31G*
  Basis Set:

    Orbital Energies (a.u.)
    -----------------------

    Doubly Occupied:

       1A    -20.595909     2A    -20.564190     3A    -11.332396
       4A    -11.308784     5A    -11.252324     6A    -11.251089
       7A    -11.249660     8A    -11.248356     9A    -11.240265
      10A     -1.417322    11A     -1.404933    12A     -1.169421
      13A     -1.048359    14A     -1.026368    15A     -0.898410
      16A     -0.845788    17A     -0.810022    18A     -0.737572
      19A     -0.700461    20A     -0.685034    21A     -0.641079
      22A     -0.636658    23A     -0.616046    24A     -0.606825
      25A     -0.558841    26A     -0.548771    27A     -0.539726
      28A     -0.508000    29A     -0.486285    30A     -0.423080
      31A     -0.352741    32A     -0.331032

  @DF-RHF Final Energy:  -418.28433381312556

   => Energetics <=

    Nuclear Repulsion Energy =            403.1570636670134604
    One-Electron Energy =               -1368.8112831657895185
    Two-Electron Energy =                 547.3698856856509565
    DFT Exchange-Correlation Energy =       0.0000000000000000
    Empirical Dispersion Energy =           0.0000000000000000
    PCM Polarization Energy =               0.0000000000000000
    EFP Energy =                            0.0000000000000000
    Total Energy =                       -418.2843338131250448

  Mulliken Charges: (a.u.)
   Center  Symbol    Alpha    Beta     Spin     Total
       1     H     0.27066  0.27066  0.00000  0.45867
       2     O     4.37907  4.37907  0.00000 -0.75814
       3     C     2.80420  2.80420  0.00000  0.39160
       4     C     3.12575  3.12575  0.00000 -0.25149
       5     C     3.11081  3.11081  0.00000 -0.22163
       6     H     0.39551  0.39551  0.00000  0.20899
       7     C     3.09748  3.09748  0.00000 -0.19496
       8     H     0.37049  0.37049  0.00000  0.25901
       9     C     3.04825  3.04825  0.00000 -0.09651
      10     H     0.39314  0.39314  0.00000  0.21372
      11     C     3.11208  3.11208  0.00000 -0.22416
      12     C     2.83240  2.83240  0.00000  0.33520
      13     H     0.39268  0.39268  0.00000  0.21464
      14     O     4.24537  4.24537  0.00000 -0.49074
      15     H     0.42211  0.42211  0.00000  0.15579

   Total alpha = 32.00000, Total beta = 32.00000, Total charge =  0.00000
