  ==> Input File <==

--------------------------------------------------------------------------
set {
	reference rhf
	basis 6-31G*
}

set_num_threads( 4 )
memory 2 gb

molecule MOL {
0 1

O	 2.926510	 -2.604422	 -1.210166
C	 2.540955	 -1.851961	 -0.374577
C	 1.105146	 -1.676631	 0.057281
O	 3.347903	 -1.046386	 0.304773
C	 0.138086	 -2.593183	 -0.688938
H	 1.073338	 -1.838354	 1.129673
H	 0.847978	 -0.631175	 -0.093002
C	 -1.334278	 -2.353989	 -0.337617
H	 0.400017	 -3.628230	 -0.490980
H	 0.277030	 -2.448007	 -1.754790
C	 -1.718770	 -2.702237	 1.103216
H	 -1.942934	 -2.950347	 -1.013352
H	 -1.590800	 -1.314865	 -0.538683
C	 -3.217358	 -2.550982	 1.372206
H	 -1.416880	 -3.726568	 1.316353
H	 -1.171620	 -2.071247	 1.799958
C	 -3.612409	 -2.891321	 2.810342
H	 -3.772100	 -3.189999	 0.687258
H	 -3.521993	 -1.529671	 1.149000
C	 -5.111074	 -2.741418	 3.069638
H	 -3.307819	 -3.911235	 3.035383
H	 -3.062172	 -2.250633	 3.496301
H	 -5.359703	 -2.989434	 4.096905
H	 -5.688259	 -3.395852	 2.422515
H	 -5.440726	 -1.722588	 2.886365
C	 4.728119	 -1.109107	 -0.004993
H	 4.882018	 -1.033965	 -1.071845
H	 5.068212	 -2.067527	 0.355250
H	 5.265056	 -0.311663	 0.488280

	symmetry c1
}
set optking {
	frozen_dihedral = ("
		2 4 26 27
	")
}

ee = optimize('scf')
oeprop('DIPOLE', 'QUADRUPOLE', 'MULLIKEN_CHARGES')
f=open( 'psi4out.xyz', 'w' )
f.write( "29  " )
f.write( str(ee) + "\n" )
f.write( MOL.save_string_xyz() )
f.close()
--------------------------------------------------------------------------

    Molecular point group: c1
  Charge       = 0
  Multiplicity = 1
  Basis Set: 6-31G*
  Basis Set:
  @DF-RHF Final Energy:  -501.04239332451050
    Total Energy =                       -501.0423933245100443
    Molecular point group: c1
  Basis Set: 6-31G*
  Basis Set:
  Basis Set: 6-31G*
  Basis Set:
  @DF-RHF Final Energy:  -501.04359859583462
    Total Energy =                       -501.0435985958349647
  Basis Set: 6-31G*
  Basis Set:
  Basis Set: 6-31G*
  Basis Set:
  @DF-RHF Final Energy:  -501.04371817363915
    Total Energy =                       -501.0437181736384673
  Basis Set: 6-31G*
  Basis Set:
  Basis Set: 6-31G*
  Basis Set:
  @DF-RHF Final Energy:  -501.04385247580694
    Total Energy =                       -501.0438524758068297
  Basis Set: 6-31G*
  Basis Set:
  Basis Set: 6-31G*
  Basis Set:
  @DF-RHF Final Energy:  -501.04392284908488
    Total Energy =                       -501.0439228490840833
  Basis Set: 6-31G*
  Basis Set:
  Basis Set: 6-31G*
  Basis Set:
  @DF-RHF Final Energy:  -501.04393665254520
    Total Energy =                       -501.0439366525446303
  Basis Set: 6-31G*
  Basis Set:
  Charge       = 0
  Multiplicity = 1
  Basis Set: 6-31G*
  Basis Set:

    Orbital Energies (a.u.)
    -----------------------

    Doubly Occupied:

       1A    -20.603303     2A    -20.545150     3A    -11.372123
       4A    -11.280553     5A    -11.234668     6A    -11.219035
       7A    -11.217600     8A    -11.215967     9A    -11.215829
      10A    -11.214432    11A    -11.209050    12A     -1.468863
      13A     -1.362576    14A     -1.098044    15A     -1.066784
      16A     -1.019507    17A     -0.977278    18A     -0.928548
      19A     -0.861565    20A     -0.799244    21A     -0.790478
      22A     -0.763790    23A     -0.700874    24A     -0.682002
      25A     -0.672211    26A     -0.650887    27A     -0.628716
      28A     -0.604838    29A     -0.594745    30A     -0.581085
      31A     -0.567127    32A     -0.549200    33A     -0.531998
      34A     -0.530390    35A     -0.515801    36A     -0.511889
      37A     -0.496274    38A     -0.477776    39A     -0.470179
      40A     -0.462357    41A     -0.458657    42A     -0.455723
      43A     -0.440912    44A     -0.435470

  @DF-RHF Final Energy:  -501.04393666494411

   => Energetics <=

    Nuclear Repulsion Energy =            610.1759316144018612
    One-Electron Energy =               -1891.4727397718124848
    Two-Electron Energy =                 780.2528714924665110
    DFT Exchange-Correlation Energy =       0.0000000000000000
    Empirical Dispersion Energy =           0.0000000000000000
    PCM Polarization Energy =               0.0000000000000000
    EFP Energy =                            0.0000000000000000
    Total Energy =                       -501.0439366649441126
    Molecular point group: c1
  Basis Set: 6-31G*
  Basis Set:

  -Total Gradient:
     Atom            X                  Y                   Z
    ------   -----------------  -----------------  -----------------
       1       -0.000028064142    -0.000024335746    -0.000027538753
       2       -0.000074382062     0.000596064036    -0.000576392723
       3        0.000009594233     0.000019072121    -0.000001817454
       4        0.000124596451    -0.001081051906     0.000781784669
       5        0.000019747939    -0.000008599394    -0.000002310095
       6       -0.000013358875    -0.000006523184     0.000024212400
       7        0.000015752240    -0.000010555474     0.000001902795
       8        0.000002382486     0.000007820602    -0.000001289121
       9       -0.000001240459    -0.000002988155    -0.000006237358
      10        0.000004036593     0.000006601894    -0.000003284384
      11        0.000007181367    -0.000003932915     0.000003160081
      12        0.000010183414    -0.000004840618     0.000001661861
      13       -0.000008458695    -0.000002043670    -0.000006135225
      14       -0.000000666181     0.000006558520     0.000001537525
      15       -0.000005137660     0.000000055911    -0.000001032349
      16        0.000011770773     0.000000210603     0.000002300863
      17        0.000001041414     0.000001793399     0.000001085005
      18        0.000001304371    -0.000000500158     0.000000834379
      19       -0.000001266157     0.000000967343    -0.000000794104
      20       -0.000000022158    -0.000000042241    -0.000000761496
      21        0.000000417222     0.000000142687    -0.000000347897
      22       -0.000000351752    -0.000000034027     0.000000169678
      23        0.000000384809    -0.000000190426    -0.000000284210
      24       -0.000000230766    -0.000000057300    -0.000000059590
      25        0.000000059191    -0.000000000003     0.000000124061
      26        0.000007297763     0.001451157368    -0.000076222579
      27       -0.000080560629    -0.000934002353    -0.000095950442
      28       -0.000008821026    -0.000011495725     0.000014591320
      29        0.000006810298     0.000000748815    -0.000032906859

  **** Optimization is complete! (in 7 steps) ****
    Final optimized geometry and variables:
    Molecular point group: c1

    Geometry (in Angstrom), charge = 0, multiplicity = 1:

    O            2.898878268558    -0.424945156620    -1.768306958078
    C            2.516586268200     0.324252900835    -0.928298156742
    C            1.081415079551     0.502138962671    -0.495398025521
    O            3.325567877468     1.122627172388    -0.242831434109
    C            0.111592436030    -0.408920477209    -1.244700657541
    H            1.049440093992     0.336496722020     0.576405664019
    H            0.827258514256     1.548873928011    -0.641714832491
    C           -1.359980101102    -0.166335100549    -0.892480218245
    H            0.370354839575    -1.445437190021    -1.050261481243
    H            0.250939760193    -0.260550039512    -2.310054430759
    C           -1.745009869067    -0.516338605081     0.547792941977
    H           -1.970460341265    -0.759688836912    -1.569211080481
    H           -1.613693812325     0.873889733884    -1.091427125534
    C           -3.242867872904    -0.359954979722     0.817945399165
    H           -1.446919521339    -1.542282845208     0.758479095579
    H           -1.195073535884     0.110998604073     1.245635486884
    C           -3.638373552078    -0.701561578223     2.255649325454
    H           -3.800406102469    -0.995554691890     0.132094844681
    H           -3.543772710335     0.662921782592     0.596871233337
    C           -5.136257898151    -0.546123932985     2.516210580808
    H           -3.337761459441    -1.723139370992     2.478468700410
    H           -3.085119272468    -0.064466413826     2.942523999352
    H           -5.385201470532    -0.795062273843     3.543181342025
    H           -5.716488533553    -1.197020382597     1.868246624873
    H           -5.461933946045     0.474362371168     2.335057640011
    C            4.704461950434     1.074462546167    -0.561452722788
    H            4.854364504894     1.167757166400    -1.626508949354
    H            5.134320737503     0.140399503868    -0.226365033298
    H            5.159844072546     1.900959376226    -0.038652349917

  Mulliken Charges: (a.u.)
   Center  Symbol    Alpha    Beta     Spin     Total
       1     O     4.28597  4.28597  0.00000 -0.57193
       2     C     2.60475  2.60475  0.00000  0.79050
       3     C     3.20977  3.20977  0.00000 -0.41955
       4     O     4.30762  4.30762  0.00000 -0.61523
       5     C     3.15378  3.15378  0.00000 -0.30755
       6     H     0.39872  0.39872  0.00000  0.20256
       7     H     0.40133  0.40133  0.00000  0.19734
       8     C     3.15662  3.15662  0.00000 -0.31324
       9     H     0.41309  0.41309  0.00000  0.17381
      10     H     0.40874  0.40874  0.00000  0.18251
      11     C     3.15509  3.15509  0.00000 -0.31017
      12     H     0.41824  0.41824  0.00000  0.16353
      13     H     0.42388  0.42388  0.00000  0.15224
      14     C     3.15029  3.15029  0.00000 -0.30058
      15     H     0.42260  0.42260  0.00000  0.15480
      16     H     0.42360  0.42360  0.00000  0.15280
      17     C     3.15146  3.15146  0.00000 -0.30291
      18     H     0.42332  0.42332  0.00000  0.15335
      19     H     0.42398  0.42398  0.00000  0.15203
      20     C     3.23935  3.23935  0.00000 -0.47870
      21     H     0.42280  0.42280  0.00000  0.15440
      22     H     0.42343  0.42343  0.00000  0.15314
      23     H     0.41923  0.41923  0.00000  0.16154
      24     H     0.42155  0.42155  0.00000  0.15691
      25     H     0.42183  0.42183  0.00000  0.15633
      26     C     3.09288  3.09288  0.00000 -0.18576
      27     H     0.40627  0.40627  0.00000  0.18746
      28     H     0.41124  0.41124  0.00000  0.17751
      29     H     0.40857  0.40857  0.00000  0.18286

   Total alpha = 44.00000, Total beta = 44.00000, Total charge =  0.00000
