  ==> Input File <==

--------------------------------------------------------------------------
set {
	reference rhf
	basis 6-31G*
}

set_num_threads( 4 )
memory 2 gb

molecule MOL {
0 1

H	 -3.420663	 1.227371	 -1.044276
O	 -3.452007	 0.283848	 -0.965577
C	 -3.181085	 -0.079926	 0.364119
C	 -1.765924	 0.277073	 0.805136
H	 -3.327791	 -1.152017	 0.410903
H	 -3.905698	 0.375695	 1.036898
C	 -0.677594	 -0.417312	 -0.014550
H	 -1.637766	 1.358238	 0.744969
H	 -1.659588	 0.017670	 1.857098
C	 -0.198708	 0.416275	 -1.204920
H	 -1.050978	 -1.374931	 -0.364206
H	 0.168090	 -0.638276	 0.634592
C	 0.894795	 -0.282788	 -2.017106
H	 -1.049276	 0.641698	 -1.843777
H	 0.177537	 1.374288	 -0.848190
C	 1.470117	 0.549820	 -3.168594
H	 0.505767	 -1.219999	 -2.412059
H	 1.708066	 -0.551790	 -1.346251
C	 0.477593	 0.851414	 -4.293023
H	 2.319648	 0.016341	 -3.588102
H	 1.864325	 1.484458	 -2.774571
H	 0.057120	 -0.065156	 -4.698289
H	 0.965947	 1.377956	 -5.107333
H	 -0.345617	 1.471133	 -3.953263

	symmetry c1
}
set optking {
	frozen_dihedral = ("
		11 7 4 3
	")
}

ee = optimize('scf')
oeprop('DIPOLE', 'QUADRUPOLE', 'MULLIKEN_CHARGES')
f=open( 'psi4out.xyz', 'w' )
f.write( "24  " )
f.write( str(ee) + "\n" )
f.write( MOL.save_string_xyz() )
f.close()
--------------------------------------------------------------------------

    Molecular point group: c1
  Charge       = 0
  Multiplicity = 1
  Basis Set: 6-31G*
  Basis Set:
  @DF-RHF Final Energy:  -349.24404041054061
    Total Energy =                       -349.2440404105406060
    Molecular point group: c1
  Basis Set: 6-31G*
  Basis Set:
  Basis Set: 6-31G*
  Basis Set:
  @DF-RHF Final Energy:  -349.24438861636401
    Total Energy =                       -349.2443886163640627
  Basis Set: 6-31G*
  Basis Set:
  Basis Set: 6-31G*
  Basis Set:
  @DF-RHF Final Energy:  -349.24445394955814
    Total Energy =                       -349.2444539495579647
  Basis Set: 6-31G*
  Basis Set:
  Basis Set: 6-31G*
  Basis Set:
  @DF-RHF Final Energy:  -349.24445773285390
    Total Energy =                       -349.2444577328536752
  Basis Set: 6-31G*
  Basis Set:
  Charge       = 0
  Multiplicity = 1
  Basis Set: 6-31G*
  Basis Set:

    Orbital Energies (a.u.)
    -----------------------

    Doubly Occupied:

       1A    -20.555131     2A    -11.268506     3A    -11.217858
       4A    -11.212897     5A    -11.211885     6A    -11.209035
       7A    -11.207257     8A    -11.204462     9A     -1.361346
      10A     -1.085598    11A     -1.046171    12A     -0.984225
      13A     -0.913721    14A     -0.851399    15A     -0.798653
      16A     -0.773804    17A     -0.680676    18A     -0.648507
      19A     -0.632222    20A     -0.611346    21A     -0.600958
      22A     -0.576340    23A     -0.552599    24A     -0.534819
      25A     -0.527339    26A     -0.509674    27A     -0.488150
      28A     -0.485205    29A     -0.467948    30A     -0.457923
      31A     -0.452398    32A     -0.438553    33A     -0.418821

  @DF-RHF Final Energy:  -349.24445731481444

   => Energetics <=

    Nuclear Repulsion Energy =            393.6791634330630814
    One-Electron Energy =               -1253.8763903594940530
    Two-Electron Energy =                 510.9527696116168727
    DFT Exchange-Correlation Energy =       0.0000000000000000
    Empirical Dispersion Energy =           0.0000000000000000
    PCM Polarization Energy =               0.0000000000000000
    EFP Energy =                            0.0000000000000000
    Total Energy =                       -349.2444573148140989
    Molecular point group: c1
  Basis Set: 6-31G*
  Basis Set:

  -Total Gradient:
     Atom            X                  Y                   Z
    ------   -----------------  -----------------  -----------------
       1        0.000015698701    -0.000010327709     0.000019073668
       2       -0.000005346461    -0.000051440464    -0.000000740434
       3       -0.000000837469    -0.000934932574     0.000918004323
       4       -0.000150795256     0.001613302742    -0.001675396095
       5        0.000027109471     0.000013191430    -0.000026152174
       6       -0.000024062854     0.000005199957     0.000000315897
       7        0.000774014409    -0.001476251946     0.002269920883
       8       -0.000013092788    -0.000025434194    -0.000045467714
       9        0.000007007324    -0.000046975475     0.000030599133
      10        0.000057052871     0.000035254317     0.000044571291
      11       -0.000625853055     0.000862819970    -0.001502267604
      12       -0.000011887968     0.000014563665     0.000012067783
      13        0.000058307040    -0.000015586873     0.000059707871
      14       -0.000106355023     0.000085289124    -0.000040569068
      15       -0.000021157136    -0.000041111746    -0.000027856407
      16        0.000031778555    -0.000056583079    -0.000058141711
      17        0.000033323945    -0.000007539497     0.000002230467
      18       -0.000021067569     0.000020290928     0.000003378183
      19       -0.000010678263     0.000034989521     0.000028321441
      20        0.000000524865    -0.000004876760    -0.000028436129
      21        0.000015352906    -0.000017941725    -0.000003562041
      22        0.000017790159    -0.000006151311    -0.000009300179
      23       -0.000009569096     0.000010112140     0.000008680077
      24       -0.000037257306     0.000000139560     0.000021018539

  **** Optimization is complete! (in 5 steps) ****
    Final optimized geometry and variables:
    Molecular point group: c1

    Geometry (in Angstrom), charge = 0, multiplicity = 1:

    H           -2.621006656495     1.014841010446     0.299893566754
    O           -2.637047945790     0.070895847401     0.377044176520
    C           -2.336001333878    -0.291538898796     1.700978164885
    C           -0.914620860020     0.058818501639     2.128304312956
    H           -2.479493297014    -1.363681817130     1.749507358160
    H           -3.048779095838     0.161868109244     2.387968355040
    C            0.189490226459    -0.615824143113     1.295441087316
    H           -0.785124086301     1.140567948603     2.113114811329
    H           -0.817620609704    -0.237556955090     3.170862280921
    C            0.668530439294     0.211248070281     0.097860095039
    H           -0.173029347098    -1.574419473629     0.931384585632
    H            1.041827636359    -0.827538316814     1.936067016077
    C            1.765766661206    -0.495112449957    -0.702636488795
    H           -0.179615305891     0.427815398543    -0.541513570070
    H            1.048224843082     1.168518581230     0.454400862567
    C            2.347723019512     0.329817323123    -1.856443381629
    H            1.376681278814    -1.433283344774    -1.095097636774
    H            2.575999745951    -0.761852049603    -0.026559422856
    C            1.357524582553     0.632717344481    -2.982489926748
    H            3.194915255174    -0.209587492028    -2.273262237296
    H            2.746713292839     1.263684823097    -1.465074700662
    H            0.935719379955    -0.283061934450    -3.387592175539
    H            1.848013695030     1.158410074028    -3.796195465249
    H            0.534304774520     1.252770512657    -2.643755038192

  Mulliken Charges: (a.u.)
   Center  Symbol    Alpha    Beta     Spin     Total
       1     H     0.28299  0.28299  0.00000  0.43401
       2     O     4.36747  4.36747  0.00000 -0.73493
       3     C     2.99650  2.99650  0.00000  0.00700
       4     C     3.17197  3.17197  0.00000 -0.34394
       5     H     0.41604  0.41604  0.00000  0.16793
       6     H     0.42877  0.42877  0.00000  0.14247
       7     C     3.15092  3.15092  0.00000 -0.30185
       8     H     0.42577  0.42577  0.00000  0.14846
       9     H     0.42013  0.42013  0.00000  0.15974
      10     C     3.15741  3.15741  0.00000 -0.31481
      11     H     0.41866  0.41866  0.00000  0.16268
      12     H     0.42195  0.42195  0.00000  0.15610
      13     C     3.15319  3.15319  0.00000 -0.30637
      14     H     0.41138  0.41138  0.00000  0.17724
      15     H     0.42861  0.42861  0.00000  0.14279
      16     C     3.15211  3.15211  0.00000 -0.30422
      17     H     0.42298  0.42298  0.00000  0.15405
      18     H     0.42410  0.42410  0.00000  0.15180
      19     C     3.24037  3.24037  0.00000 -0.48074
      20     H     0.42175  0.42175  0.00000  0.15650
      21     H     0.42468  0.42468  0.00000  0.15063
      22     H     0.42103  0.42103  0.00000  0.15795
      23     H     0.42051  0.42051  0.00000  0.15898
      24     H     0.42073  0.42073  0.00000  0.15853

   Total alpha = 33.00000, Total beta = 33.00000, Total charge = -0.00000
