  ==> Input File <==

--------------------------------------------------------------------------
set {
	reference rhf
	basis 6-31G*
}

set_num_threads( 4 )
memory 2 gb

molecule MOL {
0 1

H	 2.614305	 3.946116	 -3.716770
C	 2.344699	 3.219642	 -2.970894
C	 1.296946	 3.479006	 -2.100208
C	 3.045805	 2.027288	 -2.883276
H	 0.754029	 4.404124	 -2.169236
C	 0.950874	 2.544420	 -1.141425
H	 3.857707	 1.827984	 -3.559070
C	 2.701149	 1.090287	 -1.924311
H	 0.142973	 2.728144	 -0.459359
C	 1.651546	 1.347233	 -1.050197
H	 3.240967	 0.166262	 -1.852920
C	 1.239129	 0.373821	 0.000060
O	 1.970282	 -0.730723	 0.000018
O	 0.345774	 0.559564	 0.765745
C	 3.377318	 -0.566646	 -0.000065
H	 3.695437	 -0.028981	 -0.881264
H	 3.789299	 -1.563704	 0.000236
H	 3.695516	 -0.028316	 0.880770

	symmetry c1
}
set optking {
	frozen_dihedral = ("
		10 12 13 15
	")
}

ee = optimize('scf')
oeprop('DIPOLE', 'QUADRUPOLE', 'MULLIKEN_CHARGES')
f=open( 'psi4out.xyz', 'w' )
f.write( "18  " )
f.write( str(ee) + "\n" )
f.write( MOL.save_string_xyz() )
f.close()
--------------------------------------------------------------------------

    Molecular point group: c1
  Charge       = 0
  Multiplicity = 1
  Basis Set: 6-31G*
  Basis Set:
  @DF-RHF Final Energy:  -457.26737349039990
    Total Energy =                       -457.2673734903999048
    Molecular point group: c1
  Basis Set: 6-31G*
  Basis Set:
  Basis Set: 6-31G*
  Basis Set:
  @DF-RHF Final Energy:  -457.30961134158235
    Total Energy =                       -457.3096113415823538
  Basis Set: 6-31G*
  Basis Set:
  Basis Set: 6-31G*
  Basis Set:
  @DF-RHF Final Energy:  -457.32227400144683
    Total Energy =                       -457.3222740014466581
  Basis Set: 6-31G*
  Basis Set:
  Basis Set: 6-31G*
  Basis Set:
  @DF-RHF Final Energy:  -457.32365763366209
    Total Energy =                       -457.3236576336620374
  Basis Set: 6-31G*
  Basis Set:
  @DF-RHF Final Energy:  -457.32612416382540
    Total Energy =                       -457.3261241638252841
  @DF-RHF Final Energy:  -457.32768373473687
    Total Energy =                       -457.3276837347364108
  @DF-RHF Final Energy:  -457.32843847573048
    Total Energy =                       -457.3284384757304224
  @DF-RHF Final Energy:  -457.32885541557607
    Total Energy =                       -457.3288554155755037
  Basis Set: 6-31G*
  Basis Set:
  @DF-RHF Final Energy:  -457.32892332447506
    Total Energy =                       -457.3289233244745446
  Basis Set: 6-31G*
  Basis Set:
  Basis Set: 6-31G*
  Basis Set:
  @DF-RHF Final Energy:  -457.32894011766308
    Total Energy =                       -457.3289401176625688
  Basis Set: 6-31G*
  Basis Set:
  Basis Set: 6-31G*
  Basis Set:
  @DF-RHF Final Energy:  -457.32894235989886
    Total Energy =                       -457.3289423598989742
  Basis Set: 6-31G*
  Basis Set:
  Charge       = 0
  Multiplicity = 1
  Basis Set: 6-31G*
  Basis Set:

    Orbital Energies (a.u.)
    -----------------------

    Doubly Occupied:

       1A    -20.596689     2A    -20.549276     3A    -11.379265
       4A    -11.292120     5A    -11.254176     6A    -11.252878
       7A    -11.250415     8A    -11.248878     9A    -11.246032
      10A    -11.244244    11A     -1.461840    12A     -1.367664
      13A     -1.172178    14A     -1.046987    15A     -1.032433
      16A     -0.980960    17A     -0.874982    18A     -0.844238
      19A     -0.782823    20A     -0.736937    21A     -0.688257
      22A     -0.676715    23A     -0.669041    24A     -0.639276
      25A     -0.628202    26A     -0.607248    27A     -0.600109
      28A     -0.564609    29A     -0.536957    30A     -0.516087
      31A     -0.509966    32A     -0.495947    33A     -0.458887
      34A     -0.440481    35A     -0.350671    36A     -0.348279

  @DF-RHF Final Energy:  -457.32894263426510

   => Energetics <=

    Nuclear Repulsion Energy =            497.5583245739838958
    One-Electron Energy =               -1609.0830370426676836
    Two-Electron Energy =                 654.1957698344189112
    DFT Exchange-Correlation Energy =       0.0000000000000000
    Empirical Dispersion Energy =           0.0000000000000000
    PCM Polarization Energy =               0.0000000000000000
    EFP Energy =                            0.0000000000000000
    Total Energy =                       -457.3289426342649904
    Molecular point group: c1
  Basis Set: 6-31G*
  Basis Set:

  -Total Gradient:
     Atom            X                  Y                   Z
    ------   -----------------  -----------------  -----------------
       1       -0.000003941936    -0.000001683763    -0.000002635969
       2        0.000010288909     0.000009515505     0.000012607504
       3        0.000012823110     0.000006371289    -0.000000826484
       4       -0.000014462932    -0.000006999980    -0.000003448788
       5       -0.000004040132    -0.000001311532    -0.000002866252
       6       -0.000007196527    -0.000013142478    -0.000009315909
       7        0.000000160192    -0.000000085827    -0.000000881028
       8       -0.000000479618     0.000008056543     0.000004076745
       9        0.000001702211     0.000000749388     0.000001983287
      10        0.000388371849     0.000603195913     0.000867245514
      11        0.000001659140    -0.000004325790     0.000002477681
      12       -0.000400407918    -0.000901737036    -0.001936226442
      13       -0.000349863352     0.000292105049     0.002204795494
      14        0.000009897747    -0.000001447207     0.000004395039
      15        0.000356789827     0.000015417573    -0.001132955213
      16       -0.000007207846    -0.000007345213    -0.000007113474
      17       -0.000004841442    -0.000001643239     0.000002258495
      18        0.000010748722     0.000004310812    -0.000003570201

  **** Optimization is complete! (in 12 steps) ****
    Final optimized geometry and variables:
    Molecular point group: c1

    Geometry (in Angstrom), charge = 0, multiplicity = 1:

    H            0.678501611300     2.886614039286    -2.518580380155
    C            0.424383807533     2.099473252177    -1.831515112428
    C           -0.414745622820     2.360758783939    -0.759178842472
    C            0.928730060203     0.823205770310    -2.025439598908
    H           -0.812620345359     3.348661490080    -0.613874526574
    C           -0.751315785168     1.345476893205     0.118499788795
    H            1.564970526004     0.615762122917    -2.866657986134
    C            0.609938947654    -0.187951073415    -1.135291482606
    H           -1.420692379521     1.529186988149     0.937674359745
    C           -0.226420906647     0.071007626565    -0.055995224375
    H            0.990651365427    -1.180577580875    -1.292384639153
    C           -0.655191615948    -1.012607507419     0.884413331070
    O            0.229332972296    -1.981106389012     1.165541095576
    O           -1.745270334100    -1.051379548738     1.344801874554
    C            1.546509530543    -1.659103900877     1.568024436977
    H            2.100683591676    -1.150163582421     0.793879523272
    H            2.021902574022    -2.600713474000     1.793962780475
    H            1.529174160664    -1.046333619349     2.461261315216

  Mulliken Charges: (a.u.)
   Center  Symbol    Alpha    Beta     Spin     Total
       1     H     0.39422  0.39422  0.00000  0.21155
       2     C     3.09260  3.09260  0.00000 -0.18520
       3     C     3.10433  3.10433  0.00000 -0.20865
       4     C     3.10388  3.10388  0.00000 -0.20776
       5     H     0.39378  0.39378  0.00000  0.21243
       6     C     3.08848  3.08848  0.00000 -0.17697
       7     H     0.39471  0.39471  0.00000  0.21058
       8     C     3.09894  3.09894  0.00000 -0.19788
       9     H     0.37946  0.37946  0.00000  0.24108
      10     C     3.06794  3.06794  0.00000 -0.13588
      11     H     0.38629  0.38629  0.00000  0.22742
      12     C     2.60424  2.60424  0.00000  0.79153
      13     O     4.31118  4.31118  0.00000 -0.62235
      14     O     4.25723  4.25723  0.00000 -0.51447
      15     C     3.09327  3.09327  0.00000 -0.18653
      16     H     0.41461  0.41461  0.00000  0.17079
      17     H     0.40183  0.40183  0.00000  0.19633
      18     H     0.41300  0.41300  0.00000  0.17400

   Total alpha = 36.00000, Total beta = 36.00000, Total charge = -0.00000
