                              Psi4 1.0.54 Driver

  ==> Input File <==

--------------------------------------------------------------------------
set {
	reference rhf
	basis cc-pvtz
}

set_num_threads( 4 )
memory 2 gb

molecule MOL {
0 1

H	 -1.835082	 1.385983	 0.000069
C	 -1.300516	 0.441153	 -0.000028
O	 -0.006604	 0.654344	 -0.000106
O	 -1.828920	 -0.612308	 0.000113
C	 0.646981	 0.761898	 -1.261487
C	 2.114840	 1.003362	 -1.001128
H	 0.201330	 1.574369	 -1.817585
H	 0.485078	 -0.150472	 -1.817662
H	 2.261598	 1.917696	 -0.440392
H	 2.642445	 1.090188	 -1.943438
H	 2.546770	 0.184193	 -0.440442

	symmetry c1
}
set optking {
	frozen_dihedral = ("
		5 3 2 4
	")
}

ee,wfn = optimize('scf', return_wfn=True)
oeprop( wfn, 'DIPOLE', 'QUADRUPOLE', 'MULLIKEN_CHARGES')
f=open( 'psi4out.xyz', 'w' )
f.write( "11  " )
f.write( str(ee) + "\n" )
f.write( MOL.save_string_xyz() )
f.close()
--------------------------------------------------------------------------

    Molecular point group: c1
  Charge       = 0
  Multiplicity = 1
  Basis Set: CC-PVTZ
  Basis Set:
  @DF-RHF Final Energy:  -266.91185083249400
    Total Energy =                       -266.9118508324937693
    Molecular point group: c1
  Basis Set: CC-PVTZ
  Basis Set:
  Basis Set: CC-PVTZ
  Basis Set:
  @DF-RHF Final Energy:  -266.91194064674357
    Total Energy =                       -266.9119406467435169
  Basis Set: CC-PVTZ
  Basis Set:
  Basis Set: CC-PVTZ
  Basis Set:
  @DF-RHF Final Energy:  -266.91290074907704
    Total Energy =                       -266.9129007490770391
  Basis Set: CC-PVTZ
  Basis Set:
  Basis Set: CC-PVTZ
  Basis Set:
  @DF-RHF Final Energy:  -266.91313297270881
    Total Energy =                       -266.9131329727088655
  Basis Set: CC-PVTZ
  Basis Set:
  Basis Set: CC-PVTZ
  Basis Set:
  @DF-RHF Final Energy:  -266.91314040498395
    Total Energy =                       -266.9131404049840057
  Basis Set: CC-PVTZ
  Basis Set:
  Charge       = 0
  Multiplicity = 1
  Basis Set: CC-PVTZ
  Basis Set:

    Orbital Energies (a.u.)
    -----------------------

    Doubly Occupied:

       1A    -20.585451     2A    -20.560680     3A    -11.373825
       4A    -11.299737     5A    -11.227028     6A     -1.470160
       7A     -1.382095     8A     -1.049839     9A     -0.888649
      10A     -0.828361    11A     -0.743468    12A     -0.693210
      13A     -0.649601    14A     -0.641743    15A     -0.564404
      16A     -0.542631    17A     -0.536410    18A     -0.507604
      19A     -0.467527    20A     -0.456782

  @DF-RHF Final Energy:  -266.91314131009449

   => Energetics <=

    Nuclear Repulsion Energy =            177.4089615384420142
    One-Electron Energy =                -715.7057973083769866
    Two-Electron Energy =                 271.3836944598407399
    DFT Exchange-Correlation Energy =       0.0000000000000000
    Empirical Dispersion Energy =           0.0000000000000000
    PCM Polarization Energy =               0.0000000000000000
    EFP Energy =                            0.0000000000000000
    Total Energy =                       -266.9131413100942609
    Molecular point group: c1
  Basis Set: CC-PVTZ
  Basis Set:

  -Total Gradient:
     Atom            X                  Y                   Z
    ------   -----------------  -----------------  -----------------
       1       -0.000002844068    -0.000027816255     0.000008498967
       2        0.000065257830     0.000278328712    -0.001040434431
       3        0.000097646056    -0.000721796978     0.000301401129
       4       -0.000081603668    -0.000053892929     0.000689567889
       5       -0.000079644725     0.000516553370     0.000041652085
       6        0.000018263940     0.000004274082    -0.000000773615
       7        0.000006128069     0.000007324030    -0.000014404120
       8       -0.000029080431     0.000005424597     0.000006979814
       9       -0.000000144881     0.000004257653     0.000001695508
      10       -0.000000349304    -0.000007288924     0.000002083905
      11        0.000006371183    -0.000005367356     0.000003732870

  **** Optimization is complete! (in 6 steps) ****
    Final optimized geometry and variables:
    Molecular point group: c1

    Geometry (in Angstrom), charge = 0, multiplicity = 1:

    H           -1.789739652274     0.977297568542     0.482756874139
    C           -1.244788370634     0.034726717938     0.447561800980
    O            0.081864619122     0.197250615442     0.471444139884
    O           -1.781650749585    -1.005946425847     0.426218449033
    C            0.731679600890     0.289521402802    -0.789510404033
    C            2.207616102323     0.492793755612    -0.545785467751
    H            0.315407351119     1.122207950808    -1.348801065598
    H            0.548497703493    -0.621569324345    -1.345350609733
    H            2.380646495152     1.403447355263     0.012984468702
    H            2.730050044889     0.562868865697    -1.492496483982
    H            2.615768940181    -0.338040697869     0.014447610407

  Mulliken Charges: (a.u.)
   Center  Symbol    Alpha    Beta     Spin     Total
       1     H     0.46492  0.46492  0.00000  0.07017
       2     C     2.83830  2.83830  0.00000  0.32340
       3     O     4.15957  4.15957  0.00000 -0.31914
       4     O     4.16368  4.16368  0.00000 -0.32735
       5     C     2.96757  2.96757  0.00000  0.06486
       6     C     3.13400  3.13400  0.00000 -0.26800
       7     H     0.46607  0.46607  0.00000  0.06786
       8     H     0.45442  0.45442  0.00000  0.09117
       9     H     0.44963  0.44963  0.00000  0.10074
      10     H     0.45589  0.45589  0.00000  0.08822
      11     H     0.44597  0.44597  0.00000  0.10807

   Total alpha = 20.00000, Total beta = 20.00000, Total charge = -0.00000

*** Psi4 exiting successfully. Buy a developer a beer!
