  ==> Input File <==

--------------------------------------------------------------------------
set {
	reference rhf
	basis cc-pvtz
}

set_num_threads( 4 )
memory 2 gb

molecule MOL {
0 1

H	 -3.162190	 0.493205	 -0.000107
C	 -2.363908	 -0.234727	 0.000005
O	 -1.158738	 0.454634	 -0.000087
H	 -2.464314	 -0.863616	 -0.882153
H	 -2.464327	 -0.863359	 0.882345
C	 -0.028611	 -0.359694	 0.000037
C	 1.212847	 0.509314	 -0.000053
H	 -0.034155	 -1.007047	 -0.877198
H	 -0.034195	 -1.006836	 0.877430
C	 0.903068	 1.967262	 -0.320638
H	 1.687763	 0.433298	 0.971853
H	 1.914714	 0.108856	 -0.723218
H	 0.220300	 2.395365	 0.405752
H	 1.806471	 2.564621	 -0.313866
H	 0.449048	 2.068788	 -1.300754

	symmetry c1
}
set optking {
	frozen_dihedral = ("
		11 7 6 8
	")
}

ee = optimize('scf')
oeprop('DIPOLE', 'QUADRUPOLE', 'MULLIKEN_CHARGES')
f=open( 'psi4out.xyz', 'w' )
f.write( "15  " )
f.write( str(ee) + "\n" )
f.write( MOL.save_string_xyz() )
f.close()
--------------------------------------------------------------------------

    Molecular point group: c1
  Charge       = 0
  Multiplicity = 1
  Basis Set: CC-PVTZ
  Basis Set:
  @DF-RHF Final Energy:  -232.21895913976422
    Total Energy =                       -232.2189591397643653
    Molecular point group: c1
  Basis Set: CC-PVTZ
  Basis Set:
  Basis Set: CC-PVTZ
  Basis Set:
  @DF-RHF Final Energy:  -232.21979001704275
    Total Energy =                       -232.2197900170427829
  Basis Set: CC-PVTZ
  Basis Set:
  Basis Set: CC-PVTZ
  Basis Set:
  @DF-RHF Final Energy:  -232.22087211296790
    Total Energy =                       -232.2208721129678679
  Basis Set: CC-PVTZ
  Basis Set:
  Basis Set: CC-PVTZ
  Basis Set:
  @DF-RHF Final Energy:  -232.22092294257772
    Total Energy =                       -232.2209229425776584
  Basis Set: CC-PVTZ
  Basis Set:
  Basis Set: CC-PVTZ
  Basis Set:
  @DF-RHF Final Energy:  -232.22092580576344
    Total Energy =                       -232.2209258057637271
  Basis Set: CC-PVTZ
  Basis Set:
  Charge       = 0
  Multiplicity = 1
  Basis Set: CC-PVTZ
  Basis Set:

    Orbital Energies (a.u.)
    -----------------------

    Doubly Occupied:

       1A    -20.548578     2A    -11.265337     3A    -11.262593
       4A    -11.214075     5A    -11.199871     6A     -1.383266
       7A     -1.049870     8A     -0.950212     9A     -0.890990
      10A     -0.794250    11A     -0.674157    12A     -0.659038
      13A     -0.636345    14A     -0.601849    15A     -0.554516
      16A     -0.540965    17A     -0.507209    18A     -0.482680
      19A     -0.474057    20A     -0.461961    21A     -0.411051

  @DF-RHF Final Energy:  -232.22092595862216

   => Energetics <=

    Nuclear Repulsion Energy =            193.3734798566659947
    One-Electron Energy =                -698.0630719030250475
    Two-Electron Energy =                 272.4686660877368354
    DFT Exchange-Correlation Energy =       0.0000000000000000
    Empirical Dispersion Energy =           0.0000000000000000
    PCM Polarization Energy =               0.0000000000000000
    EFP Energy =                            0.0000000000000000
    Total Energy =                       -232.2209259586222174
    Molecular point group: c1
  Basis Set: CC-PVTZ
  Basis Set:

  -Total Gradient:
     Atom            X                  Y                   Z
    ------   -----------------  -----------------  -----------------
       1        0.000002996019     0.000003294530     0.000000016156
       2        0.000018768502     0.000002059454     0.000004181641
       3       -0.000049809524     0.000032578865     0.000011577337
       4        0.000003818868     0.000000441965    -0.000001620971
       5        0.000000286518    -0.000000745009     0.000000464556
       6       -0.002207493877     0.003315893279    -0.003395546608
       7       -0.002630182216     0.003667477384     0.002532070861
       8        0.002288978861    -0.003392409081     0.002417386981
       9        0.000000873463     0.000013653404     0.000000311969
      10       -0.000002972755     0.000007208822    -0.000016233607
      11        0.002587013482    -0.003653048832    -0.001564420139
      12       -0.000009801817    -0.000002130669    -0.000002365163
      13       -0.000007278760     0.000002769842    -0.000002691700
      14       -0.000000362451    -0.000000519588     0.000008666755
      15        0.000005165689     0.000003475633     0.000008201932

  **** Optimization is complete! (in 6 steps) ****
    Final optimized geometry and variables:
    Molecular point group: c1

    Geometry (in Angstrom), charge = 0, multiplicity = 1:

    H           -2.890623418047    -0.068365605408     0.111197537798
    C           -2.063274059240    -0.762450079340     0.077971932829
    O           -0.887654807474    -0.025000682520     0.086675073945
    H           -2.148675884524    -1.365918007349    -0.823386786725
    H           -2.126159489073    -1.423657741772     0.939792330810
    C            0.270037972487    -0.796789472429     0.041273018122
    C            1.532657071388     0.078823006389     0.080301025622
    H            0.275071168700    -1.427244403978    -0.846770003970
    H            0.280626311835    -1.482067783498     0.888044575555
    C            1.321052490202     1.545185135719    -0.280493677234
    H            2.002647948013    -0.007178196551     1.053653383576
    H            2.249951073068    -0.350074672158    -0.612738921401
    H            0.655783652640     2.033053415023     0.417790485055
    H            2.270839999600     2.067844922629    -0.269927782647
    H            0.891388599135     1.649198537948    -1.269420736015

  Mulliken Charges: (a.u.)
   Center  Symbol    Alpha    Beta     Spin     Total
       1     H     0.44768  0.44768  0.00000  0.10465
       2     C     3.03223  3.03223  0.00000 -0.06446
       3     O     4.16937  4.16937  0.00000 -0.33874
       4     H     0.47163  0.47163  0.00000  0.05675
       5     H     0.47169  0.47169  0.00000  0.05661
       6     C     2.96580  2.96580  0.00000  0.06840
       7     C     3.09459  3.09459  0.00000 -0.18919
       8     H     0.47352  0.47352  0.00000  0.05297
       9     H     0.47135  0.47135  0.00000  0.05730
      10     C     3.13894  3.13894  0.00000 -0.27788
      11     H     0.45235  0.45235  0.00000  0.09530
      12     H     0.45519  0.45519  0.00000  0.08962
      13     H     0.44822  0.44822  0.00000  0.10356
      14     H     0.45316  0.45316  0.00000  0.09368
      15     H     0.45428  0.45428  0.00000  0.09144

   Total alpha = 21.00000, Total beta = 21.00000, Total charge = -0.00000
