                              Psi4 1.0.54 Driver

  ==> Input File <==

--------------------------------------------------------------------------
set {
	reference rhf
	basis cc-pvtz
}

set_num_threads( 4 )
memory 2 gb

molecule MOL {
0 1

H	 2.614283	 2.028610	 0.296620
O	 3.358864	 1.662087	 -0.142800
C	 3.565468	 0.338079	 0.273842
C	 2.533667	 -0.637565	 -0.272227
H	 4.548038	 0.064914	 -0.086598
H	 3.593945	 0.282242	 1.360360
C	 1.114816	 -0.402372	 0.240993
H	 2.544552	 -0.580764	 -1.356576
H	 2.850574	 -1.642962	 -0.005497
C	 0.561000	 0.964763	 -0.157837
H	 1.104480	 -0.495062	 1.321875
H	 0.458307	 -1.179813	 -0.146136
C	 -0.885359	 1.225153	 0.267012
H	 1.200884	 1.742445	 0.252025
H	 0.623856	 1.060611	 -1.238268
C	 -1.106593	 1.335297	 1.774549
H	 -1.216391	 2.149167	 -0.198976
H	 -1.523446	 0.440643	 -0.133669
C	 -2.544146	 1.693506	 2.142703
H	 -0.435367	 2.088990	 2.180591
H	 -0.843623	 0.400382	 2.260124
C	 -2.769394	 1.800598	 3.647259
H	 -2.811195	 2.635204	 1.671040
H	 -3.216764	 0.945996	 1.730543
H	 -2.133649	 2.563214	 4.084845
H	 -3.797764	 2.058317	 3.873409
H	 -2.547113	 0.862134	 4.144480

	symmetry c1
}
set optking {
	frozen_dihedral = ("
		10 7 4 8
	")
}

ee,wfn = optimize('scf', return_wfn=True)
oeprop( wfn, 'DIPOLE', 'QUADRUPOLE', 'MULLIKEN_CHARGES')
f=open( 'psi4out.xyz', 'w' )
f.write( "27  " )
f.write( str(ee) + "\n" )
f.write( MOL.save_string_xyz() )
f.close()
--------------------------------------------------------------------------

    Molecular point group: c1
  Charge       = 0
  Multiplicity = 1
  Basis Set: CC-PVTZ
  Basis Set:
  @DF-RHF Final Energy:  -388.41348526242177
    Total Energy =                       -388.4134852624212044
    Molecular point group: c1
  Basis Set: CC-PVTZ
  Basis Set:
  Basis Set: CC-PVTZ
  Basis Set:
  @DF-RHF Final Energy:  -388.38819259502634
    Total Energy =                       -388.3881925950265668
  Basis Set: CC-PVTZ
  Basis Set:
  Basis Set: CC-PVTZ
  Basis Set:
  @DF-RHF Final Energy:  -388.42242218787510
    Total Energy =                       -388.4224221878755543
  Basis Set: CC-PVTZ
  Basis Set:
  Basis Set: CC-PVTZ
  Basis Set:
  @DF-RHF Final Energy:  -388.42376835524971
    Total Energy =                       -388.4237683552496492
  Basis Set: CC-PVTZ
  Basis Set:
  @DF-RHF Final Energy:  -388.42401176288240
    Total Energy =                       -388.4240117628828557
  @DF-RHF Final Energy:  -388.42405822764465
    Total Energy =                       -388.4240582276446503
  Basis Set: CC-PVTZ
  Basis Set:
  @DF-RHF Final Energy:  -388.42408673634890
    Total Energy =                       -388.4240867363490679
  Basis Set: CC-PVTZ
  Basis Set:
  Basis Set: CC-PVTZ
  Basis Set:
  @DF-RHF Final Energy:  -388.42410571140391
    Total Energy =                       -388.4241057114033993
  Basis Set: CC-PVTZ
  Basis Set:
  Basis Set: CC-PVTZ
  Basis Set:
  @DF-RHF Final Energy:  -388.42411105114383
    Total Energy =                       -388.4241110511433135
  Basis Set: CC-PVTZ
  Basis Set:
  Charge       = 0
  Multiplicity = 1
  Basis Set: CC-PVTZ
  Basis Set:

    Orbital Energies (a.u.)
    -----------------------

    Doubly Occupied:

       1A    -20.542606     2A    -11.264283     3A    -11.220385
       4A    -11.217793     5A    -11.216136     6A    -11.215324
       7A    -11.214118     8A    -11.213899     9A    -11.208410
      10A     -1.361179    11A     -1.098094    12A     -1.062420
      13A     -1.014172    14A     -0.949713    15A     -0.891717
      16A     -0.826517    17A     -0.802726    18A     -0.777518
      19A     -0.697706    20A     -0.650569    21A     -0.629800
      22A     -0.625173    23A     -0.600699    24A     -0.584952
      25A     -0.569421    26A     -0.563460    27A     -0.550121
      28A     -0.530385    29A     -0.517486    30A     -0.498816
      31A     -0.486638    32A     -0.474666    33A     -0.469188
      34A     -0.461970    35A     -0.450264    36A     -0.440184
      37A     -0.425923

  @DF-RHF Final Energy:  -388.42411171733681

   => Energetics <=

    Nuclear Repulsion Energy =            465.9390735633670602
    One-Electron Energy =               -1450.0775043565379292
    Two-Electron Energy =                 595.7143190758341689
    DFT Exchange-Correlation Energy =       0.0000000000000000
    Empirical Dispersion Energy =           0.0000000000000000
    PCM Polarization Energy =               0.0000000000000000
    EFP Energy =                            0.0000000000000000
    Total Energy =                       -388.4241117173367002
    Molecular point group: c1
  Basis Set: CC-PVTZ
  Basis Set:

  -Total Gradient:
     Atom            X                  Y                   Z
    ------   -----------------  -----------------  -----------------
       1       -0.000032920449     0.000006474235     0.000026968332
       2        0.000051107574    -0.000026987428    -0.000001431826
       3        0.000004743270     0.000011087226     0.000004285334
       4        0.000011660073     0.000078514931     0.000027881851
       5       -0.000010311081     0.000021913929    -0.000015095041
       6       -0.000010047284    -0.000008115451    -0.000040994243
       7       -0.000041078575    -0.000073615258    -0.000051980811
       8       -0.000000225833    -0.000036784501     0.000040851853
       9       -0.000015730776    -0.000005443665     0.000002106299
      10        0.000042217016     0.000015083094     0.000036234264
      11        0.000022041782    -0.000007506423    -0.000030566924
      12       -0.000005065332     0.000001613449     0.000006669220
      13       -0.000021794714    -0.000008870896     0.000002227586
      14       -0.000013215349     0.000005735224     0.000007458642
      15        0.000000755480     0.000001873415    -0.000010229368
      16        0.000017020031     0.000013765576     0.000000836608
      17       -0.000009222151     0.000006501570    -0.000006528935
      18        0.000015724077     0.000003357843    -0.000001767607
      19        0.000003992308     0.000002092340    -0.000017925621
      20       -0.000002468899     0.000000974041     0.000007288762
      21       -0.000003013545     0.000002610848     0.000003711937
      22        0.000000732811    -0.000002349517     0.000006306678
      23        0.000000047664    -0.000000456233     0.000003733786
      24       -0.000001136952     0.000004395865     0.000002162831
      25       -0.000002671250    -0.000005952261    -0.000004856450
      26       -0.000001029531    -0.000001728546     0.000002868632
      27       -0.000000110360     0.000001816593    -0.000000215784

  **** Optimization is complete! (in 10 steps) ****
    Final optimized geometry and variables:
    Molecular point group: c1

    Geometry (in Angstrom), charge = 0, multiplicity = 1:

    H            2.207609927574     1.348347028718    -1.649163109466
    O            3.025271094007     0.909942308400    -1.787585827768
    C            3.239854010627    -0.058761922756    -0.795378200272
    C            2.283489229405    -1.245626456708    -0.857222255657
    H            4.249484871974    -0.410984811086    -0.956703820233
    H            3.213256769873     0.394259231283     0.194143731963
    C            0.896662521931    -1.045116541999    -0.238071117853
    H            2.189462653281    -1.549420092143    -1.895492178575
    H            2.758729158880    -2.071312424725    -0.334671675975
    C            0.012818153547     0.014156775994    -0.901928812627
    H            1.016442871207    -0.814213050439     0.816064104359
    H            0.375723524933    -1.997900978591    -0.279812843558
    C           -1.456109958897    -0.032902168906    -0.475393901425
    H            0.395410833158     1.009388185527    -0.684446546250
    H            0.062179887703    -0.108975040813    -1.979746330945
    C           -1.710323394559     0.289623913081     0.995772400412
    H           -2.013214592791     0.671407119403    -1.086960597030
    H           -1.859985533299    -1.016364713158    -0.703087602462
    C           -3.194308983481     0.322909041415     1.351783335864
    H           -1.264553673796     1.253298989920     1.233772928252
    H           -1.213853248129    -0.440121848718     1.627945541613
    C           -3.451711135340     0.639099377684     2.821286214295
    H           -3.695820320552     1.060778254737     0.731658620644
    H           -3.643082612110    -0.635770735436     1.106199412866
    H           -3.043521564838     1.607646895149     3.090571468302
    H           -4.513336652850     0.656131675929     3.039430606600
    H           -2.993509800488    -0.102259429604     3.467515121638

  Mulliken Charges: (a.u.)
   Center  Symbol    Alpha    Beta     Spin     Total
       1     H     0.38980  0.38980  0.00000  0.22039
       2     O     4.20669  4.20669  0.00000 -0.41338
       3     C     2.97842  2.97842  0.00000  0.04316
       4     C     3.10224  3.10224  0.00000 -0.20449
       5     H     0.44710  0.44710  0.00000  0.10581
       6     H     0.47077  0.47077  0.00000  0.05846
       7     C     3.10356  3.10356  0.00000 -0.20713
       8     H     0.44945  0.44945  0.00000  0.10110
       9     H     0.44895  0.44895  0.00000  0.10210
      10     C     3.10726  3.10726  0.00000 -0.21452
      11     H     0.45018  0.45018  0.00000  0.09964
      12     H     0.44687  0.44687  0.00000  0.10626
      13     C     3.09842  3.09842  0.00000 -0.19684
      14     H     0.46509  0.46509  0.00000  0.06982
      15     H     0.43882  0.43882  0.00000  0.12237
      16     C     3.08814  3.08814  0.00000 -0.17628
      17     H     0.44729  0.44729  0.00000  0.10542
      18     H     0.45219  0.45219  0.00000  0.09562
      19     C     3.08484  3.08484  0.00000 -0.16968
      20     H     0.45560  0.45560  0.00000  0.08879
      21     H     0.45236  0.45236  0.00000  0.09528
      22     C     3.14959  3.14959  0.00000 -0.29918
      23     H     0.45363  0.45363  0.00000  0.09273
      24     H     0.45419  0.45419  0.00000  0.09162
      25     H     0.45515  0.45515  0.00000  0.08970
      26     H     0.44807  0.44807  0.00000  0.10386
      27     H     0.45532  0.45532  0.00000  0.08936

   Total alpha = 37.00000, Total beta = 37.00000, Total charge =  0.00000

*** Psi4 exiting successfully. Buy a developer a beer!
