  ==> Input File <==

--------------------------------------------------------------------------
set {
	reference rhf
	basis 6-31G*
}

set_num_threads( 1 )
memory 2 gb

molecule MOL {
0 1

O	 -2.042549	 -1.228399	 -0.269030
C	 -1.653912	 -0.146171	 0.050137
C	 -0.332303	 0.024011	 0.778412
C	 -2.438579	 1.106236	 -0.272369
C	 0.845713	 -0.001731	 -0.208243
H	 -0.323783	 0.953829	 1.340327
H	 -0.235459	 -0.796807	 1.480410
C	 1.806438	 -1.162927	 0.051877
H	 1.394178	 0.936886	 -0.151077
H	 0.450591	 -0.070237	 -1.217365
C	 2.974040	 -1.196211	 -0.933417
H	 2.191231	 -1.093447	 1.067028
H	 1.258167	 -2.100347	 -0.004786
H	 3.562405	 -0.284838	 -0.876169
H	 2.621140	 -1.298096	 -1.955437
H	 3.636521	 -2.030816	 -0.727067
H	 -3.277823	 0.863061	 -0.908988
H	 -1.806773	 1.843019	 -0.759671
H	 -2.802853	 1.554979	 0.648059

	symmetry c1
}
set optking {
	frozen_dihedral = ("
		11 8 5 9,
		5 3 2 4
	")
}

ee = energy('scf')
oeprop('DIPOLE', 'QUADRUPOLE', 'MULLIKEN_CHARGES')
f=open( 'psi4out.xyz', 'w' )
f.write( "19  " )
f.write( str(ee) + "\n" )
f.write( MOL.save_string_xyz() )
f.close()
--------------------------------------------------------------------------

    Molecular point group: c1

    Geometry (in Angstrom), charge = 0, multiplicity = 1:

       Center              X                  Y                   Z               Mass
    ------------   -----------------  -----------------  -----------------  -----------------
           O         -1.927312176277    -0.851689742422    -0.141271064049    15.994914619560
           C         -1.538675176277     0.230538257578     0.177895935951    12.000000000000
           C         -0.217066176277     0.400720257578     0.906170935951    12.000000000000
           C         -2.323342176277     1.482945257578    -0.144610064049    12.000000000000
           C          0.960949823723     0.374978257578    -0.080484064049    12.000000000000
           H         -0.208546176277     1.330538257578     1.468085935951     1.007825032070
           H         -0.120222176277    -0.420097742422     1.608168935951     1.007825032070
           C          1.921674823723    -0.786217742422     0.179635935951    12.000000000000
           H          1.509414823723     1.313595257578    -0.023318064049     1.007825032070
           H          0.565827823723     0.306472257578    -1.089606064049     1.007825032070
           C          3.089276823723    -0.819501742422    -0.805658064049    12.000000000000
           H          2.306467823723    -0.716737742422     1.194786935951     1.007825032070
           H          1.373403823723    -1.723637742422     0.122972935951     1.007825032070
           H          3.677641823723     0.091871257578    -0.748410064049     1.007825032070
           H          2.736376823723    -0.921386742422    -1.827678064049     1.007825032070
           H          3.751757823723    -1.654106742422    -0.599308064049     1.007825032070
           H         -3.162586176277     1.239770257578    -0.781229064049     1.007825032070
           H         -1.691536176277     2.219728257578    -0.631912064049     1.007825032070
           H         -2.687616176277     1.931688257578     0.775817935951     1.007825032070

  Charge       = 0
  Multiplicity = 1
  Basis Set: 6-31G*
  Basis Set:

    Orbital Energies (a.u.)
    -----------------------

    Doubly Occupied:

       1A    -20.547007     2A    -11.324769     3A    -11.229536
       4A    -11.228600     5A    -11.227625     6A    -11.221219
       7A    -11.211775     8A     -1.393199     9A     -1.090122
      10A     -1.028156    11A     -0.982802    12A     -0.887980
      13A     -0.806347    14A     -0.734896    15A     -0.662760
      16A     -0.638449    17A     -0.623470    18A     -0.610598
      19A     -0.582144    20A     -0.575032    21A     -0.553438
      22A     -0.528182    23A     -0.525421    24A     -0.495094
      25A     -0.477913    26A     -0.470600    27A     -0.464227
      28A     -0.396795

  @DF-RHF Final Energy:  -309.05942242735648

   => Energetics <=

    Nuclear Repulsion Energy =            303.6279360313719735
    One-Electron Energy =               -1020.3386099904729463
    Two-Electron Energy =                 407.6512515317450607
    DFT Exchange-Correlation Energy =       0.0000000000000000
    Empirical Dispersion Energy =           0.0000000000000000
    PCM Polarization Energy =               0.0000000000000000
    EFP Energy =                            0.0000000000000000
    Total Energy =                       -309.0594224273559121

  Mulliken Charges: (a.u.)
   Center  Symbol    Alpha    Beta     Spin     Total
       1     O     4.26223  4.26223  0.00000 -0.52445
       2     C     2.74166  2.74166  0.00000  0.51668
       3     C     3.20257  3.20257  0.00000 -0.40515
       4     C     3.28949  3.28949  0.00000 -0.57898
       5     C     3.15797  3.15797  0.00000 -0.31594
       6     H     0.41421  0.41421  0.00000  0.17158
       7     H     0.39874  0.39874  0.00000  0.20252
       8     C     3.15513  3.15513  0.00000 -0.31025
       9     H     0.41808  0.41808  0.00000  0.16384
      10     H     0.41286  0.41286  0.00000  0.17428
      11     C     3.24142  3.24142  0.00000 -0.48284
      12     H     0.42168  0.42168  0.00000  0.15664
      13     H     0.41163  0.41163  0.00000  0.17674
      14     H     0.42238  0.42238  0.00000  0.15524
      15     H     0.41927  0.41927  0.00000  0.16145
      16     H     0.41731  0.41731  0.00000  0.16538
      17     H     0.39712  0.39712  0.00000  0.20576
      18     H     0.40975  0.40975  0.00000  0.18049
      19     H     0.40650  0.40650  0.00000  0.18700

   Total alpha = 28.00000, Total beta = 28.00000, Total charge = -0.00000
