                              Psi4 1.0.54 Driver

  ==> Input File <==

--------------------------------------------------------------------------
set {
	reference rhf
	basis cc-pvtz
}

set_num_threads( 4 )
memory 2 gb

molecule MOL {
0 1

H	 3.078613	 1.298234	 -0.836683
C	 2.366447	 1.118876	 -0.041743
C	 1.322304	 0.099773	 -0.484271
H	 2.916955	 0.768584	 0.824055
H	 1.908004	 2.067628	 0.213288
C	 0.308557	 -0.162619	 0.622645
H	 1.801834	 -0.834197	 -0.749761
H	 0.798851	 0.459214	 -1.361617
N	 -1.069352	 -0.004081	 0.085342
H	 0.371632	 -1.172932	 0.991288
H	 0.400391	 0.548875	 1.426218
O	 -1.584901	 -0.965470	 -0.377818
O	 -1.548033	 1.079343	 0.130056

	symmetry c1
}
set optking {
	frozen_dihedral = ("
		7 3 6 9
	")
}

ee,wfn = optimize('scf', return_wfn=True)
oeprop( wfn, 'DIPOLE', 'QUADRUPOLE', 'MULLIKEN_CHARGES')
f=open( 'psi4out.xyz', 'w' )
f.write( "13  " )
f.write( str(ee) + "\n" )
f.write( MOL.save_string_xyz() )
f.close()
--------------------------------------------------------------------------

    Molecular point group: c1
  Charge       = 0
  Multiplicity = 1
  Basis Set: CC-PVTZ
  Basis Set:
  @DF-RHF Final Energy:  -321.85587235722471
    Total Energy =                       -321.8558723572245981
    Molecular point group: c1
  Basis Set: CC-PVTZ
  Basis Set:
  Basis Set: CC-PVTZ
  Basis Set:
  @DF-RHF Final Energy:  -321.85311833881821
    Total Energy =                       -321.8531183388179215
  Basis Set: CC-PVTZ
  Basis Set:
  Basis Set: CC-PVTZ
  Basis Set:
  @DF-RHF Final Energy:  -321.84981281346847
    Total Energy =                       -321.8498128134688159
  Basis Set: CC-PVTZ
  Basis Set:
  Basis Set: CC-PVTZ
  Basis Set:
  @DF-RHF Final Energy:  -321.85612996591829
    Total Energy =                       -321.8561299659183987
  Basis Set: CC-PVTZ
  Basis Set:
  @DF-RHF Final Energy:  -321.85618745244551
    Total Energy =                       -321.8561874524456243
  @DF-RHF Final Energy:  -321.85627725524176
    Total Energy =                       -321.8562772552418778
  @DF-RHF Final Energy:  -321.85628081878895
    Total Energy =                       -321.8562808187891164
  Basis Set: CC-PVTZ
  Basis Set:
  @DF-RHF Final Energy:  -321.85628268113464
    Total Energy =                       -321.8562826811347577
  Basis Set: CC-PVTZ
  Basis Set:
  Basis Set: CC-PVTZ
  Basis Set:
  @DF-RHF Final Energy:  -321.85628365081226
    Total Energy =                       -321.8562836508125429
  Basis Set: CC-PVTZ
  Basis Set:
  Basis Set: CC-PVTZ
  Basis Set:
  @DF-RHF Final Energy:  -321.85628490491507
    Total Energy =                       -321.8562849049149577
  Basis Set: CC-PVTZ
  Basis Set:
  Charge       = 0
  Multiplicity = 1
  Basis Set: CC-PVTZ
  Basis Set:

    Orbital Energies (a.u.)
    -----------------------

    Doubly Occupied:

       1A    -20.591505     2A    -20.589332     3A    -15.836963
       4A    -11.297390     5A    -11.255281     6A    -11.233942
       7A     -1.636101     8A     -1.420337     9A     -1.131358
      10A     -1.026940    11A     -0.884362    12A     -0.834276
      13A     -0.762760    14A     -0.737760    15A     -0.727387
      16A     -0.661824    17A     -0.614220    18A     -0.591419
      19A     -0.540297    20A     -0.519871    21A     -0.515090
      22A     -0.484517    23A     -0.474752    24A     -0.453991

  @DF-RHF Final Energy:  -321.85628504711258

   => Energetics <=

    Nuclear Repulsion Energy =            248.7730903983890300
    One-Electron Energy =                -931.6153989185643240
    Two-Electron Energy =                 360.9860234730628008
    DFT Exchange-Correlation Energy =       0.0000000000000000
    Empirical Dispersion Energy =           0.0000000000000000
    PCM Polarization Energy =               0.0000000000000000
    EFP Energy =                            0.0000000000000000
    Total Energy =                       -321.8562850471124648
    Molecular point group: c1
  Basis Set: CC-PVTZ
  Basis Set:

  -Total Gradient:
     Atom            X                  Y                   Z
    ------   -----------------  -----------------  -----------------
       1        0.000001415826     0.000002574552     0.000001915909
       2       -0.000011517821    -0.000016851854    -0.000009389469
       3       -0.001525702809     0.000061758724    -0.001423019529
       4        0.000003318245     0.000004931896     0.000001107244
       5        0.000002918557     0.000002384966     0.000003059833
       6        0.000236136394    -0.001648138614    -0.000143051340
       7        0.001266009422     0.000303010925     0.001240920686
       8        0.000001268990     0.000000863442    -0.000003027707
       9       -0.000033600862     0.001421700192     0.000337961967
      10       -0.000001182128     0.000005401990    -0.000005460377
      11        0.000000510649     0.000005124151     0.000000924644
      12        0.000002971895    -0.000031910473    -0.000008054633
      13        0.000057453640    -0.000110849901     0.000006112773

  **** Optimization is complete! (in 11 steps) ****
    Final optimized geometry and variables:
    Molecular point group: c1

    Geometry (in Angstrom), charge = 0, multiplicity = 1:

    H            3.178166307207     1.071646987468    -0.842468197970
    C            2.452012853427     0.926926692320    -0.052495742779
    C            1.396250728756    -0.089255710842    -0.475870054864
    H            2.986043926049     0.594325300296     0.831076585852
    H            1.999489273879     1.886094025935     0.168915905173
    C            0.367369858068    -0.359106981270     0.637884582455
    H            1.877778805835    -1.021662356763    -0.738622864081
    H            0.885760697457     0.266923941818    -1.360479472402
    N           -1.012128275660    -0.206330348678     0.105062273783
    H            0.428999294938    -1.360194206379     1.026170362935
    H            0.444587420802     0.361989571514     1.434125213374
    O           -1.572780595894    -1.186935139420    -0.252483707110
    O           -1.447420690050     0.895173011728     0.045655674230

  Mulliken Charges: (a.u.)
   Center  Symbol    Alpha    Beta     Spin     Total
       1     H     0.44456  0.44456  0.00000  0.11088
       2     C     3.15013  3.15013  0.00000 -0.30026
       3     C     3.08902  3.08902  0.00000 -0.17803
       4     H     0.45311  0.45311  0.00000  0.09378
       5     H     0.44676  0.44676  0.00000  0.10648
       6     C     3.04116  3.04116  0.00000 -0.08232
       7     H     0.44282  0.44282  0.00000  0.11436
       8     H     0.43950  0.43950  0.00000  0.12099
       9     N     3.27918  3.27918  0.00000  0.44163
      10     H     0.43145  0.43145  0.00000  0.13710
      11     H     0.43653  0.43653  0.00000  0.12694
      12     O     4.17087  4.17087  0.00000 -0.34174
      13     O     4.17491  4.17491  0.00000 -0.34981

   Total alpha = 24.00000, Total beta = 24.00000, Total charge =  0.00000

*** Psi4 exiting successfully. Buy a developer a beer!
