  ==> Input File <==

--------------------------------------------------------------------------
set {
	reference rhf
	basis 6-31G*
}

set_num_threads( 1 )
memory 2 gb

molecule MOL {
0 1

H	 3.892093	 0.329437	 0.113932
N	 3.092854	 -0.246221	 -0.068770
C	 1.865559	 0.531981	 0.018834
H	 3.096913	 -0.974167	 0.620366
C	 0.645745	 -0.382037	 -0.029944
H	 1.841966	 1.207024	 -0.831236
H	 1.815756	 1.155410	 0.915079
C	 -0.679275	 0.379305	 0.025956
H	 0.698998	 -0.976915	 -0.937203
H	 0.693479	 -1.083846	 0.802235
C	 -1.903357	 -0.536963	 -0.023547
H	 -0.726309	 1.082987	 -0.803784
H	 -0.717680	 0.977832	 0.934877
C	 -3.225172	 0.228290	 0.028445
H	 -1.867824	 -1.134999	 -0.931459
H	 -1.860449	 -1.239604	 0.805977
H	 -3.313397	 0.915643	 -0.808262
H	 -4.073500	 -0.448134	 -0.008893
H	 -3.306061	 0.809945	 0.942516

	symmetry c1
}
set optking {
	frozen_dihedral = ("
		6 3 5 9,
		12 8 5 9,
		12 8 11 15
	")
}

ee = energy('scf')
oeprop('DIPOLE', 'QUADRUPOLE', 'MULLIKEN_CHARGES')
f=open( 'psi4out.xyz', 'w' )
f.write( "19  " )
f.write( str(ee) + "\n" )
f.write( MOL.save_string_xyz() )
f.close()
--------------------------------------------------------------------------

    Molecular point group: c1

    Geometry (in Angstrom), charge = 0, multiplicity = 1:

       Center              X                  Y                   Z               Mass
    ------------   -----------------  -----------------  -----------------  -----------------
           H          3.893292592247     0.331451464979     0.112847647449     1.007825032070
           N          3.094053592247    -0.244206535021    -0.069854352551    14.003074004780
           C          1.866758592247     0.533995464979     0.017749647449    12.000000000000
           H          3.098112592247    -0.972152535021     0.619281647449     1.007825032070
           C          0.646944592247    -0.380022535021    -0.031028352551    12.000000000000
           H          1.843165592247     1.209038464979    -0.832320352551     1.007825032070
           H          1.816955592247     1.157424464979     0.913994647449     1.007825032070
           C         -0.678075407753     0.381319464979     0.024871647449    12.000000000000
           H          0.700197592247    -0.974900535021    -0.938287352551     1.007825032070
           H          0.694678592247    -1.081831535021     0.801150647449     1.007825032070
           C         -1.902157407753    -0.534948535021    -0.024631352551    12.000000000000
           H         -0.725109407753     1.085001464979    -0.804868352551     1.007825032070
           H         -0.716480407753     0.979846464979     0.933792647449     1.007825032070
           C         -3.223972407753     0.230304464979     0.027360647449    12.000000000000
           H         -1.866624407753    -1.132984535021    -0.932543352551     1.007825032070
           H         -1.859249407753    -1.237589535021     0.804892647449     1.007825032070
           H         -3.312197407753     0.917657464979    -0.809346352551     1.007825032070
           H         -4.072300407753    -0.446119535021    -0.009977352551     1.007825032070
           H         -3.304861407753     0.811959464979     0.941431647449     1.007825032070

  Charge       = 0
  Multiplicity = 1
  Basis Set: 6-31G*
  Basis Set:

    Orbital Energies (a.u.)
    -----------------------

    Doubly Occupied:

       1A    -15.531818     2A    -11.239428     3A    -11.214944
       4A    -11.214060     5A    -11.212024     6A    -11.208203
       7A     -1.176584     8A     -1.073967     9A     -0.999150
      10A     -0.900597    11A     -0.814492    12A     -0.791053
      13A     -0.659960    14A     -0.645702    15A     -0.616764
      16A     -0.591379    17A     -0.564698    18A     -0.545919
      19A     -0.534520    20A     -0.497922    21A     -0.483576
      22A     -0.466432    23A     -0.462431    24A     -0.448895
      25A     -0.380696

  @DF-RHF Final Energy:  -251.35125875954253

   => Energetics <=

    Nuclear Repulsion Energy =            245.7457998412228335
    One-Electron Energy =                -825.6437248163833829
    Two-Electron Energy =                 328.5466662156181314
    DFT Exchange-Correlation Energy =       0.0000000000000000
    Empirical Dispersion Energy =           0.0000000000000000
    PCM Polarization Energy =               0.0000000000000000
    EFP Energy =                            0.0000000000000000
    Total Energy =                       -251.3512587595424179

  Mulliken Charges: (a.u.)
   Center  Symbol    Alpha    Beta     Spin     Total
       1     H     0.33286  0.33286  0.00000  0.33429
       2     N     3.92287  3.92287  0.00000 -0.84575
       3     C     3.05591  3.05591  0.00000 -0.11181
       4     H     0.33564  0.33564  0.00000  0.32873
       5     C     3.15681  3.15681  0.00000 -0.31362
       6     H     0.42022  0.42022  0.00000  0.15955
       7     H     0.43512  0.43512  0.00000  0.12975
       8     C     3.15430  3.15430  0.00000 -0.30859
       9     H     0.41277  0.41277  0.00000  0.17447
      10     H     0.42785  0.42785  0.00000  0.14429
      11     C     3.15108  3.15108  0.00000 -0.30215
      12     H     0.42280  0.42280  0.00000  0.15440
      13     H     0.42433  0.42433  0.00000  0.15134
      14     C     3.23940  3.23940  0.00000 -0.47881
      15     H     0.42180  0.42180  0.00000  0.15640
      16     H     0.42332  0.42332  0.00000  0.15336
      17     H     0.42157  0.42157  0.00000  0.15685
      18     H     0.41921  0.41921  0.00000  0.16158
      19     H     0.42214  0.42214  0.00000  0.15572

   Total alpha = 25.00000, Total beta = 25.00000, Total charge = -0.00000
