                              Psi4 1.0.54 Driver

  ==> Input File <==

--------------------------------------------------------------------------
set {
	reference rhf
	basis cc-pvtz
}

set_num_threads( 4 )
memory 2 gb

molecule MOL {
0 1

H	 -2.634881	 0.644738	 0.776669
C	 -2.542431	 0.094930	 -0.150361
C	 -1.281705	 -0.755563	 -0.157060
H	 -2.528605	 0.815917	 -0.956713
H	 -3.418889	 -0.531459	 -0.265952
C	 0.000000	 0.039916	 0.000014
H	 -1.204816	 -1.325072	 -1.079365
H	 -1.310158	 -1.494805	 0.638933
C	 1.286532	 -0.763243	 0.000268
O	 -0.003567	 1.221835	 0.115911
C	 2.547023	 0.087626	 -0.000114
H	 1.264245	 -1.421103	 -0.864380
H	 1.264290	 -1.420353	 0.865489
H	 2.584452	 0.725630	 -0.872909
H	 3.427035	 -0.544422	 0.000125
H	 2.584484	 0.726356	 0.872143

	symmetry c1
}
set optking {
	frozen_dihedral = ("
		3 6 9 12
	")
}

ee,wfn = optimize('scf', return_wfn=True)
oeprop( wfn, 'DIPOLE', 'QUADRUPOLE', 'MULLIKEN_CHARGES')
f=open( 'psi4out.xyz', 'w' )
f.write( "16  " )
f.write( str(ee) + "\n" )
f.write( MOL.save_string_xyz() )
f.close()
--------------------------------------------------------------------------

    Molecular point group: c1
  Charge       = 0
  Multiplicity = 1
  Basis Set: CC-PVTZ
  Basis Set:
  @DF-RHF Final Energy:  -270.13180155395503
    Total Energy =                       -270.1318015539551993
    Molecular point group: c1
  Basis Set: CC-PVTZ
  Basis Set:
  Basis Set: CC-PVTZ
  Basis Set:
  @DF-RHF Final Energy:  -270.13182890164444
    Total Energy =                       -270.1318289016446101
  Basis Set: CC-PVTZ
  Basis Set:
  Basis Set: CC-PVTZ
  Basis Set:
  @DF-RHF Final Energy:  -270.13161724862596
    Total Energy =                       -270.1316172486258438
  Basis Set: CC-PVTZ
  Basis Set:
  Basis Set: CC-PVTZ
  Basis Set:
  @DF-RHF Final Energy:  -270.13184817429203
    Total Energy =                       -270.1318481742920881
  Basis Set: CC-PVTZ
  Basis Set:
  Basis Set: CC-PVTZ
  Basis Set:
  @DF-RHF Final Energy:  -270.13185271581438
    Total Energy =                       -270.1318527158141478
  Basis Set: CC-PVTZ
  Basis Set:
  Charge       = 0
  Multiplicity = 1
  Basis Set: CC-PVTZ
  Basis Set:

    Orbital Energies (a.u.)
    -----------------------

    Doubly Occupied:

       1A    -20.539158     2A    -11.317905     3A    -11.232229
       4A    -11.232199     5A    -11.211862     6A    -11.211820
       7A     -1.399435     8A     -1.069452     9A     -1.037243
      10A     -0.917094    11A     -0.846107    12A     -0.725973
      13A     -0.669674    14A     -0.648978    15A     -0.620102
      16A     -0.608018    17A     -0.561233    18A     -0.528025
      19A     -0.525714    20A     -0.510982    21A     -0.505165
      22A     -0.492426    23A     -0.487949    24A     -0.401205

  @DF-RHF Final Energy:  -270.13185338037579

   => Energetics <=

    Nuclear Repulsion Energy =            240.3575458725677265
    One-Electron Energy =                -842.3788947323917000
    Two-Electron Energy =                 331.8894954794482715
    DFT Exchange-Correlation Energy =       0.0000000000000000
    Empirical Dispersion Energy =           0.0000000000000000
    PCM Polarization Energy =               0.0000000000000000
    EFP Energy =                            0.0000000000000000
    Total Energy =                       -270.1318533803757305
    Molecular point group: c1
  Basis Set: CC-PVTZ
  Basis Set:

  -Total Gradient:
     Atom            X                  Y                   Z
    ------   -----------------  -----------------  -----------------
       1        0.000000449117    -0.000000762900    -0.000009399696
       2        0.000001994684     0.000001102502     0.000007063035
       3        0.000018373070     0.000039268117    -0.000119620304
       4       -0.000000408517    -0.000002756945     0.000004502037
       5        0.000002105850    -0.000002199548    -0.000001824244
       6       -0.000030477045     0.000004326290     0.000197342020
       7       -0.000004535832    -0.000012567036     0.000005323003
       8       -0.000003286231    -0.000008462575     0.000000560931
       9        0.000068972839     0.000131234385    -0.000173284037
      10        0.000002363413    -0.000048372480    -0.000007175835
      11        0.000006137124    -0.000001584963     0.000004221183
      12       -0.000048684527    -0.000083633728     0.000095077261
      13       -0.000001228545    -0.000008420190     0.000009646253
      14        0.000003267746    -0.000002103801     0.000006141628
      15       -0.000009622910     0.000003855181    -0.000005492236
      16       -0.000005420239    -0.000008922309    -0.000013081001

  **** Optimization is complete! (in 6 steps) ****
    Final optimized geometry and variables:
    Molecular point group: c1

    Geometry (in Angstrom), charge = 0, multiplicity = 1:

    H           -2.618827665731     0.600500928693     0.880465061984
    C           -2.546157177346     0.087255014742    -0.069379753686
    C           -1.282050079868    -0.755291639315    -0.139353671077
    H           -2.554840486119     0.838624735665    -0.847139747041
    H           -3.422389294953    -0.539033778815    -0.187172391332
    C           -0.000194292899     0.041672493709     0.007098117326
    H           -1.225355788367    -1.285257579927    -1.086758158533
    H           -1.286587375448    -1.527255729098     0.625096702569
    C            1.282879008626    -0.765113965710     0.059441938263
    O           -0.000986697308     1.227177829092     0.077027833303
    C            2.546543694460     0.080996051169     0.061146104404
    H            1.279542920918    -1.459018190761    -0.776227364603
    H            1.235152952916    -1.385178413280     0.951248658706
    H            2.610482584194     0.685522199274    -0.834149018157
    H            3.423660141466    -0.553287208715     0.108071416623
    H            2.562662919921     0.751865555972     0.909093124435

  Mulliken Charges: (a.u.)
   Center  Symbol    Alpha    Beta     Spin     Total
       1     H     0.44900  0.44900  0.00000  0.10200
       2     C     3.14076  3.14076  0.00000 -0.28151
       3     C     3.09812  3.09812  0.00000 -0.19623
       4     H     0.44669  0.44669  0.00000  0.10662
       5     H     0.45073  0.45073  0.00000  0.09854
       6     C     2.87428  2.87428  0.00000  0.25144
       7     H     0.44568  0.44568  0.00000  0.10865
       8     H     0.44623  0.44623  0.00000  0.10754
       9     C     3.09803  3.09803  0.00000 -0.19606
      10     O     4.17142  4.17142  0.00000 -0.34285
      11     C     3.14078  3.14078  0.00000 -0.28156
      12     H     0.44617  0.44617  0.00000  0.10765
      13     H     0.44574  0.44574  0.00000  0.10852
      14     H     0.44927  0.44927  0.00000  0.10146
      15     H     0.45071  0.45071  0.00000  0.09858
      16     H     0.44639  0.44639  0.00000  0.10722

   Total alpha = 24.00000, Total beta = 24.00000, Total charge =  0.00000

*** Psi4 exiting successfully. Buy a developer a beer!
