                              Psi4 1.0.54 Driver

  ==> Input File <==

--------------------------------------------------------------------------
set {
	reference rhf
	basis cc-pvtz
}

set_num_threads( 4 )
memory 2 gb

molecule MOL {
0 1

O	 1.740511	 0.430268	 -0.961682
C	 1.121787	 0.124983	 0.000110
C	 -0.170912	 -0.649867	 -0.000147
O	 1.496898	 0.433593	 1.230731
C	 -1.413045	 0.229353	 0.001137
H	 -0.152877	 -1.303435	 -0.866175
H	 -0.152278	 -1.305116	 0.864586
C	 -2.702562	 -0.586401	 0.000228
H	 -1.390744	 0.882001	 -0.864365
H	 -1.390549	 0.879837	 0.868264
C	 -3.953810	 0.284959	 -0.000782
H	 -2.717793	 -1.238567	 -0.869075
H	 -2.719108	 -1.238472	 0.869576
H	 -3.983727	 0.924403	 -0.876454
H	 -4.852989	 -0.320147	 -0.001515
H	 -3.985140	 0.924399	 0.874841
C	 2.697913	 1.163547	 1.379214
H	 3.533030	 0.609718	 0.976620
H	 2.826492	 1.312639	 2.438981
H	 2.630345	 2.115749	 0.874268

	symmetry c1
}
set optking {
	frozen_dihedral = ("
		1 2 3 6
	")
}

ee,wfn = optimize('scf', return_wfn=True)
oeprop( wfn, 'DIPOLE', 'QUADRUPOLE', 'MULLIKEN_CHARGES')
f=open( 'psi4out.xyz', 'w' )
f.write( "20  " )
f.write( str(ee) + "\n" )
f.write( MOL.save_string_xyz() )
f.close()
--------------------------------------------------------------------------

    Molecular point group: c1
  Charge       = 0
  Multiplicity = 1
  Basis Set: CC-PVTZ
  Basis Set:
  @DF-RHF Final Energy:  -384.08143529833450
    Total Energy =                       -384.0814352983344406
    Molecular point group: c1
  Basis Set: CC-PVTZ
  Basis Set:
  Basis Set: CC-PVTZ
  Basis Set:
  @DF-RHF Final Energy:  -384.08128769572619
    Total Energy =                       -384.0812876957264734
  Basis Set: CC-PVTZ
  Basis Set:
  Basis Set: CC-PVTZ
  Basis Set:
  @DF-RHF Final Energy:  -384.08159314704284
    Total Energy =                       -384.0815931470430087
  Basis Set: CC-PVTZ
  Basis Set:
  Basis Set: CC-PVTZ
  Basis Set:
  @DF-RHF Final Energy:  -384.08211663789638
    Total Energy =                       -384.0821166378963198
  Basis Set: CC-PVTZ
  Basis Set:
  Basis Set: CC-PVTZ
  Basis Set:
  @DF-RHF Final Energy:  -384.08212340736441
    Total Energy =                       -384.0821234073641790
  Basis Set: CC-PVTZ
  Basis Set:
  Charge       = 0
  Multiplicity = 1
  Basis Set: CC-PVTZ
  Basis Set:

    Orbital Energies (a.u.)
    -----------------------

    Doubly Occupied:

       1A    -20.597498     2A    -20.531844     3A    -11.363275
       4A    -11.278353     5A    -11.232038     6A    -11.227783
       7A    -11.222280     8A    -11.212407     9A     -1.471784
      10A     -1.364321    11A     -1.093917    12A     -1.026178
      13A     -0.968746    14A     -0.890319    15A     -0.807463
      16A     -0.775613    17A     -0.696546    18A     -0.683087
      19A     -0.676393    20A     -0.648830    21A     -0.599545
      22A     -0.593292    23A     -0.575199    24A     -0.555073
      25A     -0.535348    26A     -0.521641    27A     -0.511556
      28A     -0.484223    29A     -0.480343    30A     -0.476656
      31A     -0.457520    32A     -0.433018

  @DF-RHF Final Energy:  -384.08212408126877

   => Energetics <=

    Nuclear Repulsion Energy =            383.7238697167163650
    One-Electron Energy =               -1283.6278110241912600
    Two-Electron Energy =                 515.8218172262062353
    DFT Exchange-Correlation Energy =       0.0000000000000000
    Empirical Dispersion Energy =           0.0000000000000000
    PCM Polarization Energy =               0.0000000000000000
    EFP Energy =                            0.0000000000000000
    Total Energy =                       -384.0821240812687165
    Molecular point group: c1
  Basis Set: CC-PVTZ
  Basis Set:

  -Total Gradient:
     Atom            X                  Y                   Z
    ------   -----------------  -----------------  -----------------
       1       -0.000153390222     0.000220922493     0.000130435597
       2        0.000227534728    -0.000347416093    -0.000146366841
       3       -0.000215454545     0.000317403790    -0.000137031147
       4        0.000085693550     0.000020666614     0.000045817056
       5        0.000010165568     0.000022927104    -0.000001533925
       6        0.000118358212    -0.000201176912     0.000158393911
       7       -0.000005469286    -0.000007074243    -0.000023770167
       8       -0.000013343874    -0.000010071200    -0.000003292065
       9       -0.000002078525     0.000001310070     0.000005275542
      10        0.000000939755     0.000004008494    -0.000003509365
      11        0.000005208712    -0.000000704319     0.000001384041
      12        0.000001124942    -0.000006736267    -0.000006306899
      13        0.000001586445    -0.000005667392     0.000005509345
      14       -0.000001978752     0.000004632671    -0.000005531383
      15       -0.000005734947    -0.000001632707     0.000000869291
      16       -0.000002220020     0.000004740545     0.000004147055
      17       -0.000038936205     0.000016967159    -0.000041634474
      18       -0.000024295991     0.000012132810     0.000012034242
      19       -0.000007325327    -0.000007740686    -0.000026652126
      20        0.000019615776    -0.000037491933     0.000031762310

  **** Optimization is complete! (in 6 steps) ****
    Final optimized geometry and variables:
    Molecular point group: c1

    Geometry (in Angstrom), charge = 0, multiplicity = 1:

    O            1.822663198346     0.196244790622    -1.163712695320
    C            1.235041868947    -0.117326302862    -0.184414031643
    C           -0.046214589050    -0.908452447864    -0.173479728428
    O            1.622164453452     0.225152835519     1.033209537749
    C           -1.266556551724     0.018145452057    -0.218033399369
    H           -0.035725487721    -1.552854955078    -1.041659096476
    H           -0.079189247786    -1.522116619588     0.717248909359
    C           -2.582855320966    -0.752983814863    -0.233115116853
    H           -1.201840624493     0.645075420126    -1.101444961065
    H           -1.244829546177     0.681003505792     0.641378472487
    C           -3.803081463400     0.160058555207    -0.281921036054
    H           -2.596821950127    -1.420871985958    -1.089626986331
    H           -2.639175791125    -1.384622923673     0.648972751211
    H           -3.791518720342     0.781015071267    -1.171207248200
    H           -4.721380561167    -0.415266984033    -0.292023931738
    H           -3.834201366738     0.818128222413     0.579928213006
    C            2.788265149593     1.016141765150     1.143547817199
    H            3.640128956835     0.497822645481     0.729342153717
    H            2.933049783810     1.187720009968     2.197804368209
    H            2.661958809947     1.955633101920     0.626352479581

  Mulliken Charges: (a.u.)
   Center  Symbol    Alpha    Beta     Spin     Total
       1     O     4.20404  4.20404  0.00000 -0.40808
       2     C     2.80637  2.80637  0.00000  0.38726
       3     C     3.07664  3.07664  0.00000 -0.15327
       4     O     4.15001  4.15001  0.00000 -0.30001
       5     C     3.09810  3.09810  0.00000 -0.19620
       6     H     0.43961  0.43961  0.00000  0.12078
       7     H     0.44418  0.44418  0.00000  0.11165
       8     C     3.08864  3.08864  0.00000 -0.17727
       9     H     0.44395  0.44395  0.00000  0.11209
      10     H     0.44784  0.44784  0.00000  0.10431
      11     C     3.14936  3.14936  0.00000 -0.29872
      12     H     0.45237  0.45237  0.00000  0.09526
      13     H     0.45350  0.45350  0.00000  0.09301
      14     H     0.45339  0.45339  0.00000  0.09322
      15     H     0.44740  0.44740  0.00000  0.10521
      16     H     0.45449  0.45449  0.00000  0.09102
      17     C     3.03714  3.03714  0.00000 -0.07428
      18     H     0.45296  0.45296  0.00000  0.09408
      19     H     0.44552  0.44552  0.00000  0.10896
      20     H     0.45451  0.45451  0.00000  0.09098

   Total alpha = 32.00000, Total beta = 32.00000, Total charge = -0.00000

*** Psi4 exiting successfully. Buy a developer a beer!
