  ==> Input File <==

--------------------------------------------------------------------------
set {
	reference rhf
	basis cc-pvtz
}

set_num_threads( 4 )
memory 2 gb

molecule MOL {
0 1

H	 -3.144994	 -1.202467	 -0.018751
O	 -2.321472	 -0.864941	 -0.318626
C	 -2.021813	 0.336996	 0.342658
C	 -0.669613	 0.837286	 -0.127252
H	 -2.780861	 1.084746	 0.127159
H	 -2.006390	 0.184138	 1.420053
C	 0.490865	 -0.082543	 0.241244
H	 -0.708709	 0.967192	 -1.204587
H	 -0.507562	 1.822272	 0.303070
C	 1.839800	 0.429565	 -0.255472
H	 0.305636	 -1.070211	 -0.165276
H	 0.527397	 -0.195943	 1.322876
C	 1.719288	 1.367620	 -1.451848
H	 2.347405	 0.944946	 0.555345
H	 2.471494	 -0.413962	 -0.522144
H	 1.122016	 2.239178	 -1.205739
H	 2.692625	 1.715114	 -1.779213
H	 1.245716	 0.871115	 -2.292477

	symmetry c1
}
set optking {
	frozen_dihedral = ("
		14 10 7 11
	")
}

ee = optimize('scf')
oeprop('DIPOLE', 'QUADRUPOLE', 'MULLIKEN_CHARGES')
f=open( 'psi4out.xyz', 'w' )
f.write( "18  " )
f.write( str(ee) + "\n" )
f.write( MOL.save_string_xyz() )
f.close()
--------------------------------------------------------------------------

    Molecular point group: c1
  Charge       = 0
  Multiplicity = 1
  Basis Set: CC-PVTZ
  Basis Set:
  @DF-RHF Final Energy:  -271.27649703797510
    Total Energy =                       -271.2764970379751048
    Molecular point group: c1
  Basis Set: CC-PVTZ
  Basis Set:
  Basis Set: CC-PVTZ
  Basis Set:
  @DF-RHF Final Energy:  -271.27787985378541
    Total Energy =                       -271.2778798537851799
  Basis Set: CC-PVTZ
  Basis Set:
  Basis Set: CC-PVTZ
  Basis Set:
  @DF-RHF Final Energy:  -271.27993835989531
    Total Energy =                       -271.2799383598953114
  Basis Set: CC-PVTZ
  Basis Set:
  Basis Set: CC-PVTZ
  Basis Set:
  @DF-RHF Final Energy:  -271.28014966890731
    Total Energy =                       -271.2801496689073701
  Basis Set: CC-PVTZ
  Basis Set:
  Basis Set: CC-PVTZ
  Basis Set:
  @DF-RHF Final Energy:  -271.28016878469793
    Total Energy =                       -271.2801687846979348
  Basis Set: CC-PVTZ
  Basis Set:
  Basis Set: CC-PVTZ
  Basis Set:
  @DF-RHF Final Energy:  -271.28017670072092
    Total Energy =                       -271.2801767007208014
  Basis Set: CC-PVTZ
  Basis Set:
  Basis Set: CC-PVTZ
  Basis Set:
  @DF-RHF Final Energy:  -271.28017885116128
    Total Energy =                       -271.2801788511609971
  Basis Set: CC-PVTZ
  Basis Set:
  Charge       = 0
  Multiplicity = 1
  Basis Set: CC-PVTZ
  Basis Set:

    Orbital Energies (a.u.)
    -----------------------

    Doubly Occupied:

       1A    -20.545999     2A    -11.265752     3A    -11.210210
       4A    -11.209543     5A    -11.205209     6A    -11.203003
       7A     -1.363908     8A     -1.073997     9A     -1.006807
      10A     -0.916581    11A     -0.834414    12A     -0.766983
      13A     -0.707524    14A     -0.642748    15A     -0.617371
      16A     -0.603325    17A     -0.561872    18A     -0.553612
      19A     -0.530065    20A     -0.509692    21A     -0.490440
      22A     -0.464952    23A     -0.451195    24A     -0.447041
      25A     -0.429884

  @DF-RHF Final Energy:  -271.28017886147018

   => Energetics <=

    Nuclear Repulsion Energy =            252.3012080170216223
    One-Electron Energy =                -867.9385144610818088
    Two-Electron Energy =                 344.3571275825901807
    DFT Exchange-Correlation Energy =       0.0000000000000000
    Empirical Dispersion Energy =           0.0000000000000000
    PCM Polarization Energy =               0.0000000000000000
    EFP Energy =                            0.0000000000000000
    Total Energy =                       -271.2801788614700058
    Molecular point group: c1
  Basis Set: CC-PVTZ
  Basis Set:

  -Total Gradient:
     Atom            X                  Y                   Z
    ------   -----------------  -----------------  -----------------
       1        0.000000863440     0.000001664986     0.000000569577
       2       -0.000009268474     0.000007434912    -0.000008369647
       3        0.000008701144    -0.000011111537     0.000021644347
       4       -0.000005429822    -0.000005263203    -0.000016067878
       5       -0.000000574787    -0.000003490638    -0.000003340263
       6       -0.000002587166     0.000003349540     0.000004018308
       7       -0.002547772811     0.001994055613    -0.005753949973
       8        0.000000077104     0.000000763325     0.000001934019
       9        0.000000780182    -0.000002234637    -0.000002548360
      10       -0.002594040472     0.005930062617    -0.000950328800
      11        0.002548006876    -0.002610967425     0.004984810618
      12       -0.000005693741    -0.000003143530     0.000000777109
      13        0.000008316991    -0.000001657137    -0.000007363238
      14        0.002598182585    -0.005307063993     0.001724694948
      15       -0.000001895668     0.000003329941     0.000000704976
      16       -0.000007263179    -0.000000592838     0.000001377861
      17        0.000001727610     0.000004313616     0.000000054213
      18        0.000007870180     0.000000550389     0.000001382187

  **** Optimization is complete! (in 8 steps) ****
    Final optimized geometry and variables:
    Molecular point group: c1

    Geometry (in Angstrom), charge = 0, multiplicity = 1:

    H           -2.932662748140    -1.577614109721     0.320345041857
    O           -2.133974620706    -1.209460106823    -0.008967510028
    C           -1.830574289057    -0.022056003453     0.676340672043
    C           -0.521395487107     0.534289738422     0.149365948716
    H           -2.620627429310     0.709930653463     0.528622215528
    H           -1.750913085819    -0.210096009714     1.745196943451
    C            0.673083547715    -0.372674371838     0.430322605378
    H           -0.632040702168     0.703784301200    -0.915366694548
    H           -0.363810111821     1.506347940878     0.609948393120
    C            2.054748805089     0.164836433145     0.006436145010
    H            0.511779165465    -1.352076862850    -0.002238910326
    H            0.709169110166    -0.555093183837     1.502140469829
    C            2.093135803236     1.052747294400    -1.233380246689
    H            2.522652341127     0.667822230649     0.847377432054
    H            2.694244454085    -0.693908171173    -0.176703498709
    H            1.547110086436     1.977504796712    -1.091173734609
    H            3.116735286484     1.312343685265    -1.478334873948
    H            1.668148721823     0.546794028036    -2.093803486166

  Mulliken Charges: (a.u.)
   Center  Symbol    Alpha    Beta     Spin     Total
       1     H     0.39568  0.39568  0.00000  0.20864
       2     O     4.19871  4.19871  0.00000 -0.39742
       3     C     2.97549  2.97549  0.00000  0.04902
       4     C     3.09341  3.09341  0.00000 -0.18683
       5     H     0.46532  0.46532  0.00000  0.06937
       6     H     0.47324  0.47324  0.00000  0.05352
       7     C     3.09455  3.09455  0.00000 -0.18910
       8     H     0.44935  0.44935  0.00000  0.10130
       9     H     0.45273  0.45273  0.00000  0.09454
      10     C     3.08840  3.08840  0.00000 -0.17680
      11     H     0.44202  0.44202  0.00000  0.11595
      12     H     0.45763  0.45763  0.00000  0.08473
      13     C     3.15648  3.15648  0.00000 -0.31296
      14     H     0.45363  0.45363  0.00000  0.09275
      15     H     0.45236  0.45236  0.00000  0.09527
      16     H     0.45341  0.45341  0.00000  0.09317
      17     H     0.44593  0.44593  0.00000  0.10814
      18     H     0.45165  0.45165  0.00000  0.09670

   Total alpha = 25.00000, Total beta = 25.00000, Total charge = -0.00000
