  ==> Input File <==

--------------------------------------------------------------------------
set {
	reference rhf
	basis cc-pvtz
}

set_num_threads( 4 )
memory 2 gb

molecule MOL {
0 1

H	 -2.578849	 -0.537770	 -0.255961
N	 -1.838933	 0.131625	 -0.253462
C	 -0.561396	 -0.500007	 0.035200
H	 -2.062818	 0.815784	 0.438737
C	 0.575129	 0.507849	 -0.048832
H	 -0.401951	 -1.279409	 -0.702585
H	 -0.537741	 -0.984838	 1.012336
C	 1.951750	 -0.141983	 0.035101
H	 0.478254	 1.061643	 -0.975981
H	 0.467676	 1.231891	 0.755499
H	 2.101550	 -0.848142	 -0.774949
H	 2.738260	 0.600794	 -0.026526
H	 2.078939	 -0.679792	 0.968824

	symmetry c1
}
set optking {
	frozen_dihedral = ("
		6 3 5 9
	")
}

ee = optimize('scf')
oeprop('DIPOLE', 'QUADRUPOLE', 'MULLIKEN_CHARGES')
f=open( 'psi4out.xyz', 'w' )
f.write( "13  " )
f.write( str(ee) + "\n" )
f.write( MOL.save_string_xyz() )
f.close()
--------------------------------------------------------------------------

    Molecular point group: c1
  Charge       = 0
  Multiplicity = 1
  Basis Set: CC-PVTZ
  Basis Set:
  @DF-RHF Final Energy:  -173.35235238874859
    Total Energy =                       -173.3523523887487272
    Molecular point group: c1
  Basis Set: CC-PVTZ
  Basis Set:
  Basis Set: CC-PVTZ
  Basis Set:
  @DF-RHF Final Energy:  -173.35238561689971
    Total Energy =                       -173.3523856168998236
  Basis Set: CC-PVTZ
  Basis Set:
  Basis Set: CC-PVTZ
  Basis Set:
  @DF-RHF Final Energy:  -173.35239360368229
    Total Energy =                       -173.3523936036822590
  Basis Set: CC-PVTZ
  Basis Set:
  Charge       = 0
  Multiplicity = 1
  Basis Set: CC-PVTZ
  Basis Set:

    Orbital Energies (a.u.)
    -----------------------

    Doubly Occupied:

       1A    -15.527005     2A    -11.238308     3A    -11.210399
       4A    -11.207217     5A     -1.178684     6A     -1.036464
       7A     -0.899472     8A     -0.800561     9A     -0.660922
      10A     -0.634022    11A     -0.603151    12A     -0.565925
      13A     -0.532076    14A     -0.493093    15A     -0.476920
      16A     -0.468877    17A     -0.384444

  @DF-RHF Final Energy:  -173.35239373498925

   => Energetics <=

    Nuclear Repulsion Energy =            131.9729977401164263
    One-Electron Energy =                -494.8156959459264499
    Two-Electron Energy =                 189.4903044708207744
    DFT Exchange-Correlation Energy =       0.0000000000000000
    Empirical Dispersion Energy =           0.0000000000000000
    PCM Polarization Energy =               0.0000000000000000
    EFP Energy =                            0.0000000000000000
    Total Energy =                       -173.3523937349892776
    Molecular point group: c1
  Basis Set: CC-PVTZ
  Basis Set:

  -Total Gradient:
     Atom            X                  Y                   Z
    ------   -----------------  -----------------  -----------------
       1       -0.000008035964    -0.000010237597    -0.000002897406
       2       -0.000015581199     0.000025723820    -0.000004109296
       3       -0.001234350590     0.001319764099    -0.001200612320
       4       -0.000010508727     0.000004919301     0.000009603734
       5        0.001343304434    -0.001587702637    -0.000679547725
       6        0.000857171382    -0.000876797142     0.001108290475
       7       -0.000000215642     0.000001517972     0.000004574709
       8        0.000008654693    -0.000003439613    -0.000003573256
       9       -0.000929789143     0.001117955775     0.000763593225
      10       -0.000001212549     0.000000887314     0.000000744175
      11       -0.000004434230     0.000003758239     0.000003950431
      12        0.000000843751     0.000000967576     0.000000232465
      13       -0.000005846213     0.000002682894    -0.000000249211

  **** Optimization is complete! (in 4 steps) ****
    Final optimized geometry and variables:
    Molecular point group: c1

    Geometry (in Angstrom), charge = 0, multiplicity = 1:

    H           -2.585877376055    -0.528795674699    -0.177806973397
    N           -1.844369556717     0.138699462113    -0.196549885053
    C           -0.563977717639    -0.493838650709     0.074453917733
    H           -2.053368462094     0.829123654003     0.494297908931
    C            0.574392037593     0.512469793097    -0.010853705769
    H           -0.407453644868    -1.275259618104    -0.661944915007
    H           -0.530001160726    -0.983246621917     1.049403233349
    C            1.950662868785    -0.134128392559     0.090139098546
    H            0.478123439564     1.065305960771    -0.938689109579
    H            0.460072471608     1.242064343589     0.788027390011
    H            2.115521555973    -0.832526434481    -0.723441725791
    H            2.736087089525     0.611195065672     0.049194580336
    H            2.063002610530    -0.679793612233     1.021344927075

  Mulliken Charges: (a.u.)
   Center  Symbol    Alpha    Beta     Spin     Total
       1     H     0.42996  0.42996  0.00000  0.14008
       2     N     3.68905  3.68905  0.00000 -0.37810
       3     C     3.02159  3.02159  0.00000 -0.04318
       4     H     0.43088  0.43088  0.00000  0.13825
       5     C     3.07976  3.07976  0.00000 -0.15952
       6     H     0.45868  0.45868  0.00000  0.08264
       7     H     0.46959  0.46959  0.00000  0.06082
       8     C     3.15207  3.15207  0.00000 -0.30414
       9     H     0.44885  0.44885  0.00000  0.10229
      10     H     0.46010  0.46010  0.00000  0.07981
      11     H     0.45468  0.45468  0.00000  0.09064
      12     H     0.44787  0.44787  0.00000  0.10426
      13     H     0.45693  0.45693  0.00000  0.08615

   Total alpha = 17.00000, Total beta = 17.00000, Total charge =  0.00000
