  ==> Input File <==

--------------------------------------------------------------------------
set {
	reference rhf
	basis 6-31G*
}

set_num_threads( 1 )
memory 2 gb

molecule MOL {
0 1

H	 2.710944	 -0.061290	 -0.457088
C	 1.951159	 -0.223429	 0.317018
C	 0.692068	 0.589600	 0.160137
O	 2.151700	 -0.995852	 1.197515
C	 -0.558097	 -0.297372	 0.091132
H	 0.791645	 1.202255	 -0.728243
H	 0.616171	 1.253469	 1.020572
C	 -1.850991	 0.512573	 -0.019058
H	 -0.476753	 -0.965681	 -0.762987
H	 -0.604799	 -0.930658	 0.975228
C	 -3.096943	 -0.368295	 -0.099594
H	 -1.800724	 1.150330	 -0.898172
H	 -1.931651	 1.177355	 0.838044
H	 -3.060452	 -1.020287	 -0.967456
H	 -3.996858	 0.233488	 -0.175704
H	 -3.191959	 -0.995686	 0.782074

	symmetry c1
}
set optking {
	frozen_dihedral = ("
		9 5 8 12,
		6 3 5 9
	")
}

ee = energy('scf')
oeprop('DIPOLE', 'QUADRUPOLE', 'MULLIKEN_CHARGES')
f=open( 'psi4out.xyz', 'w' )
f.write( "16  " )
f.write( str(ee) + "\n" )
f.write( MOL.save_string_xyz() )
f.close()
--------------------------------------------------------------------------

    Molecular point group: c1

    Geometry (in Angstrom), charge = 0, multiplicity = 1:

       Center              X                  Y                   Z               Mass
    ------------   -----------------  -----------------  -----------------  -----------------
           H          2.838364279984     0.081846190071    -0.737931788334     1.007825032070
           C          2.078579279984    -0.080292809929     0.036174211666    12.000000000000
           C          0.819488279984     0.732736190071    -0.120706788334    12.000000000000
           O          2.279120279984    -0.852715809929     0.916671211666    15.994914619560
           C         -0.430676720016    -0.154235809929    -0.189711788334    12.000000000000
           H          0.919065279984     1.345391190071    -1.009086788334     1.007825032070
           H          0.743591279984     1.396605190071     0.739728211666     1.007825032070
           C         -1.723570720016     0.655709190071    -0.299901788334    12.000000000000
           H         -0.349332720016    -0.822544809929    -1.043830788334     1.007825032070
           H         -0.477378720016    -0.787521809929     0.694384211666     1.007825032070
           C         -2.969522720016    -0.225158809929    -0.380437788334    12.000000000000
           H         -1.673303720016     1.293466190071    -1.179015788334     1.007825032070
           H         -1.804230720016     1.320491190071     0.557200211666     1.007825032070
           H         -2.933031720016    -0.877150809929    -1.248299788334     1.007825032070
           H         -3.869437720016     0.376624190071    -0.456547788334     1.007825032070
           H         -3.064538720016    -0.852549809929     0.501230211666     1.007825032070

  Charge       = 0
  Multiplicity = 1
  Basis Set: 6-31G*
  Basis Set:

    Orbital Energies (a.u.)
    -----------------------

    Doubly Occupied:

       1A    -20.562868     2A    -11.327165     3A    -11.235527
       4A    -11.230023     5A    -11.224892     6A    -11.214863
       7A     -1.403134     8A     -1.091329     9A     -1.016306
      10A     -0.907426    11A     -0.813062    12A     -0.779507
      13A     -0.681067    14A     -0.647100    15A     -0.628710
      16A     -0.600495    17A     -0.579708    18A     -0.546866
      19A     -0.526981    20A     -0.506135    21A     -0.482281
      22A     -0.479628    23A     -0.472694    24A     -0.408237

  @DF-RHF Final Energy:  -270.01828493916332

   => Energetics <=

    Nuclear Repulsion Energy =            231.0223554435149538
    One-Electron Energy =                -823.3492889129358900
    Two-Electron Energy =                 322.3086485302571305
    DFT Exchange-Correlation Energy =       0.0000000000000000
    Empirical Dispersion Energy =           0.0000000000000000
    PCM Polarization Energy =               0.0000000000000000
    EFP Energy =                            0.0000000000000000
    Total Energy =                       -270.0182849391638342

  Mulliken Charges: (a.u.)
   Center  Symbol    Alpha    Beta     Spin     Total
       1     H     0.42843  0.42843  0.00000  0.14314
       2     C     2.84178  2.84178  0.00000  0.31645
       3     C     3.20279  3.20279  0.00000 -0.40558
       4     O     4.23702  4.23702  0.00000 -0.47404
       5     C     3.15710  3.15710  0.00000 -0.31419
       6     H     0.41545  0.41545  0.00000  0.16911
       7     H     0.40081  0.40081  0.00000  0.19837
       8     C     3.15259  3.15259  0.00000 -0.30518
       9     H     0.41894  0.41894  0.00000  0.16212
      10     H     0.40478  0.40478  0.00000  0.19044
      11     C     3.24030  3.24030  0.00000 -0.48060
      12     H     0.42252  0.42252  0.00000  0.15497
      13     H     0.42061  0.42061  0.00000  0.15877
      14     H     0.42050  0.42050  0.00000  0.15901
      15     H     0.41755  0.41755  0.00000  0.16490
      16     H     0.41884  0.41884  0.00000  0.16231

   Total alpha = 24.00000, Total beta = 24.00000, Total charge = -0.00000
