  ==> Input File <==

--------------------------------------------------------------------------
set {
	reference rhf
	basis 6-31G*
}

set_num_threads( 4 )
memory 2 gb

molecule MOL {
0 1

H	 -3.161837	 0.500524	 -0.000234
C	 -2.367097	 -0.232926	 -0.000000
O	 -1.158440	 0.455814	 -0.000122
H	 -2.468853	 -0.861886	 -0.882833
H	 -2.468942	 -0.861421	 0.883154
C	 -0.029776	 -0.365156	 0.000148
C	 -0.042756	 -1.216760	 -1.257335
H	 -0.027473	 -0.999871	 0.887295
H	 0.875866	 0.241768	 0.037070
C	 1.162521	 -2.152174	 -1.342128
H	 -0.964405	 -1.790263	 -1.275172
H	 -0.067329	 -0.557369	 -2.119483
H	 1.192257	 -2.837805	 -0.499839
H	 1.127936	 -2.747071	 -2.248630
H	 2.095890	 -1.596141	 -1.349438

	symmetry c1
}
set optking {
	frozen_dihedral = ("
		8 6 3 2
	")
}

ee = optimize('scf')
oeprop('DIPOLE', 'QUADRUPOLE', 'MULLIKEN_CHARGES')
f=open( 'psi4out.xyz', 'w' )
f.write( "15  " )
f.write( str(ee) + "\n" )
f.write( MOL.save_string_xyz() )
f.close()
--------------------------------------------------------------------------

    Molecular point group: c1
  Charge       = 0
  Multiplicity = 1
  Basis Set: 6-31G*
  Basis Set:
  @DF-RHF Final Energy:  -232.12993888006201
    Total Energy =                       -232.1299388800620136
    Molecular point group: c1
  Basis Set: 6-31G*
  Basis Set:
  Basis Set: 6-31G*
  Basis Set:
  @DF-RHF Final Energy:  -232.13100465613070
    Total Energy =                       -232.1310046561305285
  Basis Set: 6-31G*
  Basis Set:
  Basis Set: 6-31G*
  Basis Set:
  @DF-RHF Final Energy:  -232.13525104145268
    Total Energy =                       -232.1352510414526478
  Basis Set: 6-31G*
  Basis Set:
  Basis Set: 6-31G*
  Basis Set:
  @DF-RHF Final Energy:  -232.13613834643854
    Total Energy =                       -232.1361383464383721
  Basis Set: 6-31G*
  Basis Set:
  Basis Set: 6-31G*
  Basis Set:
  @DF-RHF Final Energy:  -232.13627624723915
    Total Energy =                       -232.1362762472392660
  Basis Set: 6-31G*
  Basis Set:
  Basis Set: 6-31G*
  Basis Set:
  @DF-RHF Final Energy:  -232.13629165248716
    Total Energy =                       -232.1362916524872162
  Basis Set: 6-31G*
  Basis Set:
  Basis Set: 6-31G*
  Basis Set:
  @DF-RHF Final Energy:  -232.13629315287037
    Total Energy =                       -232.1362931528705644
  Basis Set: 6-31G*
  Basis Set:
  Charge       = 0
  Multiplicity = 1
  Basis Set: 6-31G*
  Basis Set:

    Orbital Energies (a.u.)
    -----------------------

    Doubly Occupied:

       1A    -20.551932     2A    -11.266234     3A    -11.262925
       4A    -11.218151     5A    -11.215952     6A     -1.374507
       7A     -1.057175     8A     -0.959958     9A     -0.884181
      10A     -0.803813    11A     -0.670009    12A     -0.657844
      13A     -0.632646    14A     -0.603632    15A     -0.565254
      16A     -0.530750    17A     -0.524296    18A     -0.498265
      19A     -0.485627    20A     -0.453090    21A     -0.407185

  @DF-RHF Final Energy:  -232.13629351997324

   => Energetics <=

    Nuclear Repulsion Energy =            191.7711997780884019
    One-Electron Energy =                -694.5681391396667550
    Two-Electron Energy =                 270.6606458416051737
    DFT Exchange-Correlation Energy =       0.0000000000000000
    Empirical Dispersion Energy =           0.0000000000000000
    PCM Polarization Energy =               0.0000000000000000
    EFP Energy =                            0.0000000000000000
    Total Energy =                       -232.1362935199731510
    Molecular point group: c1
  Basis Set: 6-31G*
  Basis Set:

  -Total Gradient:
     Atom            X                  Y                   Z
    ------   -----------------  -----------------  -----------------
       1        0.000007518573     0.000001630799     0.000001491953
       2       -0.000049790867    -0.000034625231    -0.001535684637
       3        0.000394089175     0.000380308583     0.002452626074
       4       -0.000003288819    -0.000003078220    -0.000002211598
       5       -0.000002113174     0.000000627026    -0.000000268935
       6       -0.001384582018    -0.001600513423    -0.001786943724
       7        0.000003542499    -0.000012244252    -0.000009355324
       8        0.001062315084     0.001267029404     0.000871943074
       9       -0.000021497226     0.000010765682     0.000007119791
      10        0.000003000489     0.000005083135    -0.000008830071
      11       -0.000005330040    -0.000007803346     0.000002957458
      12        0.000000794274     0.000000788511     0.000000590074
      13        0.000000579423    -0.000006635790     0.000000372439
      14        0.000002028952    -0.000001158824    -0.000000850710
      15       -0.000007266320    -0.000000174055     0.000007044135

  **** Optimization is complete! (in 8 steps) ****
    Final optimized geometry and variables:
    Molecular point group: c1

    Geometry (in Angstrom), charge = 0, multiplicity = 1:

    H           -2.626645109275     1.384614823050     0.766140209830
    C           -1.925980605646     0.586049220479     0.562942914965
    O           -0.656546702205     1.156783629746     0.503150295041
    H           -2.208214070434     0.109462662653    -0.371214992474
    H           -1.995253844871    -0.150215313898     1.362493144108
    C            0.420261590938     0.264854886976     0.473643114788
    C            0.489993798898    -0.608751375748    -0.775301603238
    H            0.415060113956    -0.353210356368     1.372651149773
    H            1.306063726185     0.887042215713     0.524034335774
    C            1.782148500144    -1.424754504965    -0.821791538495
    H           -0.359688378919    -1.284168231803    -0.813414276376
    H            0.421848465006     0.033788516241    -1.648766627552
    H            1.866022555681    -2.080928363241     0.040153111222
    H            1.819140647346    -2.044729145440    -1.711209555439
    H            2.655867757761    -0.779615752955    -0.832364649989

  Mulliken Charges: (a.u.)
   Center  Symbol    Alpha    Beta     Spin     Total
       1     H     0.41238  0.41238  0.00000  0.17524
       2     C     3.08134  3.08134  0.00000 -0.16268
       3     O     4.30698  4.30698  0.00000 -0.61396
       4     H     0.42780  0.42780  0.00000  0.14439
       5     H     0.43198  0.43198  0.00000  0.13604
       6     C     2.98333  2.98333  0.00000  0.03333
       7     C     3.17107  3.17107  0.00000 -0.34214
       8     H     0.43265  0.43265  0.00000  0.13470
       9     H     0.41628  0.41628  0.00000  0.16745
      10     C     3.24661  3.24661  0.00000 -0.49323
      11     H     0.42056  0.42056  0.00000  0.15888
      12     H     0.41409  0.41409  0.00000  0.17182
      13     H     0.42038  0.42038  0.00000  0.15924
      14     H     0.41546  0.41546  0.00000  0.16907
      15     H     0.41908  0.41908  0.00000  0.16184

   Total alpha = 21.00000, Total beta = 21.00000, Total charge =  0.00000
