  ==> Input File <==

--------------------------------------------------------------------------
set {
	reference rhf
	basis 6-31G*
}

set_num_threads( 4 )
memory 2 gb

molecule MOL {
0 1

H	 -3.299638	 1.685597	 0.620708
C	 -2.849277	 0.722531	 0.763323
C	 -1.767049	 0.400619	 0.093132
H	 -3.302666	 0.041697	 1.458890
O	 -1.180634	 -0.819263	 0.215062
H	 -1.293524	 1.070634	 -0.602604
C	 0.051604	 -1.018856	 -0.387932
C	 1.043764	 0.054862	 -0.001873
H	 -0.017620	 -1.041351	 -1.469781
H	 0.437898	 -1.966374	 -0.042284
F	 2.212596	 -0.199467	 -0.571921
F	 0.652529	 1.252447	 -0.405055
F	 1.230877	 0.110694	 1.300533

	symmetry c1
}
set optking {
	frozen_dihedral = ("
		3 5 7 9
	")
}

ee = optimize('scf')
oeprop('DIPOLE', 'QUADRUPOLE', 'MULLIKEN_CHARGES')
f=open( 'psi4out.xyz', 'w' )
f.write( "13  " )
f.write( str(ee) + "\n" )
f.write( MOL.save_string_xyz() )
f.close()
--------------------------------------------------------------------------

    Molecular point group: c1
  Charge       = 0
  Multiplicity = 1
  Basis Set: 6-31G*
  Basis Set:
  @DF-RHF Final Energy:  -527.52636130614724
    Total Energy =                       -527.5263613061474643
    Molecular point group: c1
  Basis Set: 6-31G*
  Basis Set:
  Basis Set: 6-31G*
  Basis Set:
  @DF-RHF Final Energy:  -527.53143484843463
    Total Energy =                       -527.5314348484348557
  Basis Set: 6-31G*
  Basis Set:
  Basis Set: 6-31G*
  Basis Set:
  @DF-RHF Final Energy:  -527.53244465611647
    Total Energy =                       -527.5324446561165814
  Basis Set: 6-31G*
  Basis Set:
  Basis Set: 6-31G*
  Basis Set:
  @DF-RHF Final Energy:  -527.53261991130375
    Total Energy =                       -527.5326199113039820
  Basis Set: 6-31G*
  Basis Set:
  Basis Set: 6-31G*
  Basis Set:
  @DF-RHF Final Energy:  -527.53267495702357
    Total Energy =                       -527.5326749570233460
  Basis Set: 6-31G*
  Basis Set:
  Basis Set: 6-31G*
  Basis Set:
  @DF-RHF Final Energy:  -527.53269002795128
    Total Energy =                       -527.5326900279511619
  Basis Set: 6-31G*
  Basis Set:
  Basis Set: 6-31G*
  Basis Set:
  @DF-RHF Final Energy:  -527.53269354664053
    Total Energy =                       -527.5326935466400755
  Basis Set: 6-31G*
  Basis Set:
  Charge       = 0
  Multiplicity = 1
  Basis Set: 6-31G*
  Basis Set:

    Orbital Energies (a.u.)
    -----------------------

    Doubly Occupied:

       1A    -26.345933     2A    -26.345884     3A    -26.342876
       4A    -20.604736     5A    -11.506503     6A    -11.317288
       7A    -11.295745     8A    -11.217529     9A     -1.744040
      10A     -1.641441    11A     -1.640682    12A     -1.433070
      13A     -1.081760    14A     -1.018189    15A     -0.926952
      16A     -0.837013    17A     -0.832315    18A     -0.828928
      19A     -0.780090    20A     -0.719980    21A     -0.712386
      22A     -0.693697    23A     -0.676184    24A     -0.662552
      25A     -0.656097    26A     -0.645000    27A     -0.638404
      28A     -0.590386    29A     -0.562363    30A     -0.523006
      31A     -0.496016    32A     -0.355497

  @DF-RHF Final Energy:  -527.53269434695562

   => Energetics <=

    Nuclear Repulsion Energy =            416.9136885172317761
    One-Electron Energy =               -1557.5476831928983756
    Two-Electron Energy =                 613.1013003287109768
    DFT Exchange-Correlation Energy =       0.0000000000000000
    Empirical Dispersion Energy =           0.0000000000000000
    PCM Polarization Energy =               0.0000000000000000
    EFP Energy =                            0.0000000000000000
    Total Energy =                       -527.5326943469556227
    Molecular point group: c1
  Basis Set: 6-31G*
  Basis Set:

  -Total Gradient:
     Atom            X                  Y                   Z
    ------   -----------------  -----------------  -----------------
       1       -0.000008119505     0.000010203617    -0.000001578356
       2        0.000003327254    -0.000044609944     0.000037124551
       3        0.001638118221     0.001417171105     0.003883147413
       4       -0.000000893052     0.000014362500    -0.000001541964
       5       -0.002632809918    -0.003546907191    -0.005837635749
       6        0.000004573166    -0.000013411322    -0.000009993766
       7        0.001535140809     0.007471235110     0.001954185039
       8       -0.000077873046     0.000101318289     0.000039888928
       9       -0.000553636215    -0.005297722302    -0.000045871396
      10       -0.000013976157    -0.000016415911    -0.000005332356
      11        0.000093098342    -0.000037302703    -0.000029073784
      12       -0.000004807041    -0.000042763451     0.000016306741
      13        0.000017857147    -0.000015157795     0.000000374695

  **** Optimization is complete! (in 8 steps) ****
    Final optimized geometry and variables:
    Molecular point group: c1

    Geometry (in Angstrom), charge = 0, multiplicity = 1:

    H           -3.390819054837     1.579848900275     0.532033304212
    C           -2.848784207467     0.666422372257     0.683802929759
    C           -1.957032899626     0.277738737158    -0.197508418883
    H           -3.060006199894     0.084132393935     1.561018480623
    O           -1.302896780483    -0.910675047216    -0.076157154958
    H           -1.725664163043     0.843359448667    -1.082579151030
    C           -0.020099292064    -1.031093824572    -0.593446333192
    C            0.981371453347    -0.020212269516    -0.076253129721
    H           -0.015924444673    -1.022107160273    -1.678798415205
    H            0.336565415508    -2.000948654208    -0.278651398614
    F            2.189966094346    -0.370085364133    -0.490811018644
    F            0.754919869660     1.206346914355    -0.518695815905
    F            0.997107578379     0.025477186872     1.239703755360

  Mulliken Charges: (a.u.)
   Center  Symbol    Alpha    Beta     Spin     Total
       1     H     0.40682  0.40682  0.00000  0.18635
       2     C     3.22726  3.22726  0.00000 -0.45453
       3     C     2.90680  2.90680  0.00000  0.18639
       4     H     0.40184  0.40184  0.00000  0.19631
       5     O     4.30373  4.30373  0.00000 -0.60746
       6     H     0.40417  0.40417  0.00000  0.19167
       7     C     3.05399  3.05399  0.00000 -0.10799
       8     C     2.46363  2.46363  0.00000  1.07274
       9     H     0.40539  0.40539  0.00000  0.18922
      10     H     0.39033  0.39033  0.00000  0.21934
      11     F     4.68226  4.68226  0.00000 -0.36452
      12     F     4.67970  4.67970  0.00000 -0.35939
      13     F     4.67407  4.67407  0.00000 -0.34814

   Total alpha = 32.00000, Total beta = 32.00000, Total charge =  0.00000
