  ==> Input File <==

--------------------------------------------------------------------------
set {
	reference rhf
	basis 6-31G*
}

set_num_threads( 1 )
memory 2 gb

molecule MOL {
0 1

H	 3.232879	 0.229127	 -1.466170
O	 2.304402	 0.057679	 -1.342512
C	 2.077727	 -0.067559	 -0.035091
C	 0.624473	 -0.343591	 0.253101
O	 2.946297	 0.033835	 0.768850
C	 -0.265902	 0.883932	 0.072916
H	 0.324016	 -1.163849	 -0.390541
H	 0.565024	 -0.726111	 1.268924
C	 -1.728698	 0.646073	 0.462102
H	 -0.209144	 1.219470	 -0.958188
H	 0.135059	 1.692851	 0.673903
C	 -2.482460	 -0.343073	 -0.431425
H	 -2.245265	 1.602650	 0.432430
H	 -1.779332	 0.308348	 1.496285
C	 -3.960546	 -0.461025	 -0.060175
H	 -2.395034	 -0.026811	 -1.468912
H	 -2.024850	 -1.327147	 -0.371646
H	 -4.472726	 -1.168004	 -0.705284
H	 -4.465146	 0.496508	 -0.151489
H	 -4.081218	 -0.800940	 0.964585

	symmetry c1
}
set optking {
	frozen_dihedral = ("
		16 12 9 6,
		7 4 6 10,
		12 9 6 10,
		1 2 3 5
	")
}

ee = energy('scf')
oeprop('DIPOLE', 'QUADRUPOLE', 'MULLIKEN_CHARGES')
f=open( 'psi4out.xyz', 'w' )
f.write( "20  " )
f.write( str(ee) + "\n" )
f.write( MOL.save_string_xyz() )
f.close()
--------------------------------------------------------------------------

    Molecular point group: c1

    Geometry (in Angstrom), charge = 0, multiplicity = 1:

       Center              X                  Y                   Z               Mass
    ------------   -----------------  -----------------  -----------------  -----------------
           H          3.253488309421     0.181061999287    -1.408281334121     1.007825032070
           O          2.325011309421     0.009613999287    -1.284623334121    15.994914619560
           C          2.098336309421    -0.115624000713     0.022797665879    12.000000000000
           C          0.645082309421    -0.391656000713     0.310989665879    12.000000000000
           O          2.966906309421    -0.014230000713     0.826738665879    15.994914619560
           C         -0.245292690579     0.835866999287     0.130804665879    12.000000000000
           H          0.344625309421    -1.211914000713    -0.332652334121     1.007825032070
           H          0.585633309421    -0.774176000713     1.326812665879     1.007825032070
           C         -1.708088690579     0.598007999287     0.519990665879    12.000000000000
           H         -0.188534690579     1.171404999287    -0.900299334121     1.007825032070
           H          0.155668309421     1.644785999287     0.731791665879     1.007825032070
           C         -2.461850690579    -0.391138000713    -0.373536334121    12.000000000000
           H         -2.224655690579     1.554584999287     0.490318665879     1.007825032070
           H         -1.758722690579     0.260282999287     1.554173665879     1.007825032070
           C         -3.939936690579    -0.509090000713    -0.002286334121    12.000000000000
           H         -2.374424690579    -0.074876000713    -1.411023334121     1.007825032070
           H         -2.004240690579    -1.375212000713    -0.313757334121     1.007825032070
           H         -4.452116690579    -1.216069000713    -0.647395334121     1.007825032070
           H         -4.444536690579     0.448442999287    -0.093600334121     1.007825032070
           H         -4.060608690579    -0.849005000713     1.022473665879     1.007825032070

  Charge       = 0
  Multiplicity = 1
  Basis Set: 6-31G*
  Basis Set:

    Orbital Energies (a.u.)
    -----------------------

    Doubly Occupied:

       1A    -20.612438     2A    -20.549830     3A    -11.379638
       4A    -11.238132     5A    -11.232741     6A    -11.224815
       7A    -11.222572     8A    -11.214158     9A     -1.473698
      10A     -1.364118    11A     -1.100301    12A     -1.042789
      13A     -0.961372    14A     -0.866281    15A     -0.821176
      16A     -0.791115    17A     -0.700417    18A     -0.685300
      19A     -0.650540    20A     -0.630039    21A     -0.616594
      22A     -0.593819    23A     -0.575960    24A     -0.553344
      25A     -0.548728    26A     -0.515992    27A     -0.502793
      28A     -0.480054    29A     -0.477308    30A     -0.467717
      31A     -0.462489    32A     -0.435245

  @DF-RHF Final Energy:  -383.94691892712291

   => Energetics <=

    Nuclear Repulsion Energy =            376.5670832114216751
    One-Electron Energy =               -1269.0449545905630657
    Two-Electron Energy =                 508.5309524520184823
    DFT Exchange-Correlation Energy =       0.0000000000000000
    Empirical Dispersion Energy =           0.0000000000000000
    PCM Polarization Energy =               0.0000000000000000
    EFP Energy =                            0.0000000000000000
    Total Energy =                       -383.9469189271228515

  Mulliken Charges: (a.u.)
   Center  Symbol    Alpha    Beta     Spin     Total
       1     H     0.26796  0.26796  0.00000  0.46409
       2     O     4.34687  4.34687  0.00000 -0.69373
       3     C     2.63367  2.63367  0.00000  0.73266
       4     C     3.20006  3.20006  0.00000 -0.40012
       5     O     4.27813  4.27813  0.00000 -0.55626
       6     C     3.16598  3.16598  0.00000 -0.33196
       7     H     0.40127  0.40127  0.00000  0.19746
       8     H     0.39929  0.39929  0.00000  0.20142
       9     C     3.15430  3.15430  0.00000 -0.30861
      10     H     0.40874  0.40874  0.00000  0.18252
      11     H     0.40964  0.40964  0.00000  0.18072
      12     C     3.15481  3.15481  0.00000 -0.30963
      13     H     0.41770  0.41770  0.00000  0.16460
      14     H     0.42048  0.42048  0.00000  0.15905
      15     C     3.23964  3.23964  0.00000 -0.47928
      16     H     0.42084  0.42084  0.00000  0.15831
      17     H     0.42146  0.42146  0.00000  0.15709
      18     H     0.41772  0.41772  0.00000  0.16457
      19     H     0.42072  0.42072  0.00000  0.15856
      20     H     0.42072  0.42072  0.00000  0.15856

   Total alpha = 32.00000, Total beta = 32.00000, Total charge = -0.00000
