  ==> Input File <==

--------------------------------------------------------------------------
set {
	reference rhf
	basis 6-31G*
}

set_num_threads( 4 )
memory 2 gb

molecule MOL {
0 1

H	 -1.215050	 4.312070	 -0.239230
O	 -0.528705	 3.709505	 -0.487726
C	 -0.765190	 2.455945	 0.099857
C	 0.352047	 1.517040	 -0.319650
H	 -0.793140	 2.540808	 1.185364
H	 -1.726909	 2.057760	 -0.220900
C	 0.198102	 0.111031	 0.262842
H	 1.298214	 1.950338	 -0.007002
H	 0.372339	 1.473241	 -1.405075
C	 1.331804	 -0.827780	 -0.158768
H	 0.155409	 0.176204	 1.347325
H	 -0.753023	 -0.312840	 -0.056864
C	 2.723619	 -0.410569	 0.329459
H	 1.342964	 -0.912588	 -1.244120
H	 1.116806	 -1.824343	 0.220779
C	 3.243875	 0.895854	 -0.272975
H	 3.424222	 -1.207124	 0.091250
H	 2.714788	 -0.329854	 1.414619
H	 3.251977	 0.848779	 -1.358681
H	 2.637085	 1.747371	 0.016682
H	 4.259473	 1.094070	 0.055697

	symmetry c1
}
set optking {
	frozen_dihedral = ("
		4 7 10 14
	")
}

ee = optimize('scf')
oeprop('DIPOLE', 'QUADRUPOLE', 'MULLIKEN_CHARGES')
f=open( 'psi4out.xyz', 'w' )
f.write( "21  " )
f.write( str(ee) + "\n" )
f.write( MOL.save_string_xyz() )
f.close()
--------------------------------------------------------------------------

    Molecular point group: c1
  Charge       = 0
  Multiplicity = 1
  Basis Set: 6-31G*
  Basis Set:
  @DF-RHF Final Energy:  -310.18882705297364
    Total Energy =                       -310.1888270529735223
    Molecular point group: c1
  Basis Set: 6-31G*
  Basis Set:
  Basis Set: 6-31G*
  Basis Set:
  @DF-RHF Final Energy:  -310.20320721974201
    Total Energy =                       -310.2032072197418984
  Basis Set: 6-31G*
  Basis Set:
  Basis Set: 6-31G*
  Basis Set:
  @DF-RHF Final Energy:  -310.20664469359605
    Total Energy =                       -310.2066446935957629
  Basis Set: 6-31G*
  Basis Set:
  Basis Set: 6-31G*
  Basis Set:
  @DF-RHF Final Energy:  -310.20765078047259
    Total Energy =                       -310.2076507804728749
  Basis Set: 6-31G*
  Basis Set:
  @DF-RHF Final Energy:  -310.20814586789157
    Total Energy =                       -310.2081458678916874
  @DF-RHF Final Energy:  -310.20826894727685
    Total Energy =                       -310.2082689472768493
  @DF-RHF Final Energy:  -310.20828799155146
    Total Energy =                       -310.2082879915512876
  Basis Set: 6-31G*
  Basis Set:
  @DF-RHF Final Energy:  -310.20829747671530
    Total Energy =                       -310.2082974767156998
  Basis Set: 6-31G*
  Basis Set:
  Basis Set: 6-31G*
  Basis Set:
  @DF-RHF Final Energy:  -310.20829953949527
    Total Energy =                       -310.2082995394955560
  Basis Set: 6-31G*
  Basis Set:
  Basis Set: 6-31G*
  Basis Set:
  @DF-RHF Final Energy:  -310.20830058450974
    Total Energy =                       -310.2083005845097432
  Basis Set: 6-31G*
  Basis Set:
  Charge       = 0
  Multiplicity = 1
  Basis Set: 6-31G*
  Basis Set:

    Orbital Energies (a.u.)
    -----------------------

    Doubly Occupied:

       1A    -20.552088     2A    -11.267227     3A    -11.216618
       4A    -11.214161     5A    -11.213598     6A    -11.210460
       7A    -11.204884     8A     -1.358906     9A     -1.084356
      10A     -1.029299    11A     -0.957808    12A     -0.871607
      13A     -0.812389    14A     -0.775454    15A     -0.691500
      16A     -0.658281    17A     -0.623738    18A     -0.602283
      19A     -0.585585    20A     -0.569142    21A     -0.540726
      22A     -0.522515    23A     -0.501993    24A     -0.490252
      25A     -0.482113    26A     -0.459887    27A     -0.447938
      28A     -0.441016    29A     -0.434392

  @DF-RHF Final Energy:  -310.20830096965949

   => Energetics <=

    Nuclear Repulsion Energy =            318.4932600646927767
    One-Electron Energy =               -1051.7626894835782423
    Two-Electron Energy =                 423.0611284492259756
    DFT Exchange-Correlation Energy =       0.0000000000000000
    Empirical Dispersion Energy =           0.0000000000000000
    PCM Polarization Energy =               0.0000000000000000
    EFP Energy =                            0.0000000000000000
    Total Energy =                       -310.2083009696594900
    Molecular point group: c1
  Basis Set: 6-31G*
  Basis Set:

  -Total Gradient:
     Atom            X                  Y                   Z
    ------   -----------------  -----------------  -----------------
       1        0.000000181920     0.000008853143     0.000001292155
       2       -0.000002661931     0.000008939244    -0.000006548252
       3        0.000025115461    -0.000026741475     0.000003089358
       4       -0.000061076747    -0.000026904738    -0.000090825639
       5       -0.000003863203    -0.000000741998    -0.000006921381
       6       -0.000007421591    -0.000001155549     0.000002285653
       7        0.000121202314     0.000086674306     0.000143544526
       8       -0.000015238003    -0.000013510538    -0.000013620200
       9        0.000004504109    -0.000002533814     0.000011999748
      10       -0.000164934675    -0.000197398459    -0.000045761319
      11        0.000003829664     0.000015423853    -0.000003964866
      12       -0.000011120596    -0.000011429281     0.000003722328
      13        0.000035351682    -0.000000407542    -0.000037230759
      14        0.000120404672     0.000162484347     0.000016264139
      15       -0.000011268283    -0.000007126687    -0.000000673910
      16        0.000000211624     0.000040502550     0.000041482782
      17       -0.000014420409    -0.000005974435     0.000006590930
      18       -0.000001589327     0.000012823138    -0.000006947678
      19       -0.000009460307    -0.000001540347    -0.000010998806
      20        0.000007066835    -0.000032688390     0.000001935447
      21       -0.000014813203    -0.000007547323    -0.000008714254

  **** Optimization is complete! (in 11 steps) ****
    Final optimized geometry and variables:
    Molecular point group: c1

    Geometry (in Angstrom), charge = 0, multiplicity = 1:

    H           -2.460073472673     3.116435870509    -0.003306765488
    O           -1.682224970690     2.615144841665    -0.202295900669
    C           -1.864530897667     1.281259669110     0.197816954177
    C           -0.600599056023     0.508640305974    -0.137935363261
    H           -2.062194516625     1.225678483772     1.267570532074
    H           -2.718476495853     0.840718456950    -0.314852623537
    C           -0.685899471143    -0.958162625202     0.288768965878
    H            0.231641789178     1.004642291956     0.349750104779
    H           -0.428888327736     0.581696113162    -1.208459481280
    C            0.484098133281    -1.849863085618    -0.148843279807
    H           -0.781238776415    -1.011863076692     1.372170818709
    H           -1.600975743008    -1.387878994318    -0.115607670714
    C            1.861071846644    -1.498758618302     0.447781442107
    H            0.550181138261    -1.851346016790    -1.235246340382
    H            0.232689133333    -2.868082285048     0.136139501948
    C            2.717058590781    -0.563533771041    -0.410370922671
    H            2.420015950983    -2.418890473602     0.595850176257
    H            1.729507403900    -1.068815211585     1.438619024871
    H            2.914400970104    -1.008076185832    -1.381901937854
    H            2.240077642175     0.394588772929    -0.579577803994
    H            3.675143539465    -0.375043257015     0.064923548001

  Mulliken Charges: (a.u.)
   Center  Symbol    Alpha    Beta     Spin     Total
       1     H     0.28113  0.28113  0.00000  0.43773
       2     O     4.37198  4.37198  0.00000 -0.74395
       3     C     2.98907  2.98907  0.00000  0.02186
       4     C     3.16198  3.16198  0.00000 -0.32395
       5     H     0.43293  0.43293  0.00000  0.13414
       6     H     0.43269  0.43269  0.00000  0.13461
       7     C     3.16049  3.16049  0.00000 -0.32099
       8     H     0.41251  0.41251  0.00000  0.17497
       9     H     0.41526  0.41526  0.00000  0.16947
      10     C     3.15385  3.15385  0.00000 -0.30770
      11     H     0.42350  0.42350  0.00000  0.15300
      12     H     0.42337  0.42337  0.00000  0.15327
      13     C     3.15579  3.15579  0.00000 -0.31158
      14     H     0.42196  0.42196  0.00000  0.15608
      15     H     0.42020  0.42020  0.00000  0.15960
      16     C     3.24153  3.24153  0.00000 -0.48305
      17     H     0.42059  0.42059  0.00000  0.15883
      18     H     0.42230  0.42230  0.00000  0.15540
      19     H     0.42230  0.42230  0.00000  0.15540
      20     H     0.41583  0.41583  0.00000  0.16835
      21     H     0.42074  0.42074  0.00000  0.15852

   Total alpha = 29.00000, Total beta = 29.00000, Total charge = -0.00000
