                              Psi4 1.0.54 Driver

  ==> Input File <==

--------------------------------------------------------------------------
set {
	reference rhf
	basis cc-pvtz
}

set_num_threads( 4 )
memory 2 gb

molecule MOL {
0 1

H	 -3.258660	 -0.290394	 1.471450
C	 -3.307964	 -0.275695	 0.374072
C	 -2.653809	 0.914422	 -0.273689
O	 -3.855140	 -1.148880	 -0.205112
C	 -3.467965	 2.201131	 -0.108747
H	 -1.654781	 1.019924	 0.128987
H	 -2.564592	 0.681314	 -1.332464
C	 -3.539644	 2.700371	 1.332712
H	 -3.026180	 2.968962	 -0.734527
H	 -4.473443	 2.042212	 -0.490784
C	 -4.344746	 3.988787	 1.479603
H	 -2.530579	 2.860191	 1.703323
H	 -3.974032	 1.932125	 1.967166
C	 -4.404576	 4.492203	 2.920519
H	 -3.911429	 4.749291	 0.837563
H	 -5.356766	 3.822695	 1.116937
C	 -5.268929	 5.736654	 3.130608
H	 -3.395448	 4.694495	 3.271976
H	 -4.789652	 3.695355	 3.550642
C	 -4.742020	 7.001404	 2.456918
H	 -5.350802	 5.919877	 4.197434
H	 -6.278040	 5.535473	 2.780569
H	 -3.731062	 7.223951	 2.783159
H	 -4.728813	 6.911445	 1.377373
H	 -5.362794	 7.855023	 2.703775

	symmetry c1
}
set optking {
	frozen_dihedral = ("
		6 3 2 4
	")
}

ee,wfn = optimize('scf', return_wfn=True)
oeprop( wfn, 'DIPOLE', 'QUADRUPOLE', 'MULLIKEN_CHARGES')
f=open( 'psi4out.xyz', 'w' )
f.write( "25  " )
f.write( str(ee) + "\n" )
f.write( MOL.save_string_xyz() )
f.close()
--------------------------------------------------------------------------

    Molecular point group: c1
  Charge       = 0
  Multiplicity = 1
  Basis Set: CC-PVTZ
  Basis Set:
  @DF-RHF Final Energy:  -387.25818203662612
    Total Energy =                       -387.2581820366260672
    Molecular point group: c1
  Basis Set: CC-PVTZ
  Basis Set:
  Basis Set: CC-PVTZ
  Basis Set:
  @DF-RHF Final Energy:  -387.25843817486316
    Total Energy =                       -387.2584381748630449
  Basis Set: CC-PVTZ
  Basis Set:
  Basis Set: CC-PVTZ
  Basis Set:
  @DF-RHF Final Energy:  -387.25747104216873
    Total Energy =                       -387.2574710421683903
  Basis Set: CC-PVTZ
  Basis Set:
  Basis Set: CC-PVTZ
  Basis Set:
  @DF-RHF Final Energy:  -387.25865231406863
    Total Energy =                       -387.2586523140688541
  Basis Set: CC-PVTZ
  Basis Set:
  Basis Set: CC-PVTZ
  Basis Set:
  @DF-RHF Final Energy:  -387.25866615207912
    Total Energy =                       -387.2586661520792859
  Basis Set: CC-PVTZ
  Basis Set:
  Basis Set: CC-PVTZ
  Basis Set:
  @DF-RHF Final Energy:  -387.25866912477915
    Total Energy =                       -387.2586691247785211
  Basis Set: CC-PVTZ
  Basis Set:
  Basis Set: CC-PVTZ
  Basis Set:
  @DF-RHF Final Energy:  -387.25867252859251
    Total Energy =                       -387.2586725285927969
  Basis Set: CC-PVTZ
  Basis Set:
  Charge       = 0
  Multiplicity = 1
  Basis Set: CC-PVTZ
  Basis Set:

    Orbital Energies (a.u.)
    -----------------------

    Doubly Occupied:

       1A    -20.551077     2A    -11.319638     3A    -11.233471
       4A    -11.232827     5A    -11.225195     6A    -11.219436
       7A    -11.217906     8A    -11.217239     9A    -11.210072
      10A     -1.405412    11A     -1.105891    12A     -1.070951
      13A     -1.015116    14A     -0.944385    15A     -0.877904
      16A     -0.828273    17A     -0.784401    18A     -0.778089
      19A     -0.682272    20A     -0.660780    21A     -0.635113
      22A     -0.621543    23A     -0.600199    24A     -0.596181
      25A     -0.576621    26A     -0.556027    27A     -0.542291
      28A     -0.522720    29A     -0.512347    30A     -0.501079
      31A     -0.489946    32A     -0.480893    33A     -0.467161
      34A     -0.461400    35A     -0.444996    36A     -0.409762

  @DF-RHF Final Energy:  -387.25867253064274

   => Energetics <=

    Nuclear Repulsion Energy =            437.9510211987761181
    One-Electron Energy =               -1392.4221567262470671
    Two-Electron Energy =                 567.2124629968285490
    DFT Exchange-Correlation Energy =       0.0000000000000000
    Empirical Dispersion Energy =           0.0000000000000000
    PCM Polarization Energy =               0.0000000000000000
    EFP Energy =                            0.0000000000000000
    Total Energy =                       -387.2586725306424569
    Molecular point group: c1
  Basis Set: CC-PVTZ
  Basis Set:

  -Total Gradient:
     Atom            X                  Y                   Z
    ------   -----------------  -----------------  -----------------
       1       -0.000015871577    -0.000012390336    -0.000069274466
       2        0.000047017895    -0.000038336678     0.000024943155
       3       -0.000016080939    -0.000005668942    -0.000028529068
       4       -0.000020966936     0.000031493449     0.000040520866
       5       -0.000002731308    -0.000010684058     0.000009234232
       6       -0.000025468676     0.000023120220     0.000022877244
       7        0.000004809239     0.000000580087    -0.000003397776
       8        0.000020281378     0.000027639135     0.000002446269
       9        0.000000023836    -0.000003487126     0.000007696955
      10        0.000008648332    -0.000014498533    -0.000004292119
      11        0.000003396488     0.000003413355     0.000002498854
      12        0.000006974886     0.000003230564     0.000003342198
      13       -0.000001574932     0.000007602319    -0.000006268005
      14       -0.000009347557    -0.000007399914     0.000002448660
      15        0.000003872811    -0.000000147309     0.000003324303
      16       -0.000000322074     0.000004269810    -0.000001753619
      17       -0.000003673604    -0.000003263353    -0.000003583241
      18       -0.000001310611    -0.000000422711    -0.000005333926
      19        0.000000813829    -0.000003402899     0.000003248434
      20        0.000000608230    -0.000001471111     0.000000754032
      21        0.000001795526    -0.000000434402    -0.000001227002
      22       -0.000000730093     0.000001077795     0.000001536855
      23       -0.000001005418    -0.000000176275    -0.000000472709
      24        0.000000767934    -0.000000506535    -0.000000626724
      25        0.000000073346    -0.000000136551    -0.000000113400

  **** Optimization is complete! (in 8 steps) ****
    Final optimized geometry and variables:
    Molecular point group: c1

    Geometry (in Angstrom), charge = 0, multiplicity = 1:

    H            0.748955153347    -3.158923892879     0.287807765328
    C            0.683867272846    -3.160392049662    -0.805843368933
    C            1.259795528678    -1.958742867024    -1.506658343141
    O            0.176734397431    -4.073098469556    -1.362470375039
    C            0.418568045150    -0.687539899000    -1.313163503389
    H            2.263108061112    -1.790263336146    -1.123564499241
    H            1.332166418991    -2.198212694519    -2.559033776217
    C            0.371833358654    -0.154181780456     0.118111675047
    H            0.829819623219     0.079270166470    -1.961041449145
    H           -0.590417431542    -0.875974061591    -1.667253708609
    C           -0.402208304465     1.156723938348     0.234175622341
    H            1.387001590038    -0.004806870106     0.478318784390
    H           -0.080970432424    -0.888861693777     0.777412433738
    C           -0.452878109255     1.694286458428     1.663000661091
    H            0.050912500745     1.891123310117    -0.424069607689
    H           -1.416707652061     1.006009671003    -0.127330377931
    C           -1.286813281606     2.964139428782     1.841716953669
    H            0.560100118035     1.880163768633     2.012966107341
    H           -0.859642777037     0.922132744542     2.310264153203
    C           -0.727343019350     4.199337001692     1.140088352055
    H           -1.366511142184     3.174146794421     2.903772406726
    H           -2.299587114557     2.779388731458     1.493559171642
    H            0.288396688138     4.404127322837     1.463189158368
    H           -0.715010064973     4.084284277459     0.062966450550
    H           -1.326969326553     5.073543539830     1.366071731434

  Mulliken Charges: (a.u.)
   Center  Symbol    Alpha    Beta     Spin     Total
       1     H     0.46171  0.46171  0.00000  0.07657
       2     C     2.90453  2.90453  0.00000  0.19094
       3     C     3.08926  3.08926  0.00000 -0.17852
       4     O     4.16686  4.16686  0.00000 -0.33373
       5     C     3.10709  3.10709  0.00000 -0.21418
       6     H     0.45028  0.45028  0.00000  0.09943
       7     H     0.43739  0.43739  0.00000  0.12521
       8     C     3.09658  3.09658  0.00000 -0.19316
       9     H     0.44548  0.44548  0.00000  0.10903
      10     H     0.44419  0.44419  0.00000  0.11163
      11     C     3.09193  3.09193  0.00000 -0.18386
      12     H     0.45258  0.45258  0.00000  0.09483
      13     H     0.45114  0.45114  0.00000  0.09772
      14     C     3.09546  3.09546  0.00000 -0.19092
      15     H     0.45099  0.45099  0.00000  0.09801
      16     H     0.45222  0.45222  0.00000  0.09557
      17     C     3.09077  3.09077  0.00000 -0.18153
      18     H     0.45381  0.45381  0.00000  0.09238
      19     H     0.44891  0.44891  0.00000  0.10218
      20     C     3.15275  3.15275  0.00000 -0.30550
      21     H     0.44778  0.44778  0.00000  0.10443
      22     H     0.45394  0.45394  0.00000  0.09213
      23     H     0.45485  0.45485  0.00000  0.09031
      24     H     0.45391  0.45391  0.00000  0.09218
      25     H     0.44557  0.44557  0.00000  0.10886

   Total alpha = 36.00000, Total beta = 36.00000, Total charge =  0.00000

*** Psi4 exiting successfully. Buy a developer a beer!
