  ==> Input File <==

--------------------------------------------------------------------------
set {
	reference rhf
	basis 6-31G*
}

set_num_threads( 1 )
memory 2 gb

molecule MOL {
0 1

H	 1.438786	 -0.199450	 -1.277900
O	 1.654024	 -0.625927	 -0.460906
C	 1.135793	 0.118896	 0.612333
C	 0.031547	 1.023609	 0.088541
H	 1.915668	 0.729681	 1.063582
H	 0.754543	 -0.542641	 1.387006
C	 -1.134819	 0.293262	 -0.585751
H	 0.474374	 1.714721	 -0.623187
H	 -0.338529	 1.620940	 0.920081
C	 -1.917817	 -0.639439	 0.339494
H	 -0.758119	 -0.268455	 -1.433105
H	 -1.813832	 1.041889	 -0.986690
H	 -2.777680	 -1.057197	 -0.174994
H	 -1.310268	 -1.471279	 0.680599
H	 -2.283753	 -0.111424	 1.216626

	symmetry c1
}
set optking {
	frozen_dihedral = ("
		8 4 7 11,
		2 3 4 8
	")
}

ee = energy('scf')
oeprop('DIPOLE', 'QUADRUPOLE', 'MULLIKEN_CHARGES')
f=open( 'psi4out.xyz', 'w' )
f.write( "15  " )
f.write( str(ee) + "\n" )
f.write( MOL.save_string_xyz() )
f.close()
--------------------------------------------------------------------------

    Molecular point group: c1

    Geometry (in Angstrom), charge = 0, multiplicity = 1:

       Center              X                  Y                   Z               Mass
    ------------   -----------------  -----------------  -----------------  -----------------
           H          1.450978778329    -0.213118532553    -1.262527509126     1.007825032070
           O          1.666216778329    -0.639595532553    -0.445533509126    15.994914619560
           C          1.147985778329     0.105227467447     0.627705490874    12.000000000000
           C          0.043739778329     1.009940467447     0.103913490874    12.000000000000
           H          1.927860778329     0.716012467447     1.078954490874     1.007825032070
           H          0.766735778329    -0.556309532553     1.402378490874     1.007825032070
           C         -1.122626221671     0.279593467447    -0.570378509126    12.000000000000
           H          0.486566778329     1.701052467447    -0.607814509126     1.007825032070
           H         -0.326336221671     1.607271467447     0.935453490874     1.007825032070
           C         -1.905624221671    -0.653107532553     0.354866490874    12.000000000000
           H         -0.745926221671    -0.282123532553    -1.417732509126     1.007825032070
           H         -1.801639221671     1.028220467447    -0.971317509126     1.007825032070
           H         -2.765487221671    -1.070865532553    -0.159621509126     1.007825032070
           H         -1.298075221671    -1.484947532553     0.695971490874     1.007825032070
           H         -2.271560221671    -0.125092532553     1.231998490874     1.007825032070

  Charge       = 0
  Multiplicity = 1
  Basis Set: 6-31G*
  Basis Set:

    Orbital Energies (a.u.)
    -----------------------

    Doubly Occupied:

       1A    -20.550221     2A    -11.267813     3A    -11.223330
       4A    -11.222660     5A    -11.212293     6A     -1.359764
       7A     -1.072746     8A     -0.974878     9A     -0.882358
      10A     -0.791893    11A     -0.666455    12A     -0.652951
      13A     -0.639897    14A     -0.585906    15A     -0.571101
      16A     -0.549327    17A     -0.503371    18A     -0.482323
      19A     -0.479899    20A     -0.455170    21A     -0.430933

  @DF-RHF Final Energy:  -232.13958823110025

   => Energetics <=

    Nuclear Repulsion Energy =            192.9531208211294881
    One-Electron Energy =                -697.0348452810306981
    Two-Electron Energy =                 271.9421362288012460
    DFT Exchange-Correlation Energy =       0.0000000000000000
    Empirical Dispersion Energy =           0.0000000000000000
    PCM Polarization Energy =               0.0000000000000000
    EFP Energy =                            0.0000000000000000
    Total Energy =                       -232.1395882310999923

  Mulliken Charges: (a.u.)
   Center  Symbol    Alpha    Beta     Spin     Total
       1     H     0.27857  0.27857  0.00000  0.44286
       2     O     4.37506  4.37506  0.00000 -0.75012
       3     C     2.98013  2.98013  0.00000  0.03975
       4     C     3.19073  3.19073  0.00000 -0.38145
       5     H     0.42554  0.42554  0.00000  0.14893
       6     H     0.41975  0.41975  0.00000  0.16051
       7     C     3.15090  3.15090  0.00000 -0.30180
       8     H     0.42149  0.42149  0.00000  0.15702
       9     H     0.41909  0.41909  0.00000  0.16181
      10     C     3.24377  3.24377  0.00000 -0.48754
      11     H     0.42266  0.42266  0.00000  0.15468
      12     H     0.41890  0.41890  0.00000  0.16221
      13     H     0.41737  0.41737  0.00000  0.16525
      14     H     0.41374  0.41374  0.00000  0.17251
      15     H     0.42231  0.42231  0.00000  0.15539

   Total alpha = 21.00000, Total beta = 21.00000, Total charge = -0.00000
