  ==> Input File <==

--------------------------------------------------------------------------
set {
	reference rhf
	basis cc-pvtz
}

set_num_threads( 4 )
memory 2 gb

molecule MOL {
0 1

H	 2.379000	 -1.210000	 -0.172000
O	 1.700000	 -0.629000	 -0.485000
C	 1.181000	 0.114000	 0.590000
C	 0.076000	 1.018000	 0.067000
H	 1.961000	 0.725000	 1.041000
H	 0.801000	 -0.549000	 1.364000
C	 -1.090000	 0.287000	 -0.608000
H	 0.518000	 1.710000	 -0.644000
H	 -0.295000	 1.613000	 0.900000
C	 -1.875000	 -0.644000	 0.318000
H	 -0.711000	 -0.277000	 -1.454000
H	 -1.768000	 1.035000	 -1.011000
H	 -2.734000	 -1.062000	 -0.198000
H	 -1.268000	 -1.476000	 0.660000
H	 -2.241000	 -0.115000	 1.194000

	symmetry c1
}
ee = optimize('scf')
oeprop('DIPOLE', 'QUADRUPOLE', 'MULLIKEN_CHARGES')
f=open( 'psi4out.xyz', 'w' )
f.write( "15  " )
f.write( str(ee) + "\n" )
f.write( MOL.save_string_xyz() )
f.close()
--------------------------------------------------------------------------

    Molecular point group: c1
  Charge       = 0
  Multiplicity = 1
  Basis Set: CC-PVTZ
  Basis Set:
  @DF-RHF Final Energy:  -232.23751585886262
    Total Energy =                       -232.2375158588625936
    Molecular point group: c1
  Basis Set: CC-PVTZ
  Basis Set:
  Basis Set: CC-PVTZ
  Basis Set:
  @DF-RHF Final Energy:  -232.23763452387934
    Total Energy =                       -232.2376345238795921
  Basis Set: CC-PVTZ
  Basis Set:
  Basis Set: CC-PVTZ
  Basis Set:
  @DF-RHF Final Energy:  -232.23762414070617
    Total Energy =                       -232.2376241407063731
  Basis Set: CC-PVTZ
  Basis Set:
  Basis Set: CC-PVTZ
  Basis Set:
  @DF-RHF Final Energy:  -232.23763874065469
    Total Energy =                       -232.2376387406547451
  Basis Set: CC-PVTZ
  Basis Set:
  Charge       = 0
  Multiplicity = 1
  Basis Set: CC-PVTZ
  Basis Set:

    Orbital Energies (a.u.)
    -----------------------

    Doubly Occupied:

       1A    -20.546564     2A    -11.265381     3A    -11.210975
       4A    -11.207386     5A    -11.203137     6A     -1.364317
       7A     -1.065396     8A     -0.971614     9A     -0.869517
      10A     -0.775328    11A     -0.707091    12A     -0.650212
      13A     -0.609295    14A     -0.574751    15A     -0.566163
      16A     -0.533291    17A     -0.511118    18A     -0.475800
      19A     -0.467671    20A     -0.453126    21A     -0.433472

  @DF-RHF Final Energy:  -232.23763956125146

   => Energetics <=

    Nuclear Repulsion Energy =            191.9163557593997780
    One-Electron Energy =                -695.3847793414781790
    Two-Electron Energy =                 271.2307840208270022
    DFT Exchange-Correlation Energy =       0.0000000000000000
    Empirical Dispersion Energy =           0.0000000000000000
    PCM Polarization Energy =               0.0000000000000000
    EFP Energy =                            0.0000000000000000
    Total Energy =                       -232.2376395612513988
    Molecular point group: c1
  Basis Set: CC-PVTZ
  Basis Set:

  -Total Gradient:
     Atom            X                  Y                   Z
    ------   -----------------  -----------------  -----------------
       1        0.000067597947    -0.000054806012     0.000031825514
       2       -0.000044950229     0.000056772106    -0.000059140381
       3       -0.000033818396    -0.000011906544     0.000046825438
       4        0.000017034650     0.000008549388    -0.000016390486
       5        0.000006538269    -0.000001796534    -0.000007907005
       6        0.000005733695    -0.000012691679     0.000016898204
       7       -0.000003101409     0.000003606495    -0.000013025756
       8       -0.000000002657     0.000010854829    -0.000013093157
       9       -0.000001439075     0.000014641386     0.000008032445
      10       -0.000003498821     0.000002667143     0.000016288259
      11        0.000013910169     0.000002516540    -0.000019711513
      12       -0.000011877768     0.000004737172    -0.000005489159
      13       -0.000013258137    -0.000005411411    -0.000004738861
      14       -0.000000084214    -0.000016783007     0.000007170155
      15        0.000001215980    -0.000000949874     0.000012456301

  **** Optimization is complete! (in 5 steps) ****
    Final optimized geometry and variables:
    Molecular point group: c1

    Geometry (in Angstrom), charge = 0, multiplicity = 1:

    H            2.359626847823    -1.179800855136    -0.161132729275
    O            1.675514912697    -0.612942452133    -0.465626963305
    C            1.135873284128     0.113391400280     0.608263311709
    C            0.027642443816     1.012027318717     0.090273886527
    H            1.902971879352     0.727968331300     1.072615110583
    H            0.756163516147    -0.561895710950     1.370017753667
    C           -1.138736614279     0.285728538596    -0.581921540381
    H            0.464661028711     1.708096217302    -0.618252115346
    H           -0.340737008047     1.603070825070     0.925245575312
    C           -1.933982979930    -0.631436076942     0.343652553882
    H           -0.763151044798    -0.285568619229    -1.422081067341
    H           -1.808358408120     1.035290738567    -0.992333741536
    H           -2.789187448308    -1.049672613655    -0.174718164005
    H           -1.335628370569    -1.461367798427     0.700417446709
    H           -2.305435190028    -0.092166448896     1.209724990330

  Mulliken Charges: (a.u.)
   Center  Symbol    Alpha    Beta     Spin     Total
       1     H     0.39553  0.39553  0.00000  0.20893
       2     O     4.19924  4.19924  0.00000 -0.39848
       3     C     2.97593  2.97593  0.00000  0.04813
       4     C     3.09485  3.09485  0.00000 -0.18970
       5     H     0.46320  0.46320  0.00000  0.07360
       6     H     0.47232  0.47232  0.00000  0.05535
       7     C     3.08589  3.08589  0.00000 -0.17178
       8     H     0.44848  0.44848  0.00000  0.10304
       9     H     0.45463  0.45463  0.00000  0.09075
      10     C     3.15505  3.15505  0.00000 -0.31011
      11     H     0.44652  0.44652  0.00000  0.10697
      12     H     0.45100  0.45100  0.00000  0.09800
      13     H     0.44666  0.44666  0.00000  0.10668
      14     H     0.45365  0.45365  0.00000  0.09269
      15     H     0.45703  0.45703  0.00000  0.08594

   Total alpha = 21.00000, Total beta = 21.00000, Total charge = -0.00000
