  ==> Input File <==

--------------------------------------------------------------------------
set {
	reference rhf
	basis cc-pvtz
}

set_num_threads( 4 )
memory 2 gb

molecule MOL {
0 1

H	 1.128311	 0.207724	 1.465118
C	 1.134565	 0.093781	 0.372499
C	 0.062554	 0.862911	 -0.350953
O	 1.948932	 -0.587720	 -0.146651
C	 0.456527	 1.212111	 -1.789514
H	 -0.172243	 1.749928	 0.223127
H	 -0.821035	 0.228782	 -0.365926
C	 1.607920	 2.209626	 -1.878443
H	 -0.412813	 1.617533	 -2.293949
H	 0.718078	 0.301942	 -2.322081
H	 1.353480	 3.141041	 -1.385205
H	 1.844747	 2.433061	 -2.911705
H	 2.507643	 1.827006	 -1.409255

	symmetry c1
}
set optking {
	frozen_dihedral = ("
		6 3 2 4
	")
}

ee = optimize('scf')
oeprop('DIPOLE', 'QUADRUPOLE', 'MULLIKEN_CHARGES')
f=open( 'psi4out.xyz', 'w' )
f.write( "13  " )
f.write( str(ee) + "\n" )
f.write( MOL.save_string_xyz() )
f.close()
--------------------------------------------------------------------------

    Molecular point group: c1
  Charge       = 0
  Multiplicity = 1
  Basis Set: CC-PVTZ
  Basis Set:
  @DF-RHF Final Energy:  -231.07023449343424
    Total Energy =                       -231.0702344934340431
    Molecular point group: c1
  Basis Set: CC-PVTZ
  Basis Set:
  Basis Set: CC-PVTZ
  Basis Set:
  @DF-RHF Final Energy:  -231.06943173085685
    Total Energy =                       -231.0694317308567065
  Basis Set: CC-PVTZ
  Basis Set:
  Basis Set: CC-PVTZ
  Basis Set:
  @DF-RHF Final Energy:  -231.07078456906589
    Total Energy =                       -231.0707845690658928
  Basis Set: CC-PVTZ
  Basis Set:
  Basis Set: CC-PVTZ
  Basis Set:
  @DF-RHF Final Energy:  -231.07099828633392
    Total Energy =                       -231.0709982863339462
  Basis Set: CC-PVTZ
  Basis Set:
  Basis Set: CC-PVTZ
  Basis Set:
  @DF-RHF Final Energy:  -231.07100490996547
    Total Energy =                       -231.0710049099652963
  Basis Set: CC-PVTZ
  Basis Set:
  Basis Set: CC-PVTZ
  Basis Set:
  @DF-RHF Final Energy:  -231.07100618122121
    Total Energy =                       -231.0710061812210938
  Basis Set: CC-PVTZ
  Basis Set:
  Charge       = 0
  Multiplicity = 1
  Basis Set: CC-PVTZ
  Basis Set:

    Orbital Energies (a.u.)
    -----------------------

    Doubly Occupied:

       1A    -20.553027     2A    -11.323701     3A    -11.236594
       4A    -11.224643     5A    -11.211021     6A     -1.408867
       7A     -1.079786     8A     -0.973753     9A     -0.852470
      10A     -0.766010    11A     -0.689041    12A     -0.638783
      13A     -0.630413    14A     -0.587760    15A     -0.563929
      16A     -0.526576    17A     -0.498657    18A     -0.485427
      19A     -0.482422    20A     -0.413951

  @DF-RHF Final Energy:  -231.07100628343767

   => Energetics <=

    Nuclear Repulsion Energy =            176.2533788872794958
    One-Electron Energy =                -662.3551047485615300
    Two-Electron Energy =                 255.0307195778445646
    DFT Exchange-Correlation Energy =       0.0000000000000000
    Empirical Dispersion Energy =           0.0000000000000000
    PCM Polarization Energy =               0.0000000000000000
    EFP Energy =                            0.0000000000000000
    Total Energy =                       -231.0710062834374696
    Molecular point group: c1
  Basis Set: CC-PVTZ
  Basis Set:

  -Total Gradient:
     Atom            X                  Y                   Z
    ------   -----------------  -----------------  -----------------
       1       -0.000004051560    -0.000002473122    -0.000000176373
       2        0.001536245269     0.002072904864     0.000085444920
       3        0.001175016783     0.000483820161    -0.001082177194
       4       -0.001282297980    -0.001581404501     0.000072089815
       5       -0.000013577361    -0.000009194065     0.000027905914
       6       -0.001417134519    -0.000961979151     0.000888604768
       7       -0.000008079103    -0.000000500338     0.000011547868
       8        0.000014807648     0.000001115447    -0.000004503007
       9        0.000000332123    -0.000003467891     0.000004756047
      10        0.000001731867    -0.000000430738    -0.000005070967
      11       -0.000002037755    -0.000000671970    -0.000000355783
      12        0.000002668399     0.000001640033     0.000002361525
      13       -0.000003623809     0.000000641272    -0.000000427531

  **** Optimization is complete! (in 7 steps) ****
    Final optimized geometry and variables:
    Molecular point group: c1

    Geometry (in Angstrom), charge = 0, multiplicity = 1:

    H           -0.022653372151    -0.639329650887     2.249800041803
    C            0.060641183018    -0.685702371950     1.157178017812
    C           -0.967075244469     0.119045221723     0.402514169752
    O            0.879698909323    -1.375579136889     0.655833703598
    C           -0.595949949559     0.459795124507    -1.036892351085
    H           -1.207813187223     1.005341264911     0.982575894604
    H           -1.870048046439    -0.490463045988     0.425302910483
    C            0.534197005687     1.479135851726    -1.147634822939
    H           -1.479154909061     0.846294205886    -1.534045169818
    H           -0.317550049714    -0.450609445702    -1.552248632373
    H            0.269954506401     2.410949445851    -0.657571136068
    H            0.748164774977     1.702766473387    -2.185924001468
    H            1.445677016645     1.107060534792    -0.696643570695

  Mulliken Charges: (a.u.)
   Center  Symbol    Alpha    Beta     Spin     Total
       1     H     0.45336  0.45336  0.00000  0.09329
       2     C     2.91645  2.91645  0.00000  0.16709
       3     C     3.09682  3.09682  0.00000 -0.19363
       4     O     4.16766  4.16766  0.00000 -0.33533
       5     C     3.08536  3.08536  0.00000 -0.17073
       6     H     0.44746  0.44746  0.00000  0.10509
       7     H     0.43947  0.43947  0.00000  0.12106
       8     C     3.15154  3.15154  0.00000 -0.30307
       9     H     0.44710  0.44710  0.00000  0.10579
      10     H     0.44436  0.44436  0.00000  0.11128
      11     H     0.45760  0.45760  0.00000  0.08479
      12     H     0.44685  0.44685  0.00000  0.10631
      13     H     0.44596  0.44596  0.00000  0.10807

   Total alpha = 20.00000, Total beta = 20.00000, Total charge = -0.00000
