  ==> Input File <==

--------------------------------------------------------------------------
set {
	reference rhf
	basis 6-31G*
}

set_num_threads( 4 )
memory 2 gb

molecule MOL {
0 1

H	 -2.098997	 -0.674324	 -0.616650
O	 -2.035884	 -0.060112	 0.102722
C	 -0.955155	 0.788182	 -0.092531
C	 0.353668	 0.040312	 -0.004810
H	 -0.985057	 1.290372	 -1.054184
H	 -0.974469	 1.533190	 0.688632
F	 1.378919	 0.878824	 -0.106450
F	 0.455493	 -0.579257	 1.160078
F	 0.484298	 -0.861465	 -0.956275

	symmetry c1
}
set optking {
	frozen_dihedral = ("
		7 4 3 5
	")
}

ee = optimize('scf')
oeprop('DIPOLE', 'QUADRUPOLE', 'MULLIKEN_CHARGES')
f=open( 'psi4out.xyz', 'w' )
f.write( "9  " )
f.write( str(ee) + "\n" )
f.write( MOL.save_string_xyz() )
f.close()
--------------------------------------------------------------------------

    Molecular point group: c1
  Charge       = 0
  Multiplicity = 1
  Basis Set: 6-31G*
  Basis Set:
  @DF-RHF Final Energy:  -450.66225615000820
    Total Energy =                       -450.6622561500084885
    Molecular point group: c1
  Basis Set: 6-31G*
  Basis Set:
  Basis Set: 6-31G*
  Basis Set:
  @DF-RHF Final Energy:  -450.66257226344442
    Total Energy =                       -450.6625722634444742
  Basis Set: 6-31G*
  Basis Set:
  Basis Set: 6-31G*
  Basis Set:
  @DF-RHF Final Energy:  -450.66262127058201
    Total Energy =                       -450.6626212705817807
  Basis Set: 6-31G*
  Basis Set:
  Basis Set: 6-31G*
  Basis Set:
  @DF-RHF Final Energy:  -450.66262540352398
    Total Energy =                       -450.6626254035241459
  Basis Set: 6-31G*
  Basis Set:
  Charge       = 0
  Multiplicity = 1
  Basis Set: 6-31G*
  Basis Set:

    Orbital Energies (a.u.)
    -----------------------

    Doubly Occupied:

       1A    -26.343705     2A    -26.343007     3A    -26.338147
       4A    -20.590395     5A    -11.499713     6A    -11.309839
       7A     -1.739754     8A     -1.638996     9A     -1.635888
      10A     -1.402257    11A     -1.047954    12A     -0.923402
      13A     -0.830274    14A     -0.828180    15A     -0.804616
      16A     -0.727674    17A     -0.711681    18A     -0.696529
      19A     -0.664719    20A     -0.658005    21A     -0.642032
      22A     -0.628985    23A     -0.613647    24A     -0.531537
      25A     -0.480326

  @DF-RHF Final Energy:  -450.66262592681051

   => Energetics <=

    Nuclear Repulsion Energy =            277.0526327122023531
    One-Electron Energy =               -1176.1679898532947846
    Two-Electron Energy =                 448.4527312142816982
    DFT Exchange-Correlation Energy =       0.0000000000000000
    Empirical Dispersion Energy =           0.0000000000000000
    PCM Polarization Energy =               0.0000000000000000
    EFP Energy =                            0.0000000000000000
    Total Energy =                       -450.6626259268107333
    Molecular point group: c1
  Basis Set: 6-31G*
  Basis Set:

  -Total Gradient:
     Atom            X                  Y                   Z
    ------   -----------------  -----------------  -----------------
       1       -0.000017928376    -0.000007476887    -0.000002955176
       2       -0.000008162037    -0.000014198977    -0.000010187172
       3        0.001000339261     0.001961544526     0.001431025817
       4       -0.000199088554    -0.000641691639    -0.002204972310
       5       -0.000813553831    -0.001535189413    -0.000749732855
       6       -0.000004982038     0.000001694562    -0.000016725505
       7        0.000031630430     0.000227691877     0.001563591786
       8        0.000005294705     0.000007826489    -0.000024447644
       9        0.000006450444    -0.000000200538     0.000014403062

  **** Optimization is complete! (in 5 steps) ****
    Final optimized geometry and variables:
    Molecular point group: c1

    Geometry (in Angstrom), charge = 0, multiplicity = 1:

    H           -2.105231482122    -0.670754517264    -0.642864588662
    O           -2.036390498705    -0.066417150796     0.084397746321
    C           -0.956071953184     0.785207562051    -0.106154260162
    C            0.353539210950     0.040377683273    -0.003935077592
    H           -0.983946244607     1.271042398257    -1.076076387077
    H           -0.984982466382     1.535996049663     0.668706898327
    F            1.372040747017     0.877831453336    -0.117531844839
    F            0.480456045352    -0.594151577911     1.143664533779
    F            0.458661949513    -0.862554140746    -0.971939213458

  Mulliken Charges: (a.u.)
   Center  Symbol    Alpha    Beta     Spin     Total
       1     H     0.27289  0.27289  0.00000  0.45422
       2     O     4.36153  4.36153  0.00000 -0.72305
       3     C     3.05267  3.05267  0.00000 -0.10533
       4     C     2.46539  2.46539  0.00000  1.06921
       5     H     0.40976  0.40976  0.00000  0.18049
       6     H     0.39532  0.39532  0.00000  0.20936
       7     F     4.68174  4.68174  0.00000 -0.36349
       8     F     4.67501  4.67501  0.00000 -0.35002
       9     F     4.68570  4.68570  0.00000 -0.37139

   Total alpha = 25.00000, Total beta = 25.00000, Total charge = -0.00000
