  ==> Input File <==

--------------------------------------------------------------------------
set {
	reference rhf
	basis 6-31G*
}

set_num_threads( 4 )
memory 2 gb

molecule MOL {
0 1

O	 -2.595742	 -0.873459	 0.233448
C	 -1.921153	 0.064240	 -0.045697
C	 -2.403587	 1.286888	 -0.778320
O	 -0.632575	 0.154573	 0.251549
H	 -1.836713	 1.412862	 -1.693597
H	 -3.454066	 1.182660	 -1.005184
H	 -2.240993	 2.167502	 -0.167716
C	 0.160891	 -1.019931	 0.106212
C	 1.589627	 -0.672828	 0.480843
H	 0.089836	 -1.367806	 -0.916050
H	 -0.238459	 -1.792301	 0.749618
C	 2.246377	 0.346236	 -0.452210
H	 2.163194	 -1.597435	 0.473358
H	 1.604769	 -0.303424	 1.502885
C	 3.691736	 0.652107	 -0.061850
H	 2.219579	 -0.032311	 -1.472055
H	 1.666466	 1.263317	 -0.447249
H	 4.134505	 1.377213	 -0.737283
H	 4.305508	 -0.243868	 -0.089969
H	 3.748266	 1.059562	 0.943567

	symmetry c1
}
set optking {
	frozen_dihedral = ("
		1 2 4 8
	")
}

ee = optimize('scf')
oeprop('DIPOLE', 'QUADRUPOLE', 'MULLIKEN_CHARGES')
f=open( 'psi4out.xyz', 'w' )
f.write( "20  " )
f.write( str(ee) + "\n" )
f.write( MOL.save_string_xyz() )
f.close()
--------------------------------------------------------------------------

    Molecular point group: c1
  Charge       = 0
  Multiplicity = 1
  Basis Set: 6-31G*
  Basis Set:
  @DF-RHF Final Energy:  -383.93732794692585
    Total Energy =                       -383.9373279469257341
    Molecular point group: c1
  Basis Set: 6-31G*
  Basis Set:
  Basis Set: 6-31G*
  Basis Set:
  @DF-RHF Final Energy:  -383.93465552695812
    Total Energy =                       -383.9346555269584087
  Basis Set: 6-31G*
  Basis Set:
  Basis Set: 6-31G*
  Basis Set:
  @DF-RHF Final Energy:  -383.93797923259285
    Total Energy =                       -383.9379792325926246
  Basis Set: 6-31G*
  Basis Set:
  Basis Set: 6-31G*
  Basis Set:
  @DF-RHF Final Energy:  -383.93802990247860
    Total Energy =                       -383.9380299024786609
  Basis Set: 6-31G*
  Basis Set:
  Basis Set: 6-31G*
  Basis Set:
  @DF-RHF Final Energy:  -383.93803402224120
    Total Energy =                       -383.9380340222411405
  Basis Set: 6-31G*
  Basis Set:
  Charge       = 0
  Multiplicity = 1
  Basis Set: 6-31G*
  Basis Set:

    Orbital Energies (a.u.)
    -----------------------

    Doubly Occupied:

       1A    -20.594031     2A    -20.548492     3A    -11.375665
       4A    -11.285968     5A    -11.234082     6A    -11.226550
       7A    -11.221784     8A    -11.214279     9A     -1.463153
      10A     -1.363583    11A     -1.085968    12A     -1.027021
      13A     -0.983405    14A     -0.880691    15A     -0.811220
      16A     -0.776074    17A     -0.692250    18A     -0.681897
      19A     -0.659844    20A     -0.633757    21A     -0.605716
      22A     -0.594174    23A     -0.571708    24A     -0.559921
      25A     -0.544989    26A     -0.522187    27A     -0.513917
      28A     -0.483802    29A     -0.477219    30A     -0.475251
      31A     -0.446871    32A     -0.436992

  @DF-RHF Final Energy:  -383.93803341929339

   => Energetics <=

    Nuclear Repulsion Energy =            385.0475478975425290
    One-Electron Energy =               -1285.9862406229028693
    Two-Electron Energy =                 517.0006593060668365
    DFT Exchange-Correlation Energy =       0.0000000000000000
    Empirical Dispersion Energy =           0.0000000000000000
    PCM Polarization Energy =               0.0000000000000000
    EFP Energy =                            0.0000000000000000
    Total Energy =                       -383.9380334192935607
    Molecular point group: c1
  Basis Set: 6-31G*
  Basis Set:

  -Total Gradient:
     Atom            X                  Y                   Z
    ------   -----------------  -----------------  -----------------
       1       -0.002490234813     0.004029522560     0.008126260770
       2        0.004635776126    -0.004765144585    -0.015207377028
       3        0.000414225687    -0.000105074289    -0.000299791614
       4       -0.004339064578    -0.001138985927     0.014368848768
       5       -0.000056755126    -0.000035289824    -0.000000755099
       6        0.000010108608     0.000023682614     0.000005796904
       7       -0.000167418173     0.000014339545     0.000098763304
       8        0.001923078663     0.002116999836    -0.007222356737
       9        0.000038785221    -0.000025155068    -0.000016803938
      10        0.000003964496    -0.000032482417     0.000123233070
      11        0.000003569267    -0.000088467761    -0.000006264570
      12       -0.000014411303    -0.000000444243     0.000026219873
      13        0.000034887769    -0.000011842460     0.000024553199
      14       -0.000008064468     0.000005700816    -0.000013979460
      15        0.000007442801    -0.000005999560    -0.000017056853
      16       -0.000001432272     0.000002011101     0.000003512390
      17        0.000008855498     0.000017565196     0.000012707960
      18        0.000008240325    -0.000003545920    -0.000004138012
      19       -0.000004089882    -0.000000151875     0.000004698854
      20       -0.000007463842     0.000002762264    -0.000006071780

  **** Optimization is complete! (in 6 steps) ****
    Final optimized geometry and variables:
    Molecular point group: c1

    Geometry (in Angstrom), charge = 0, multiplicity = 1:

    O           -2.604620130989    -0.892724689035     0.150951128941
    C           -1.923299828039     0.052415245873    -0.069965725329
    C           -2.401562913934     1.324860525942    -0.713661845219
    O           -0.647499959857     0.142079815312     0.313876805834
    H           -1.845704273887     1.501921006573    -1.627812645971
    H           -3.457086513261     1.253478874307    -0.930266989194
    H           -2.213452612256     2.160824092453    -0.049610125281
    C            0.158845776040    -1.027679034501     0.199208070404
    C            1.586238229651    -0.658350210429     0.556619429644
    H            0.092608998404    -1.397008031418    -0.818311989473
    H           -0.224933269275    -1.791866084665     0.860623275106
    C            2.227048034073     0.350249142524    -0.398173175758
    H            2.169858363637    -1.576737741920     0.565038937681
    H            1.600020846438    -0.269191584739     1.571074458223
    C            3.672345127499     0.675578962374    -0.023468941862
    H            2.197576680605    -0.046580357845    -1.411262102234
    H            1.638643343973     1.261705101094    -0.404887924460
    H            4.104775672643     1.390855847644    -0.715886820717
    H            4.293583256550    -0.215588102386    -0.037644026673
    H            3.731535095704     1.103381062392     0.973220447968

  Mulliken Charges: (a.u.)
   Center  Symbol    Alpha    Beta     Spin     Total
       1     O     4.27272  4.27272  0.00000 -0.54544
       2     C     2.61852  2.61852  0.00000  0.76295
       3     C     3.28320  3.28320  0.00000 -0.56641
       4     O     4.31384  4.31384  0.00000 -0.62768
       5     H     0.40367  0.40367  0.00000  0.19267
       6     H     0.39748  0.39748  0.00000  0.20503
       7     H     0.39881  0.39881  0.00000  0.20237
       8     C     3.00338  3.00338  0.00000 -0.00676
       9     C     3.16463  3.16463  0.00000 -0.32926
      10     H     0.41913  0.41913  0.00000  0.16175
      11     H     0.40342  0.40342  0.00000  0.19315
      12     C     3.15506  3.15506  0.00000 -0.31012
      13     H     0.41834  0.41834  0.00000  0.16333
      14     H     0.41219  0.41219  0.00000  0.17561
      15     C     3.24043  3.24043  0.00000 -0.48086
      16     H     0.42453  0.42453  0.00000  0.15093
      17     H     0.41142  0.41142  0.00000  0.17717
      18     H     0.41766  0.41766  0.00000  0.16468
      19     H     0.42163  0.42163  0.00000  0.15673
      20     H     0.41992  0.41992  0.00000  0.16015

   Total alpha = 32.00000, Total beta = 32.00000, Total charge = -0.00000
