  ==> Input File <==

--------------------------------------------------------------------------
set {
	reference rhf
	basis cc-pvtz
}

set_num_threads( 4 )
memory 2 gb

molecule MOL {
0 1

H	 0.978273	 0.684179	 -1.932772
O	 1.211945	 1.212173	 -1.190431
C	 0.706474	 0.636793	 -0.025501
C	 -0.793473	 0.591216	 0.050087
H	 1.087254	 1.228182	 0.798858
H	 1.095934	 -0.370499	 0.110086
C	 -1.534243	 -0.493009	 -0.013340
H	 -1.266611	 1.552628	 0.164437
H	 -1.101195	 -1.466332	 -0.144046
H	 -2.604242	 -0.437780	 0.050785

	symmetry c1
}
set optking {
	frozen_dihedral = ("
		5 3 4 7
	")
}

ee = optimize('scf')
oeprop('DIPOLE', 'QUADRUPOLE', 'MULLIKEN_CHARGES')
f=open( 'psi4out.xyz', 'w' )
f.write( "10  " )
f.write( str(ee) + "\n" )
f.write( MOL.save_string_xyz() )
f.close()
--------------------------------------------------------------------------

    Molecular point group: c1
  Charge       = 0
  Multiplicity = 1
  Basis Set: CC-PVTZ
  Basis Set:
  @DF-RHF Final Energy:  -191.99789080587476
    Total Energy =                       -191.9978908058747606
    Molecular point group: c1
  Basis Set: CC-PVTZ
  Basis Set:
  Basis Set: CC-PVTZ
  Basis Set:
  @DF-RHF Final Energy:  -191.99870416129838
    Total Energy =                       -191.9987041612982352
  Basis Set: CC-PVTZ
  Basis Set:
  Basis Set: CC-PVTZ
  Basis Set:
  @DF-RHF Final Energy:  -191.99878242324169
    Total Energy =                       -191.9987824232416642
  Basis Set: CC-PVTZ
  Basis Set:
  Basis Set: CC-PVTZ
  Basis Set:
  @DF-RHF Final Energy:  -191.99879159252555
    Total Energy =                       -191.9987915925255777
  Basis Set: CC-PVTZ
  Basis Set:
  Charge       = 0
  Multiplicity = 1
  Basis Set: CC-PVTZ
  Basis Set:

    Orbital Energies (a.u.)
    -----------------------

    Doubly Occupied:

       1A    -20.550934     2A    -11.275510     3A    -11.231906
       4A    -11.226610     5A     -1.369157     6A     -1.068477
       7A     -0.925400     8A     -0.778622     9A     -0.707319
      10A     -0.626541    11A     -0.622947    12A     -0.604963
      13A     -0.533954    14A     -0.491906    15A     -0.447965
      16A     -0.380580

  @DF-RHF Final Energy:  -191.99879209211289

   => Energetics <=

    Nuclear Repulsion Energy =            117.9437456832412465
    One-Electron Energy =                -494.1994901068255217
    Two-Electron Energy =                 184.2569523314712967
    DFT Exchange-Correlation Energy =       0.0000000000000000
    Empirical Dispersion Energy =           0.0000000000000000
    PCM Polarization Energy =               0.0000000000000000
    EFP Energy =                            0.0000000000000000
    Total Energy =                       -191.9987920921129501
    Molecular point group: c1
  Basis Set: CC-PVTZ
  Basis Set:

  -Total Gradient:
     Atom            X                  Y                   Z
    ------   -----------------  -----------------  -----------------
       1        0.000003496785     0.000005648418    -0.000010766343
       2        0.000018810744     0.000014398291    -0.000033840894
       3        0.000022247831    -0.001658506147     0.000449104038
       4        0.000005935939     0.000149580308     0.002141612460
       5       -0.000057928177     0.001345352000    -0.000992453308
       6        0.000002916403    -0.000008488972     0.000020700754
       7        0.000001436913     0.000151672869    -0.001539242538
       8        0.000001453301     0.000002664173    -0.000007113673
       9       -0.000004852422     0.000002728173    -0.000008789233
      10        0.000006482686    -0.000005049113    -0.000019211263

  **** Optimization is complete! (in 5 steps) ****
    Final optimized geometry and variables:
    Molecular point group: c1

    Geometry (in Angstrom), charge = 0, multiplicity = 1:

    H            0.888453497752     0.257383771704    -1.586959959983
    O            1.234818684947     0.704165072536    -0.835390447645
    C            0.745547467469     0.101943543474     0.334219161070
    C           -0.755279085406     0.098781970369     0.376441899599
    H            1.139876155406     0.697242181081     1.147034889887
    H            1.124635949948    -0.909736516861     0.440987934747
    C           -1.494068610636    -0.988224125780     0.317944532231
    H           -1.226124039734     1.066441508687     0.412098225676
    H           -1.052004866545    -1.967674874519     0.271386035175
    H           -2.566813616654    -0.942655710263     0.326274928783

  Mulliken Charges: (a.u.)
   Center  Symbol    Alpha    Beta     Spin     Total
       1     H     0.39410  0.39410  0.00000  0.21180
       2     O     4.20016  4.20016  0.00000 -0.40032
       3     C     2.94990  2.94990  0.00000  0.10020
       4     C     3.08119  3.08119  0.00000 -0.16239
       5     H     0.45917  0.45917  0.00000  0.08167
       6     H     0.47028  0.47028  0.00000  0.05944
       7     C     3.17208  3.17208  0.00000 -0.34415
       8     H     0.41862  0.41862  0.00000  0.16276
       9     H     0.42856  0.42856  0.00000  0.14288
      10     H     0.42595  0.42595  0.00000  0.14810

   Total alpha = 16.00000, Total beta = 16.00000, Total charge = -0.00000
