  ==> Input File <==

--------------------------------------------------------------------------
set {
	reference rhf
	basis cc-pvtz
}

set_num_threads( 4 )
memory 2 gb

molecule MOL {
0 1

H	 3.270957	 0.148573	 0.104537
N	 2.433987	 -0.362316	 -0.080024
C	 1.263552	 0.494993	 0.021953
H	 2.390066	 -1.105962	 0.585105
C	 -0.016533	 -0.325589	 -0.026925
H	 1.280915	 1.180773	 -0.818522
H	 1.263064	 1.106893	 0.925038
C	 -1.280353	 0.525521	 0.047747
H	 -0.016686	 -0.912532	 -0.939714
H	 -0.014099	 -1.037598	 0.796369
C	 -2.560681	 -0.301323	 -0.007747
H	 -1.279957	 1.241025	 -0.770189
H	 -1.270445	 1.110526	 0.963468
H	 -2.617064	 -0.872870	 -0.928010
H	 -3.439525	 0.331102	 0.043462
H	 -2.609427	 -1.002736	 0.818585

	symmetry c1
}
set optking {
	frozen_dihedral = ("
		1 2 3 6
	")
}

ee = optimize('scf')
oeprop('DIPOLE', 'QUADRUPOLE', 'MULLIKEN_CHARGES')
f=open( 'psi4out.xyz', 'w' )
f.write( "16  " )
f.write( str(ee) + "\n" )
f.write( MOL.save_string_xyz() )
f.close()
--------------------------------------------------------------------------

    Molecular point group: c1
  Charge       = 0
  Multiplicity = 1
  Basis Set: CC-PVTZ
  Basis Set:
  @DF-RHF Final Energy:  -212.39993291045707
    Total Energy =                       -212.3999329104572098
    Molecular point group: c1
  Basis Set: CC-PVTZ
  Basis Set:
  Basis Set: CC-PVTZ
  Basis Set:
  @DF-RHF Final Energy:  -212.39997819030228
    Total Energy =                       -212.3999781903021926
  Basis Set: CC-PVTZ
  Basis Set:
  Basis Set: CC-PVTZ
  Basis Set:
  @DF-RHF Final Energy:  -212.39998179322157
    Total Energy =                       -212.3999817932214569
  Basis Set: CC-PVTZ
  Basis Set:
  Charge       = 0
  Multiplicity = 1
  Basis Set: CC-PVTZ
  Basis Set:

    Orbital Energies (a.u.)
    -----------------------

    Doubly Occupied:

       1A    -15.526683     2A    -11.237926     3A    -11.213886
       4A    -11.209808     5A    -11.206602     6A     -1.178610
       7A     -1.061681     8A     -0.960236     9A     -0.844720
      10A     -0.793994    11A     -0.659966    12A     -0.643903
      13A     -0.604829    14A     -0.576168    15A     -0.569260
      16A     -0.523578    17A     -0.504075    18A     -0.470846
      19A     -0.466198    20A     -0.461772    21A     -0.385465

  @DF-RHF Final Energy:  -212.39998219777479

   => Energetics <=

    Nuclear Repulsion Energy =            186.6550326848219186
    One-Electron Energy =                -655.9096240005683285
    Two-Electron Energy =                 256.8546091179715063
    DFT Exchange-Correlation Energy =       0.0000000000000000
    Empirical Dispersion Energy =           0.0000000000000000
    PCM Polarization Energy =               0.0000000000000000
    EFP Energy =                            0.0000000000000000
    Total Energy =                       -212.3999821977749320
    Molecular point group: c1
  Basis Set: CC-PVTZ
  Basis Set:

  -Total Gradient:
     Atom            X                  Y                   Z
    ------   -----------------  -----------------  -----------------
       1       -0.000090976067    -0.000392967364     0.001677112380
       2       -0.000103464484     0.000316569731    -0.002313207774
       3        0.001072199850     0.001130213076     0.001444057613
       4       -0.000005665184    -0.000014810172     0.000021474587
       5       -0.000011063533    -0.000017661052     0.000011191524
       6       -0.000822588628    -0.001010294921    -0.000845109235
       7       -0.000006974494    -0.000002947633    -0.000004772756
       8       -0.000010425772    -0.000000022556     0.000007407323
       9       -0.000000561508    -0.000002945183    -0.000000294289
      10       -0.000012489170    -0.000014807973     0.000005890843
      11        0.000002441570     0.000004419450    -0.000005310554
      12       -0.000003017671     0.000000363238     0.000002732945
      13       -0.000008093131     0.000003523922     0.000004661160
      14       -0.000001019282    -0.000003365182    -0.000001127707
      15        0.000000153705     0.000000280573    -0.000003862248
      16        0.000001543795     0.000004452048    -0.000000843812

  **** Optimization is complete! (in 4 steps) ****
    Final optimized geometry and variables:
    Molecular point group: c1

    Geometry (in Angstrom), charge = 0, multiplicity = 1:

    H            3.273591181949     0.148285020668     0.083443421946
    N            2.433877349309    -0.361885350728    -0.093413677614
    C            1.265724951489     0.497322616527     0.031741035952
    H            2.400576617856    -1.095319175024     0.584466049588
    C           -0.014770514929    -0.323138373461    -0.021947045993
    H            1.269349931605     1.190911219091    -0.802654843164
    H            1.271677231357     1.092811879706     0.944982178027
    C           -1.278615286528     0.528689486742     0.043234797046
    H           -0.011592148833    -0.911103347888    -0.934443104937
    H           -0.018616458644    -1.033267785756     0.803144638046
    C           -2.558717040633    -0.298561323805    -0.009857677440
    H           -1.275673252904     1.238215818735    -0.779603189245
    H           -1.270764551402     1.119627445523     0.955094001804
    H           -2.613059623968    -0.875864738255    -0.926656200578
    H           -3.437503816650     0.334383133679     0.035238371874
    H           -2.609571057152    -0.994596203463     0.820880027584

  Mulliken Charges: (a.u.)
   Center  Symbol    Alpha    Beta     Spin     Total
       1     H     0.43164  0.43164  0.00000  0.13671
       2     N     3.68724  3.68724  0.00000 -0.37448
       3     C     3.02243  3.02243  0.00000 -0.04487
       4     H     0.43191  0.43191  0.00000  0.13619
       5     C     3.08318  3.08318  0.00000 -0.16636
       6     H     0.45830  0.45830  0.00000  0.08341
       7     H     0.46925  0.46925  0.00000  0.06151
       8     C     3.08831  3.08831  0.00000 -0.17662
       9     H     0.44882  0.44882  0.00000  0.10236
      10     H     0.46128  0.46128  0.00000  0.07744
      11     C     3.14915  3.14915  0.00000 -0.29829
      12     H     0.45402  0.45402  0.00000  0.09196
      13     H     0.45616  0.45616  0.00000  0.08768
      14     H     0.45414  0.45414  0.00000  0.09171
      15     H     0.44866  0.44866  0.00000  0.10268
      16     H     0.45552  0.45552  0.00000  0.08896

   Total alpha = 21.00000, Total beta = 21.00000, Total charge = -0.00000
