  ==> Input File <==

--------------------------------------------------------------------------
set {
	reference rhf
	basis 6-31G*
}

set_num_threads( 4 )
memory 2 gb

molecule MOL {
0 1

O	 1.122133	 -0.334818	 0.221242
C	 0.028650	 0.075053	 -0.000277
C	 -1.233602	 -0.752807	 0.000328
O	 -0.228721	 1.345065	 -0.284410
C	 -2.501530	 0.091881	 0.000126
H	 -1.193807	 -1.406641	 -0.865785
H	 -1.193516	 -1.405779	 0.867015
H	 -2.545121	 0.729328	 -0.874513
H	 -3.377167	 -0.548497	 0.000561
H	 -2.544818	 0.730135	 0.874258
C	 0.874563	 2.232312	 -0.318290
H	 1.366534	 2.263372	 0.643173
H	 0.466707	 3.201067	 -0.561252
H	 1.585774	 1.925565	 -1.071654

	symmetry c1
}
set optking {
	frozen_dihedral = ("
		4 2 3 6
	")
}

ee = optimize('scf')
oeprop('DIPOLE', 'QUADRUPOLE', 'MULLIKEN_CHARGES')
f=open( 'psi4out.xyz', 'w' )
f.write( "14  " )
f.write( str(ee) + "\n" )
f.write( MOL.save_string_xyz() )
f.close()
--------------------------------------------------------------------------

    Molecular point group: c1
  Charge       = 0
  Multiplicity = 1
  Basis Set: 6-31G*
  Basis Set:
  @DF-RHF Final Energy:  -305.86844807757143
    Total Energy =                       -305.8684480775713723
    Molecular point group: c1
  Basis Set: 6-31G*
  Basis Set:
  Basis Set: 6-31G*
  Basis Set:
  @DF-RHF Final Energy:  -305.86922291618612
    Total Energy =                       -305.8692229161861178
  Basis Set: 6-31G*
  Basis Set:
  Basis Set: 6-31G*
  Basis Set:
  @DF-RHF Final Energy:  -305.86957220587976
    Total Energy =                       -305.8695722058798765
  Basis Set: 6-31G*
  Basis Set:
  Basis Set: 6-31G*
  Basis Set:
  @DF-RHF Final Energy:  -305.86956360298160
    Total Energy =                       -305.8695636029817138
  Basis Set: 6-31G*
  Basis Set:
  Basis Set: 6-31G*
  Basis Set:
  @DF-RHF Final Energy:  -305.86968121356733
    Total Energy =                       -305.8696812135675600
  Basis Set: 6-31G*
  Basis Set:
  Charge       = 0
  Multiplicity = 1
  Basis Set: 6-31G*
  Basis Set:

    Orbital Energies (a.u.)
    -----------------------

    Doubly Occupied:

       1A    -20.607390     2A    -20.541381     3A    -11.373182
       4A    -11.282279     5A    -11.239051     6A    -11.220932
       7A     -1.471098     8A     -1.361824     9A     -1.066072
      10A     -0.975179    11A     -0.887338    12A     -0.775351
      13A     -0.695173    14A     -0.682910    15A     -0.670846
      16A     -0.621487    17A     -0.585870    18A     -0.558481
      19A     -0.546951    20A     -0.522114    21A     -0.516922
      22A     -0.499088    23A     -0.453774    24A     -0.433566

  @DF-RHF Final Energy:  -305.86968386813408

   => Energetics <=

    Nuclear Repulsion Energy =            248.4496858135471768
    One-Electron Energy =                -909.4622196262846501
    Two-Electron Energy =                 355.1428499446031992
    DFT Exchange-Correlation Energy =       0.0000000000000000
    Empirical Dispersion Energy =           0.0000000000000000
    PCM Polarization Energy =               0.0000000000000000
    EFP Energy =                            0.0000000000000000
    Total Energy =                       -305.8696838681343024
    Molecular point group: c1
  Basis Set: 6-31G*
  Basis Set:

  -Total Gradient:
     Atom            X                  Y                   Z
    ------   -----------------  -----------------  -----------------
       1        0.000012986315    -0.000016031840    -0.000005220809
       2        0.000153412927    -0.000262933421    -0.000381858003
       3       -0.000229392651     0.000411687336    -0.000170053069
       4       -0.000040122709     0.000211532812     0.000317591520
       5       -0.000022479352    -0.000010492950     0.000010111200
       6        0.000185435072    -0.000310625318     0.000237478060
       7       -0.000008983206    -0.000006404233    -0.000005015692
       8       -0.000000105347    -0.000003213455     0.000013038450
       9       -0.000020589988     0.000007471358    -0.000003929662
      10       -0.000003733836    -0.000005225634    -0.000014786944
      11       -0.000018880354    -0.000029769883     0.000008697891
      12        0.000006198531     0.000009359019    -0.000002100753
      13       -0.000015798000    -0.000002455004    -0.000002798945
      14        0.000002052595     0.000007101207    -0.000001153245

  **** Optimization is complete! (in 6 steps) ****
    Final optimized geometry and variables:
    Molecular point group: c1

    Geometry (in Angstrom), charge = 0, multiplicity = 1:

    O            1.407056657529    -0.812869809956     0.283634947930
    C            0.326294492849    -0.365437269385     0.067040962555
    C           -0.934464498145    -1.202289877216     0.066595537730
    O            0.114702945396     0.910551690636    -0.215238386427
    C           -2.256699548058    -0.440569225498     0.069002052320
    H           -0.865478133481    -1.847711707317    -0.804916843298
    H           -0.858816473519    -1.859072539318     0.925702471732
    H           -2.358922588071     0.179337739212    -0.812701499976
    H           -3.083934330462    -1.142141311447     0.088479309112
    H           -2.341246810274     0.201716858825     0.938117373384
    C            1.251063386484     1.755596941581    -0.254544167751
    H            1.749449818476     1.764656024042     0.703841832029
    H            0.878245628056     2.739416004784    -0.493118167562
    H            1.944587234747     1.422365426481    -1.012876273393

  Mulliken Charges: (a.u.)
   Center  Symbol    Alpha    Beta     Spin     Total
       1     O     4.28819  4.28819  0.00000 -0.57637
       2     C     2.60732  2.60732  0.00000  0.78536
       3     C     3.20845  3.20845  0.00000 -0.41691
       4     O     4.30385  4.30385  0.00000 -0.60770
       5     C     3.23848  3.23848  0.00000 -0.47695
       6     H     0.39833  0.39833  0.00000  0.20333
       7     H     0.39702  0.39702  0.00000  0.20595
       8     H     0.41026  0.41026  0.00000  0.17948
       9     H     0.41665  0.41665  0.00000  0.16670
      10     H     0.41402  0.41402  0.00000  0.17195
      11     C     3.09284  3.09284  0.00000 -0.18567
      12     H     0.40791  0.40791  0.00000  0.18418
      13     H     0.40850  0.40850  0.00000  0.18301
      14     H     0.40817  0.40817  0.00000  0.18365

   Total alpha = 24.00000, Total beta = 24.00000, Total charge = -0.00000
