                              Psi4 1.0.54 Driver

  ==> Input File <==

--------------------------------------------------------------------------
set {
	reference rhf
	basis cc-pvtz
}

set_num_threads( 4 )
memory 2 gb

molecule MOL {
0 1

O	 0.074770	 1.259872	 0.000487
C	 0.029490	 0.077183	 0.000078
C	 -1.232113	 -0.748027	 0.000015
O	 1.106773	 -0.690081	 -0.000204
C	 -2.501422	 0.088592	 -0.000052
H	 -1.188777	 -1.400384	 -0.865133
H	 -1.188857	 -1.400312	 0.865225
H	 -2.548170	 0.725504	 -0.873205
H	 -3.371613	 -0.556398	 -0.000040
H	 -2.548215	 0.725571	 0.873047
C	 1.270999	 -1.577640	 -1.087821
H	 0.447419	 -2.274294	 -1.139049
H	 2.193450	 -2.104592	 -0.905527
H	 1.330309	 -1.033072	 -2.018505

	symmetry c1
}
set optking {
	frozen_dihedral = ("
		11 4 2 3
	")
}

ee,wfn = optimize('scf', return_wfn=True)
oeprop( wfn, 'DIPOLE', 'QUADRUPOLE', 'MULLIKEN_CHARGES')
f=open( 'psi4out.xyz', 'w' )
f.write( "14  " )
f.write( str(ee) + "\n" )
f.write( MOL.save_string_xyz() )
f.close()
--------------------------------------------------------------------------

    Molecular point group: c1
  Charge       = 0
  Multiplicity = 1
  Basis Set: CC-PVTZ
  Basis Set:
  @DF-RHF Final Energy:  -305.96347735145622
    Total Energy =                       -305.9634773514561630
    Molecular point group: c1
  Basis Set: CC-PVTZ
  Basis Set:
  Basis Set: CC-PVTZ
  Basis Set:
  @DF-RHF Final Energy:  -305.96568573872196
    Total Energy =                       -305.9656857387219588
  Basis Set: CC-PVTZ
  Basis Set:
  Basis Set: CC-PVTZ
  Basis Set:
  @DF-RHF Final Energy:  -305.96804154098584
    Total Energy =                       -305.9680415409858369
  Basis Set: CC-PVTZ
  Basis Set:
  Basis Set: CC-PVTZ
  Basis Set:
  @DF-RHF Final Energy:  -305.96826775079307
    Total Energy =                       -305.9682677507930748
  Basis Set: CC-PVTZ
  Basis Set:
  Basis Set: CC-PVTZ
  Basis Set:
  @DF-RHF Final Energy:  -305.96824511239754
    Total Energy =                       -305.9682451123975966
  Basis Set: CC-PVTZ
  Basis Set:
  Basis Set: CC-PVTZ
  Basis Set:
  @DF-RHF Final Energy:  -305.96841232384742
    Total Energy =                       -305.9684123238474172
  Basis Set: CC-PVTZ
  Basis Set:
  Basis Set: CC-PVTZ
  Basis Set:
  @DF-RHF Final Energy:  -305.96841504111535
    Total Energy =                       -305.9684150411154064
  Basis Set: CC-PVTZ
  Basis Set:
  Charge       = 0
  Multiplicity = 1
  Basis Set: CC-PVTZ
  Basis Set:

    Orbital Energies (a.u.)
    -----------------------

    Doubly Occupied:

       1A    -20.583955     2A    -20.541354     3A    -11.367738
       4A    -11.292555     5A    -11.244009     6A    -11.218767
       7A     -1.463108     8A     -1.371131     9A     -1.063481
      10A     -0.980614    11A     -0.897311    12A     -0.768397
      13A     -0.704119    14A     -0.682189    15A     -0.676714
      16A     -0.629331    17A     -0.612891    18A     -0.560216
      19A     -0.548179    20A     -0.525905    21A     -0.513287
      22A     -0.493336    23A     -0.459632    24A     -0.438993

  @DF-RHF Final Energy:  -305.96841563899011

   => Energetics <=

    Nuclear Repulsion Energy =            247.3441772808976964
    One-Electron Energy =                -907.3507635203371819
    Two-Electron Energy =                 354.0381706004488365
    DFT Exchange-Correlation Energy =       0.0000000000000000
    Empirical Dispersion Energy =           0.0000000000000000
    PCM Polarization Energy =               0.0000000000000000
    EFP Energy =                            0.0000000000000000
    Total Energy =                       -305.9684156389906207
    Molecular point group: c1
  Basis Set: CC-PVTZ
  Basis Set:

  -Total Gradient:
     Atom            X                  Y                   Z
    ------   -----------------  -----------------  -----------------
       1       -0.000013460842    -0.000010470844     0.000084402872
       2        0.000517472123     0.000578069629    -0.004787437874
       3        0.000066666446     0.000330401077     0.002507266784
       4       -0.001783670857    -0.002806895235     0.003798182449
       5        0.000008245680    -0.000017232519     0.000014382760
       6        0.000023573120    -0.000004946316     0.000016385396
       7        0.000009485929    -0.000011471739     0.000020352104
       8       -0.000007105234     0.000009144450    -0.000010755697
       9        0.000002885321     0.000005179444    -0.000001486978
      10        0.000001281650    -0.000003796332    -0.000002404736
      11        0.001225365031     0.001886022263    -0.001624432089
      12        0.000014013616     0.000017666011    -0.000007151073
      13       -0.000055380160     0.000018696609    -0.000010759374
      14       -0.000009371825     0.000009633502     0.000003455456

  **** Optimization is complete! (in 8 steps) ****
    Final optimized geometry and variables:
    Molecular point group: c1

    Geometry (in Angstrom), charge = 0, multiplicity = 1:

    O            0.196031164445     1.520970694073     0.041945333378
    C            0.184211775166     0.346231794893     0.095911431459
    C           -1.073769997652    -0.481534439099     0.230183088174
    O            1.338849675882    -0.340482432556     0.148552211179
    C           -2.335920903146     0.358258781187     0.350295010319
    H           -1.143435889416    -1.147357233918    -0.623611398644
    H           -0.939619138559    -1.120120858431     1.096964080008
    H           -2.470985260988     0.983092132760    -0.522047462885
    H           -3.202068315997    -0.284585304675     0.449702693470
    H           -2.289322217595     1.007035868801     1.214220557278
    C            1.597983575825    -1.345012972720    -0.802725203090
    H            0.981562547786    -2.221054780347    -0.644311692487
    H            2.633058109615    -1.619154614584    -0.680663520460
    H            1.449448088607    -0.972922062586    -1.809330312373

  Mulliken Charges: (a.u.)
   Center  Symbol    Alpha    Beta     Spin     Total
       1     O     4.16781  4.16781  0.00000 -0.33562
       2     C     2.79986  2.79986  0.00000  0.40028
       3     C     3.11513  3.11513  0.00000 -0.23026
       4     O     4.15075  4.15075  0.00000 -0.30151
       5     C     3.13871  3.13871  0.00000 -0.27742
       6     H     0.44697  0.44697  0.00000  0.10606
       7     H     0.43678  0.43678  0.00000  0.12645
       8     H     0.44719  0.44719  0.00000  0.10563
       9     H     0.45107  0.45107  0.00000  0.09786
      10     H     0.44569  0.44569  0.00000  0.10861
      11     C     3.04435  3.04435  0.00000 -0.08869
      12     H     0.46103  0.46103  0.00000  0.07793
      13     H     0.43675  0.43675  0.00000  0.12650
      14     H     0.45791  0.45791  0.00000  0.08417

   Total alpha = 24.00000, Total beta = 24.00000, Total charge = -0.00000

*** Psi4 exiting successfully. Buy a developer a beer!
