  ==> Input File <==

--------------------------------------------------------------------------
set {
	reference rhf
	basis 6-31G*
}

set_num_threads( 4 )
memory 2 gb

molecule MOL {
0 1

H	 -2.480252	 -0.367224	 -0.644784
N	 -1.852125	 0.165761	 -0.074816
C	 -0.563778	 -0.502042	 0.037919
H	 -2.282358	 0.253572	 0.826264
C	 0.575259	 0.508231	 -0.048326
H	 -0.482092	 -1.204004	 -0.786564
H	 -0.460411	 -1.085169	 0.956626
C	 1.954651	 -0.143624	 0.035137
H	 0.475158	 1.060484	 -0.977307
H	 0.469181	 1.234488	 0.755973
H	 2.103292	 -0.853109	 -0.774172
H	 2.742821	 0.599562	 -0.030094
H	 2.083613	 -0.679371	 0.971560

	symmetry c1
}
set optking {
	frozen_dihedral = ("
		1 2 3 6
	")
}

ee = optimize('scf')
oeprop('DIPOLE', 'QUADRUPOLE', 'MULLIKEN_CHARGES')
f=open( 'psi4out.xyz', 'w' )
f.write( "13  " )
f.write( str(ee) + "\n" )
f.write( MOL.save_string_xyz() )
f.close()
--------------------------------------------------------------------------

    Molecular point group: c1
  Charge       = 0
  Multiplicity = 1
  Basis Set: 6-31G*
  Basis Set:
  @DF-RHF Final Energy:  -173.27978433031288
    Total Energy =                       -173.2797843303129071
    Molecular point group: c1
  Basis Set: 6-31G*
  Basis Set:
  Basis Set: 6-31G*
  Basis Set:
  @DF-RHF Final Energy:  -173.28011070123171
    Total Energy =                       -173.2801107012317630
  Basis Set: 6-31G*
  Basis Set:
  Basis Set: 6-31G*
  Basis Set:
  @DF-RHF Final Energy:  -173.28021880089059
    Total Energy =                       -173.2802188008906512
  Basis Set: 6-31G*
  Basis Set:
  Basis Set: 6-31G*
  Basis Set:
  @DF-RHF Final Energy:  -173.28022139666820
    Total Energy =                       -173.2802213966681961
  Basis Set: 6-31G*
  Basis Set:
  Basis Set: 6-31G*
  Basis Set:
  @DF-RHF Final Energy:  -173.28022250790940
    Total Energy =                       -173.2802225079094001
  Basis Set: 6-31G*
  Basis Set:
  Charge       = 0
  Multiplicity = 1
  Basis Set: 6-31G*
  Basis Set:

    Orbital Energies (a.u.)
    -----------------------

    Doubly Occupied:

       1A    -15.530628     2A    -11.240517     3A    -11.206527
       4A    -11.205917     5A     -1.173333     6A     -1.032408
       7A     -0.897912     8A     -0.795164     9A     -0.673113
      10A     -0.614851    11A     -0.602085    12A     -0.571753
      13A     -0.519580    14A     -0.489562    15A     -0.483751
      16A     -0.463591    17A     -0.376134

  @DF-RHF Final Energy:  -173.28022264663417

   => Energetics <=

    Nuclear Repulsion Energy =            131.4819835994206869
    One-Electron Energy =                -493.7707662531620940
    Two-Electron Energy =                 189.0085600071071497
    DFT Exchange-Correlation Energy =       0.0000000000000000
    Empirical Dispersion Energy =           0.0000000000000000
    PCM Polarization Energy =               0.0000000000000000
    EFP Energy =                            0.0000000000000000
    Total Energy =                       -173.2802226466342574
    Molecular point group: c1
  Basis Set: 6-31G*
  Basis Set:

  -Total Gradient:
     Atom            X                  Y                   Z
    ------   -----------------  -----------------  -----------------
       1        0.000795007586     0.001291698557    -0.002177675629
       2       -0.001219223999    -0.002037734655     0.003060737608
       3        0.001371280699     0.002459050968    -0.002256541143
       4        0.000002693319     0.000000354054    -0.000001826268
       5       -0.000007256762    -0.000015235273    -0.000022740437
       6       -0.000952050815    -0.001699400985     0.001380409819
       7       -0.000005308331    -0.000015189156     0.000012528595
       8        0.000006065312     0.000012199028     0.000005397800
       9        0.000005304640     0.000006031066     0.000001359855
      10        0.000000711139     0.000001204992     0.000001938878
      11        0.000000591524     0.000001589471    -0.000004488875
      12        0.000003431097    -0.000004301623     0.000003073992
      13       -0.000001245408    -0.000000266446    -0.000002174195

  **** Optimization is complete! (in 6 steps) ****
    Final optimized geometry and variables:
    Molecular point group: c1

    Geometry (in Angstrom), charge = 0, multiplicity = 1:

    H           -2.507294548673    -0.370378117121    -0.604176300815
    N           -1.859066852162     0.158209053428    -0.057939435053
    C           -0.557445744246    -0.494362558018     0.027164868399
    H           -2.262533455435     0.312308281604     0.843401809819
    C            0.581022676154     0.518451085411    -0.043678223743
    H           -0.470253393757    -1.205657481537    -0.789129305179
    H           -0.457232941515    -1.083648439437     0.940017496436
    C            1.960990366917    -0.130893265999     0.050343427380
    H            0.488353471896     1.075843719464    -0.970674756574
    H            0.457890294832     1.240143558223     0.760555790889
    H            2.120499112433    -0.837236228630    -0.760192027969
    H            2.749217715339     0.613278610713    -0.003169801506
    H            2.081976922688    -0.671160182048     0.985589027786

  Mulliken Charges: (a.u.)
   Center  Symbol    Alpha    Beta     Spin     Total
       1     H     0.33027  0.33027  0.00000  0.33946
       2     N     3.92822  3.92822  0.00000 -0.85644
       3     C     3.06367  3.06367  0.00000 -0.12734
       4     H     0.33171  0.33171  0.00000  0.33659
       5     C     3.14085  3.14085  0.00000 -0.28170
       6     H     0.42378  0.42378  0.00000  0.15244
       7     H     0.43090  0.43090  0.00000  0.13820
       8     C     3.24585  3.24585  0.00000 -0.49171
       9     H     0.41679  0.41679  0.00000  0.16642
      10     H     0.42396  0.42396  0.00000  0.15209
      11     H     0.42283  0.42283  0.00000  0.15433
      12     H     0.41793  0.41793  0.00000  0.16414
      13     H     0.42324  0.42324  0.00000  0.15352

   Total alpha = 17.00000, Total beta = 17.00000, Total charge = -0.00000
