                              Psi4 1.0.54 Driver

  ==> Input File <==

--------------------------------------------------------------------------
set {
	reference rhf
	basis cc-pvtz
}

set_num_threads( 4 )
memory 2 gb

molecule MOL {
0 1

O	 -2.286264	 -2.729695	 0.660298
C	 -1.492671	 -3.051143	 -0.163299
C	 -0.558340	 -2.033830	 -0.787916
C	 -1.358709	 -4.485470	 -0.616653
C	 0.675207	 -1.804558	 0.094489
H	 -1.106944	 -1.106457	 -0.893386
H	 -0.250017	 -2.362215	 -1.774813
C	 1.630207	 -0.772146	 -0.501001
H	 0.338237	 -1.489166	 1.073880
H	 1.206232	 -2.743215	 0.233174
C	 2.907848	 -0.545876	 0.309149
H	 1.106327	 0.173506	 -0.616202
H	 1.907648	 -1.090027	 -1.502291
C	 3.373802	 0.906639	 0.372125
H	 3.699140	 -1.146831	 -0.127906
H	 2.764321	 -0.923458	 1.318191
H	 3.519798	 1.311927	 -0.623875
H	 4.316899	 0.983758	 0.900700
H	 2.661122	 1.540651	 0.885346
H	 -1.682795	 -4.564911	 -1.649443
H	 -1.965168	 -5.129259	 0.001661
H	 -0.322679	 -4.803200	 -0.580897

	symmetry c1
}
set optking {
	frozen_dihedral = ("
		12 8 11 15
	")
}

ee,wfn = optimize('scf', return_wfn=True)
oeprop( wfn, 'DIPOLE', 'QUADRUPOLE', 'MULLIKEN_CHARGES')
f=open( 'psi4out.xyz', 'w' )
f.write( "22  " )
f.write( str(ee) + "\n" )
f.write( MOL.save_string_xyz() )
f.close()
--------------------------------------------------------------------------

    Molecular point group: c1
  Charge       = 0
  Multiplicity = 1
  Basis Set: CC-PVTZ
  Basis Set:
  @DF-RHF Final Energy:  -348.22073020397085
    Total Energy =                       -348.2207302039706747
    Molecular point group: c1
  Basis Set: CC-PVTZ
  Basis Set:
  Basis Set: CC-PVTZ
  Basis Set:
  @DF-RHF Final Energy:  -348.22114055246658
    Total Energy =                       -348.2211405524669203
  Basis Set: CC-PVTZ
  Basis Set:
  Basis Set: CC-PVTZ
  Basis Set:
  @DF-RHF Final Energy:  -348.22109460009710
    Total Energy =                       -348.2210946000975582
  Basis Set: CC-PVTZ
  Basis Set:
  Basis Set: CC-PVTZ
  Basis Set:
  @DF-RHF Final Energy:  -348.22112310855823
    Total Energy =                       -348.2211231085586292
  Basis Set: CC-PVTZ
  Basis Set:
  Basis Set: CC-PVTZ
  Basis Set:
  @DF-RHF Final Energy:  -348.22118282882349
    Total Energy =                       -348.2211828288236575
  Basis Set: CC-PVTZ
  Basis Set:
  Basis Set: CC-PVTZ
  Basis Set:
  @DF-RHF Final Energy:  -348.22113550853646
    Total Energy =                       -348.2211355085365767
  Basis Set: CC-PVTZ
  Basis Set:
  Basis Set: CC-PVTZ
  Basis Set:
  @DF-RHF Final Energy:  -348.22119073870681
    Total Energy =                       -348.2211907387071506
  Basis Set: CC-PVTZ
  Basis Set:
  Charge       = 0
  Multiplicity = 1
  Basis Set: CC-PVTZ
  Basis Set:

    Orbital Energies (a.u.)
    -----------------------

    Doubly Occupied:

       1A    -20.536784     2A    -11.319325     3A    -11.228939
       4A    -11.227596     5A    -11.226901     6A    -11.220154
       7A    -11.218712     8A    -11.210595     9A     -1.396917
      10A     -1.096620    11A     -1.046345    12A     -1.001630
      13A     -0.939586    14A     -0.847078    15A     -0.799454
      16A     -0.733952    17A     -0.665278    18A     -0.648345
      19A     -0.632374    20A     -0.611633    21A     -0.598524
      22A     -0.583558    23A     -0.561063    24A     -0.555135
      25A     -0.529631    26A     -0.515217    27A     -0.501266
      28A     -0.488835    29A     -0.475701    30A     -0.464593
      31A     -0.461546    32A     -0.398462

  @DF-RHF Final Energy:  -348.22119140797537

   => Energetics <=

    Nuclear Repulsion Energy =            369.4386086032112075
    One-Electron Energy =               -1203.8361054488746049
    Two-Electron Energy =                 486.1763054376887681
    DFT Exchange-Correlation Energy =       0.0000000000000000
    Empirical Dispersion Energy =           0.0000000000000000
    PCM Polarization Energy =               0.0000000000000000
    EFP Energy =                            0.0000000000000000
    Total Energy =                       -348.2211914079746862
    Molecular point group: c1
  Basis Set: CC-PVTZ
  Basis Set:

  -Total Gradient:
     Atom            X                  Y                   Z
    ------   -----------------  -----------------  -----------------
       1        0.000009343436     0.000005001990    -0.000004374269
       2        0.000033224854    -0.000026764911     0.000008246192
       3       -0.000001798930    -0.000002940894    -0.000012534061
       4       -0.000041077001     0.000005985594    -0.000017181893
       5       -0.000018502481     0.000013679260    -0.000005155650
       6       -0.000001941724    -0.000008910521    -0.000003512158
       7       -0.000007018700     0.000002084316     0.000010533635
       8       -0.002290173509    -0.000166191040     0.003668102152
       9        0.000005806306     0.000000398776    -0.000018681205
      10        0.000005481775     0.000006915936    -0.000000348485
      11       -0.000778215250    -0.003609884303     0.002112415890
      12        0.002024463964     0.000697916666    -0.003399547141
      13       -0.000013512632    -0.000004721867     0.000017252760
      14        0.000011981792    -0.000002469442     0.000015808421
      15        0.001034426487     0.003073451103    -0.002375418247
      16        0.000005604357     0.000011772637    -0.000009283229
      17       -0.000008504425    -0.000012021962     0.000006536127
      18        0.000000987987     0.000002573559    -0.000001445944
      19        0.000006136983    -0.000010701292    -0.000003792147
      20        0.000009636941     0.000000423616     0.000005511482
      21        0.000007001354     0.000015106354    -0.000001630572
      22        0.000006648422     0.000009296423     0.000008498343

  **** Optimization is complete! (in 8 steps) ****
    Final optimized geometry and variables:
    Molecular point group: c1

    Geometry (in Angstrom), charge = 0, multiplicity = 1:

    O           -2.646047916866    -0.917483939525     0.769100684587
    C           -1.862435356618    -1.234428044787    -0.065598213143
    C           -0.940999058102    -0.212703895063    -0.701640386550
    C           -1.730261141065    -2.667271150627    -0.523990601632
    C            0.314631721066     0.004274949070     0.151131531578
    H           -1.489424219934     0.717013305341    -0.783924256283
    H           -0.657743335820    -0.531791175691    -1.699099643300
    C            1.257177348869     1.046242777106    -0.441213560957
    H            0.010594465773     0.311165715988     1.145831928918
    H            0.848725781754    -0.935709673245     0.265901756414
    C            2.546328871917     1.247596355971     0.372371646457
    H            0.739954407897     1.994748767907    -0.552365076872
    H            1.519913397682     0.750894097602    -1.453707619533
    C            3.015974272912     2.700342242363     0.394020584935
    H            3.341252823518     0.646316346566    -0.056475208857
    H            2.401373594840     0.905398033438     1.391644942592
    H            3.179308058924     3.072392788420    -0.612246754565
    H            3.946949065800     2.804174403888     0.939537648930
    H            2.279929881496     3.341809305528     0.866646212912
    H           -2.073469919075    -2.745781941888    -1.550634933018
    H           -2.322746064254    -3.314569134947     0.104070153724
    H           -0.692632972966    -2.981195321871    -0.508264222183

  Mulliken Charges: (a.u.)
   Center  Symbol    Alpha    Beta     Spin     Total
       1     O     4.17779  4.17779  0.00000 -0.35559
       2     C     2.85829  2.85829  0.00000  0.28342
       3     C     3.09877  3.09877  0.00000 -0.19753
       4     C     3.15525  3.15525  0.00000 -0.31051
       5     C     3.10126  3.10126  0.00000 -0.20251
       6     H     0.43873  0.43873  0.00000  0.12253
       7     H     0.44918  0.44918  0.00000  0.10164
       8     C     3.09217  3.09217  0.00000 -0.18433
       9     H     0.44073  0.44073  0.00000  0.11853
      10     H     0.45082  0.45082  0.00000  0.09837
      11     C     3.08643  3.08643  0.00000 -0.17287
      12     H     0.45114  0.45114  0.00000  0.09773
      13     H     0.45295  0.45295  0.00000  0.09410
      14     C     3.14839  3.14839  0.00000 -0.29677
      15     H     0.45243  0.45243  0.00000  0.09514
      16     H     0.45278  0.45278  0.00000  0.09444
      17     H     0.45459  0.45459  0.00000  0.09082
      18     H     0.44879  0.44879  0.00000  0.10243
      19     H     0.45426  0.45426  0.00000  0.09148
      20     H     0.44834  0.44834  0.00000  0.10332
      21     H     0.43603  0.43603  0.00000  0.12794
      22     H     0.45088  0.45088  0.00000  0.09823

   Total alpha = 32.00000, Total beta = 32.00000, Total charge = -0.00000

*** Psi4 exiting successfully. Buy a developer a beer!
