                              Psi4 1.0.54 Driver

  ==> Input File <==

--------------------------------------------------------------------------
set {
	reference rhf
	basis cc-pvtz
}

set_num_threads( 4 )
memory 2 gb

molecule MOL {
0 1

O	 2.868453	 1.353349	 -0.000734
C	 2.841259	 0.166180	 -0.000295
C	 1.542794	 -0.614730	 -0.000853
C	 4.113372	 -0.651103	 0.000743
C	 0.288398	 0.247429	 0.000314
H	 1.557171	 -1.273139	 -0.866508
H	 1.557484	 -1.274998	 0.863344
C	 -0.414239	 0.258994	 1.355039
H	 -0.390918	 -0.112321	 -0.764032
H	 0.552057	 1.258995	 -0.286654
C	 -1.674022	 1.119845	 1.369608
H	 -0.673512	 -0.758975	 1.637511
H	 0.273607	 0.618973	 2.116973
C	 -2.382741	 1.136258	 2.720972
H	 -2.362315	 0.760632	 0.608469
H	 -1.415753	 2.137784	 1.088140
C	 -3.640651	 1.998469	 2.727643
H	 -2.642334	 0.119277	 3.002573
H	 -1.695882	 1.496398	 3.482184
H	 -4.362689	 1.642632	 2.000262
H	 -4.119074	 1.988353	 3.700284
H	 -3.409217	 3.029955	 2.483680
H	 4.145311	 -1.294584	 -0.871587
H	 4.970080	 0.004978	 -0.000091
H	 4.145223	 -1.291980	 0.874988

	symmetry c1
}
set optking {
	frozen_dihedral = ("
		9 5 3 6
	")
}

ee,wfn = optimize('scf', return_wfn=True)
oeprop( wfn, 'DIPOLE', 'QUADRUPOLE', 'MULLIKEN_CHARGES')
f=open( 'psi4out.xyz', 'w' )
f.write( "25  " )
f.write( str(ee) + "\n" )
f.write( MOL.save_string_xyz() )
f.close()
--------------------------------------------------------------------------

    Molecular point group: c1
  Charge       = 0
  Multiplicity = 1
  Basis Set: CC-PVTZ
  Basis Set:
  @DF-RHF Final Energy:  -387.27068641112703
    Total Energy =                       -387.2706864111271443
    Molecular point group: c1
  Basis Set: CC-PVTZ
  Basis Set:
  Basis Set: CC-PVTZ
  Basis Set:
  @DF-RHF Final Energy:  -387.27098287166672
    Total Energy =                       -387.2709828716666607
  Basis Set: CC-PVTZ
  Basis Set:
  Basis Set: CC-PVTZ
  Basis Set:
  @DF-RHF Final Energy:  -387.27075345018875
    Total Energy =                       -387.2707534501895452
  Basis Set: CC-PVTZ
  Basis Set:
  Basis Set: CC-PVTZ
  Basis Set:
  @DF-RHF Final Energy:  -387.27106514257662
    Total Energy =                       -387.2710651425759352
  Basis Set: CC-PVTZ
  Basis Set:
  @DF-RHF Final Energy:  -387.27107974351441
    Total Energy =                       -387.2710797435140648
  @DF-RHF Final Energy:  -387.27108477116576
    Total Energy =                       -387.2710847711659881
  @DF-RHF Final Energy:  -387.27108854070804
    Total Energy =                       -387.2710885407082060
  @DF-RHF Final Energy:  -387.27109199660202
    Total Energy =                       -387.2710919966020811
  Basis Set: CC-PVTZ
  Basis Set:
  @DF-RHF Final Energy:  -387.27109367451231
    Total Energy =                       -387.2710936745121444
  Basis Set: CC-PVTZ
  Basis Set:
  Basis Set: CC-PVTZ
  Basis Set:
  @DF-RHF Final Energy:  -387.27109502061325
    Total Energy =                       -387.2710950206135294
  Basis Set: CC-PVTZ
  Basis Set:
  Basis Set: CC-PVTZ
  Basis Set:
  @DF-RHF Final Energy:  -387.27109817792086
    Total Energy =                       -387.2710981779221129
  Basis Set: CC-PVTZ
  Basis Set:
  Charge       = 0
  Multiplicity = 1
  Basis Set: CC-PVTZ
  Basis Set:

    Orbital Energies (a.u.)
    -----------------------

    Doubly Occupied:

       1A    -20.539902     2A    -11.321936     3A    -11.230292
       4A    -11.227183     5A    -11.213622     6A    -11.212050
       7A    -11.211265     8A    -11.209035     9A    -11.204646
      10A     -1.400191    11A     -1.092429    12A     -1.055969
      13A     -1.015218    14A     -0.968519    15A     -0.890714
      16A     -0.815484    17A     -0.789388    18A     -0.730951
      19A     -0.669682    20A     -0.641256    21A     -0.634503
      22A     -0.623828    23A     -0.593804    24A     -0.584360
      25A     -0.575014    26A     -0.558737    27A     -0.533478
      28A     -0.526691    29A     -0.516403    30A     -0.499390
      31A     -0.482943    32A     -0.472676    33A     -0.462002
      34A     -0.459758    35A     -0.444158    36A     -0.404279

  @DF-RHF Final Energy:  -387.27109857384818

   => Energetics <=

    Nuclear Repulsion Energy =            443.8198919016371633
    One-Electron Energy =               -1404.5584716729467800
    Two-Electron Energy =                 573.4674811974612112
    DFT Exchange-Correlation Energy =       0.0000000000000000
    Empirical Dispersion Energy =           0.0000000000000000
    PCM Polarization Energy =               0.0000000000000000
    EFP Energy =                            0.0000000000000000
    Total Energy =                       -387.2710985738483487
    Molecular point group: c1
  Basis Set: CC-PVTZ
  Basis Set:

  -Total Gradient:
     Atom            X                  Y                   Z
    ------   -----------------  -----------------  -----------------
       1       -0.000008531367    -0.000043374708    -0.000003965518
       2        0.000222787030    -0.000012191700     0.000071624747
       3        0.001602273406     0.002895929448    -0.002427807119
       4        0.000002788565     0.000248519521    -0.000120431439
       5       -0.001106292751    -0.002711790212     0.002636047501
       6       -0.001339837755    -0.002051021993     0.001736925932
       7        0.000219754701    -0.000121910133    -0.000128619485
       8       -0.000123411807     0.000007247457    -0.000075924494
       9        0.000921369833     0.001967758463    -0.001894715248
      10       -0.000291951369    -0.000061762234    -0.000015654857
      11       -0.000101630397     0.000011607329     0.000120405632
      12        0.000005306254    -0.000013127029    -0.000009125288
      13       -0.000004822756     0.000032474823    -0.000009345754
      14       -0.000020396117     0.000013482122    -0.000031319556
      15        0.000020381753    -0.000003817692     0.000002372087
      16        0.000008801174     0.000021389538     0.000003254070
      17        0.000013788200    -0.000011436102    -0.000007770069
      18       -0.000001061642    -0.000002474004     0.000007078781
      19        0.000003549557     0.000003843442     0.000000211207
      20        0.000001460823     0.000000980574     0.000002563527
      21        0.000003235947    -0.000001478471    -0.000001986900
      22        0.000000149471    -0.000003271891     0.000001091635
      23       -0.000023099153    -0.000084410369    -0.000010981016
      24       -0.000027580944    -0.000021245315     0.000031269818
      25        0.000022969345    -0.000059920864     0.000124801803

  **** Optimization is complete! (in 12 steps) ****
    Final optimized geometry and variables:
    Molecular point group: c1

    Geometry (in Angstrom), charge = 0, multiplicity = 1:

    O            2.493433707462     0.746291093188    -0.788586081959
    C            2.456271541037    -0.436963989119    -0.877866435493
    C            1.155580380616    -1.217666837310    -0.909388460227
    C            3.722843480893    -1.258983951723    -0.955285275713
    C           -0.121811612862    -0.371298828784    -0.920741432202
    H            1.189320665575    -1.901349094986    -1.751783548423
    H            1.175431298035    -1.870091070299    -0.038653266602
    C           -0.820490592928    -0.300713606449     0.434444438010
    H           -0.804146166442    -0.758082736675    -1.670442079895
    H            0.131089545787     0.631445426871    -1.238655360168
    C           -2.069716555168     0.574279889371     0.421802500629
    H           -1.088195821207    -1.304714750201     0.756832261837
    H           -0.120865194741     0.083337629578     1.172481864711
    C           -2.773507126437     0.646652830440     1.773871421874
    H           -2.765625761696     0.196411544267    -0.323959755039
    H           -1.799308148930     1.578177007596     0.104503476913
    C           -4.020694484151     1.524010262340     1.754105774612
    H           -3.044539303386    -0.356484893594     2.092284377090
    H           -2.079275111202     1.025215615889     2.519026971221
    H           -4.750032812108     1.151664498105     1.042243911800
    H           -4.495552745117     1.554369746574     2.728115241666
    H           -3.777273345859     2.543182850297     1.473041419236
    H            3.761901502547    -1.789161223717    -1.900685630953
    H            4.583614533970    -0.614518570804    -0.865883828253
    H            3.738878880462    -2.003700079503    -0.167171884875

  Mulliken Charges: (a.u.)
   Center  Symbol    Alpha    Beta     Spin     Total
       1     O     4.17170  4.17170  0.00000 -0.34340
       2     C     2.85872  2.85872  0.00000  0.28255
       3     C     3.12459  3.12459  0.00000 -0.24918
       4     C     3.15073  3.15073  0.00000 -0.30146
       5     C     3.09782  3.09782  0.00000 -0.19563
       6     H     0.43500  0.43500  0.00000  0.13001
       7     H     0.44400  0.44400  0.00000  0.11199
       8     C     3.08799  3.08799  0.00000 -0.17597
       9     H     0.44724  0.44724  0.00000  0.10552
      10     H     0.43988  0.43988  0.00000  0.12023
      11     C     3.08884  3.08884  0.00000 -0.17769
      12     H     0.45693  0.45693  0.00000  0.08614
      13     H     0.45076  0.45076  0.00000  0.09849
      14     C     3.08380  3.08380  0.00000 -0.16760
      15     H     0.45633  0.45633  0.00000  0.08733
      16     H     0.45133  0.45133  0.00000  0.09735
      17     C     3.15052  3.15052  0.00000 -0.30104
      18     H     0.45596  0.45596  0.00000  0.08808
      19     H     0.45397  0.45397  0.00000  0.09205
      20     H     0.45573  0.45573  0.00000  0.08853
      21     H     0.44876  0.44876  0.00000  0.10248
      22     H     0.45435  0.45435  0.00000  0.09131
      23     H     0.44964  0.44964  0.00000  0.10073
      24     H     0.43532  0.43532  0.00000  0.12936
      25     H     0.45009  0.45009  0.00000  0.09983

   Total alpha = 36.00000, Total beta = 36.00000, Total charge = -0.00000

*** Psi4 exiting successfully. Buy a developer a beer!
