  ==> Input File <==

--------------------------------------------------------------------------
set {
	reference rhf
	basis cc-pvtz
}

set_num_threads( 4 )
memory 2 gb

molecule MOL {
0 1

H	 -3.268214	 -0.875720	 0.463107
C	 -2.806015	 0.000007	 0.024886
N	 -1.391133	 0.000016	 0.301321
H	 -3.029448	 0.000055	 -1.045738
H	 -3.268126	 0.875758	 0.463150
C	 -0.806393	 1.317841	 0.178874
C	 -0.672148	 -0.959475	 -0.508598
H	 -0.904391	 1.704548	 -0.839803
H	 -1.332465	 1.997556	 0.838662
C	 0.662615	 1.290214	 0.557378
H	 -1.100206	 -1.942288	 -0.350694
H	 -0.760991	 -0.728008	 -1.574139
C	 0.796860	 -0.987101	 -0.130094
H	 1.090674	 2.273028	 0.399474
H	 0.751458	 1.058748	 1.622919
N	 1.381600	 0.330723	 -0.252541
H	 1.322932	 -1.666816	 -0.789883
H	 0.894859	 -1.373808	 0.888583
C	 2.796482	 0.330732	 0.023894
H	 3.204916	 1.320259	 -0.139144
H	 3.303567	 -0.353806	 -0.644563
H	 3.028461	 0.034361	 1.050786

	symmetry c1
}
set optking {
	frozen_dihedral = ("
		6 3 2 4
	")
}

ee = optimize('scf')
oeprop('DIPOLE', 'QUADRUPOLE', 'MULLIKEN_CHARGES')
f=open( 'psi4out.xyz', 'w' )
f.write( "22  " )
f.write( str(ee) + "\n" )
f.write( MOL.save_string_xyz() )
f.close()
--------------------------------------------------------------------------

    Molecular point group: c1
  Charge       = 0
  Multiplicity = 1
  Basis Set: CC-PVTZ
  Basis Set:
  @DF-RHF Final Energy:  -344.34949953046345
    Total Energy =                       -344.3494995304633903
    Molecular point group: c1
  Basis Set: CC-PVTZ
  Basis Set:
  Basis Set: CC-PVTZ
  Basis Set:
  @DF-RHF Final Energy:  -344.34966314542430
    Total Energy =                       -344.3496631454244152
  Basis Set: CC-PVTZ
  Basis Set:
  Charge       = 0
  Multiplicity = 1
  Basis Set: CC-PVTZ
  Basis Set:

    Orbital Energies (a.u.)
    -----------------------

    Doubly Occupied:

       1A    -15.537648     2A    -15.536215     3A    -11.237577
       4A    -11.237557     5A    -11.236906     6A    -11.236846
       7A    -11.234257     8A    -11.234256     9A     -1.257009
      10A     -1.205833    11A     -1.026208    12A     -0.992876
      13A     -0.912384    14A     -0.868488    15A     -0.836296
      16A     -0.754683    17A     -0.666770    18A     -0.638338
      19A     -0.632554    20A     -0.627378    21A     -0.622513
      22A     -0.581907    23A     -0.550410    24A     -0.547324
      25A     -0.543102    26A     -0.517733    27A     -0.497115
      28A     -0.490882    29A     -0.467196    30A     -0.457409
      31A     -0.351981    32A     -0.345247

  @DF-RHF Final Energy:  -344.34968211263475

   => Energetics <=

    Nuclear Repulsion Energy =            421.8624420169531390
    One-Electron Energy =               -1302.6584441943045931
    Two-Electron Energy =                 536.4463200647168151
    DFT Exchange-Correlation Energy =       0.0000000000000000
    Empirical Dispersion Energy =           0.0000000000000000
    PCM Polarization Energy =               0.0000000000000000
    EFP Energy =                            0.0000000000000000
    Total Energy =                       -344.3496821126346958
    Molecular point group: c1
  Basis Set: CC-PVTZ
  Basis Set:

  -Total Gradient:
     Atom            X                  Y                   Z
    ------   -----------------  -----------------  -----------------
       1        0.000099800003    -0.000000540408    -0.000017565809
       2       -0.000568093312     0.004700787422     0.000828833667
       3        0.000811653820    -0.001625773865    -0.003168000868
       4        0.000090452955    -0.003506748060     0.000039016019
       5        0.000046552072    -0.000025472260     0.000049390927
       6       -0.000317303231     0.000895605323     0.002336012307
       7        0.000133973592    -0.000184540683    -0.000299474943
       8       -0.000036408398    -0.000036414607    -0.000000447438
       9        0.000007369977    -0.000092296845     0.000032050524
      10       -0.000129781961    -0.000236631346     0.000029069252
      11       -0.000044101269     0.000015406520     0.000051491636
      12        0.000002944465    -0.000002578729     0.000068620215
      13       -0.000112160289     0.000090287511     0.000014131119
      14       -0.000077874862     0.000003372621    -0.000017040898
      15        0.000047192981    -0.000002088604     0.000038183477
      16        0.000050100143    -0.000017646488     0.000018474765
      17       -0.000033247221    -0.000020681014    -0.000010233286
      18       -0.000001403327     0.000009392527    -0.000005648927
      19        0.000009300980     0.000022868593     0.000015312144
      20        0.000020242026     0.000007569063     0.000002634467
      21       -0.000001180713     0.000005106503    -0.000002651785
      22        0.000001971574     0.000001016827    -0.000002156564

  **** Optimization is complete! (in 3 steps) ****
    Final optimized geometry and variables:
    Molecular point group: c1

    Geometry (in Angstrom), charge = 0, multiplicity = 1:

    H           -3.240266287195    -1.073388855920     0.422531736343
    C           -2.805550540376    -0.171359676360     0.006325576982
    N           -1.385412885344    -0.152360513973     0.258082891974
    H           -3.048351038831    -0.162160242064    -1.059330522283
    H           -3.282140049990     0.676296006237     0.479660843036
    C           -0.797600166133     1.164284725573     0.147943760996
    C           -0.667947093434    -1.124844419132    -0.533466325400
    H           -0.887413934748     1.564500698931    -0.866641329390
    H           -1.321912422166     1.838403741675     0.814098642371
    C            0.669586418820     1.124267466203     0.533259189410
    H           -1.103246388354    -2.103287199759    -0.365083654428
    H           -0.751332953438    -0.907243570537    -1.602403089946
    C            0.798973930500    -1.155049653978    -0.147834578194
    H            1.105340113904     2.104419145595     0.379566066911
    H            0.751112538660     0.890166158486     1.599007084398
    N            1.386985629540     0.160963791952    -0.273584356042
    H            1.326365158490    -1.839276512380    -0.802027129937
    H            0.891663370478    -1.537041325717     0.873178691608
    C            2.801398992167     0.158316998473     0.004799705433
    H            3.212658618842     1.146338885903    -0.160629136263
    H            3.307798960114    -0.529563157371    -0.660818009651
    H            3.031427485285    -0.135494535277     1.032972058714

  Mulliken Charges: (a.u.)
   Center  Symbol    Alpha    Beta     Spin     Total
       1     H     0.45130  0.45130  0.00000  0.09739
       2     C     3.09786  3.09786  0.00000 -0.19573
       3     N     3.61329  3.61329  0.00000 -0.22659
       4     H     0.46908  0.46908  0.00000  0.06185
       5     H     0.45306  0.45306  0.00000  0.09388
       6     C     3.03362  3.03362  0.00000 -0.06724
       7     C     3.03538  3.03538  0.00000 -0.07077
       8     H     0.46951  0.46951  0.00000  0.06097
       9     H     0.45383  0.45383  0.00000  0.09234
      10     C     3.03592  3.03592  0.00000 -0.07184
      11     H     0.45416  0.45416  0.00000  0.09167
      12     H     0.46762  0.46762  0.00000  0.06476
      13     C     3.03556  3.03556  0.00000 -0.07113
      14     H     0.45393  0.45393  0.00000  0.09214
      15     H     0.46832  0.46832  0.00000  0.06336
      16     N     3.61315  3.61315  0.00000 -0.22630
      17     H     0.45387  0.45387  0.00000  0.09227
      18     H     0.46817  0.46817  0.00000  0.06365
      19     C     3.09838  3.09838  0.00000 -0.19676
      20     H     0.45192  0.45192  0.00000  0.09617
      21     H     0.45193  0.45193  0.00000  0.09613
      22     H     0.47012  0.47012  0.00000  0.05976

   Total alpha = 32.00000, Total beta = 32.00000, Total charge = -0.00000
