                              Psi4 1.0.54 Driver

  ==> Input File <==

--------------------------------------------------------------------------
set {
	reference rhf
	basis cc-pvtz
}

set_num_threads( 4 )
memory 2 gb

molecule MOL {
0 1

O	 -2.081319	 -0.951530	 -0.502732
N	 -1.613558	 0.006676	 0.014756
C	 -0.329345	 -0.171618	 0.743966
O	 -2.068523	 1.100482	 -0.024385
C	 0.835904	 0.041968	 -0.213982
H	 -0.346048	 -1.174374	 1.137184
H	 -0.333613	 0.555559	 1.538590
C	 2.177039	 -0.130175	 0.494460
H	 0.754456	 -0.665923	 -1.030569
H	 0.765464	 1.037260	 -0.637266
C	 3.202763	 0.910514	 0.059329
H	 2.564929	 -1.125002	 0.296222
H	 2.029001	 -0.064753	 1.568337
H	 3.396433	 0.846799	 -1.005627
H	 2.855465	 1.915033	 0.273901
H	 4.143351	 0.766946	 0.576864

	symmetry c1
}
set optking {
	frozen_dihedral = ("
		11 8 5 9
	")
}

ee,wfn = optimize('scf', return_wfn=True)
oeprop( wfn, 'DIPOLE', 'QUADRUPOLE', 'MULLIKEN_CHARGES')
f=open( 'psi4out.xyz', 'w' )
f.write( "16  " )
f.write( str(ee) + "\n" )
f.write( MOL.save_string_xyz() )
f.close()
--------------------------------------------------------------------------

    Molecular point group: c1
  Charge       = 0
  Multiplicity = 1
  Basis Set: CC-PVTZ
  Basis Set:
  @DF-RHF Final Energy:  -360.90514284159138
    Total Energy =                       -360.9051428415914984
    Molecular point group: c1
  Basis Set: CC-PVTZ
  Basis Set:
  Basis Set: CC-PVTZ
  Basis Set:
  @DF-RHF Final Energy:  -360.90542651605614
    Total Energy =                       -360.9054265160561386
  Basis Set: CC-PVTZ
  Basis Set:
  Basis Set: CC-PVTZ
  Basis Set:
  @DF-RHF Final Energy:  -360.90483874483664
    Total Energy =                       -360.9048387448364679
  Basis Set: CC-PVTZ
  Basis Set:
  Basis Set: CC-PVTZ
  Basis Set:
  @DF-RHF Final Energy:  -360.90540623854264
    Total Energy =                       -360.9054062385422981
  Basis Set: CC-PVTZ
  Basis Set:
  Basis Set: CC-PVTZ
  Basis Set:
  @DF-RHF Final Energy:  -360.90545375382203
    Total Energy =                       -360.9054537538222007
  Basis Set: CC-PVTZ
  Basis Set:
  Basis Set: CC-PVTZ
  Basis Set:
  @DF-RHF Final Energy:  -360.90548648391649
    Total Energy =                       -360.9054864839166044
  Basis Set: CC-PVTZ
  Basis Set:
  Charge       = 0
  Multiplicity = 1
  Basis Set: CC-PVTZ
  Basis Set:

    Orbital Energies (a.u.)
    -----------------------

    Doubly Occupied:

       1A    -20.589648     2A    -20.589480     3A    -15.835844
       4A    -11.296415     5A    -11.250765     6A    -11.242102
       7A    -11.226289     8A     -1.634987     9A     -1.419328
      10A     -1.135756    11A     -1.058630    12A     -0.948798
      13A     -0.844207    14A     -0.829423    15A     -0.758642
      16A     -0.737556    17A     -0.727602    18A     -0.674076
      19A     -0.621621    20A     -0.606751    21A     -0.563514
      22A     -0.547672    23A     -0.515880    24A     -0.504446
      25A     -0.493747    26A     -0.485840    27A     -0.468923
      28A     -0.451975

  @DF-RHF Final Energy:  -360.90548668663530

   => Energetics <=

    Nuclear Repulsion Energy =            313.1296733679438375
    One-Electron Energy =               -1111.9504876115579464
    Two-Electron Energy =                 437.9153275569789798
    DFT Exchange-Correlation Energy =       0.0000000000000000
    Empirical Dispersion Energy =           0.0000000000000000
    PCM Polarization Energy =               0.0000000000000000
    EFP Energy =                            0.0000000000000000
    Total Energy =                       -360.9054866866351290
    Molecular point group: c1
  Basis Set: CC-PVTZ
  Basis Set:

  -Total Gradient:
     Atom            X                  Y                   Z
    ------   -----------------  -----------------  -----------------
       1       -0.000024807574    -0.000006872400    -0.000010726235
       2        0.000049039695    -0.000028442413    -0.000002176786
       3        0.000004256200     0.000015261862     0.000008149944
       4       -0.000027198764     0.000020203383    -0.000001255779
       5        0.001630627422     0.003886522156    -0.002131224434
       6       -0.000002064455     0.000000976795     0.000009424808
       7       -0.000002604846     0.000001248704    -0.000000697886
       8        0.000808468356    -0.003012228053    -0.002287260632
       9       -0.001581352090    -0.002571916234     0.002359305375
      10       -0.000002757640     0.000004284057     0.000002990973
      11       -0.000846752404     0.001692180457     0.002060317519
      12       -0.000002473570    -0.000004924173     0.000010235412
      13        0.000002012484     0.000001400071    -0.000015043365
      14        0.000003522848    -0.000006638731     0.000009163991
      15        0.000002305674     0.000006414022    -0.000012641700
      16       -0.000010221341     0.000002530497     0.000001438794

  **** Optimization is complete! (in 7 steps) ****
    Final optimized geometry and variables:
    Molecular point group: c1

    Geometry (in Angstrom), charge = 0, multiplicity = 1:

    O           -2.022786341026    -1.126587058329    -0.582159082937
    N           -1.595567973673    -0.151668624637    -0.060457240035
    C           -0.304640884564    -0.278013225671     0.668085374080
    O           -2.096204353042     0.922255870866    -0.095019349222
    C            0.852866757654    -0.013972714455    -0.289579186445
    H           -0.278790028590    -1.281911226926     1.058449524993
    H           -0.338593342015     0.446128045874     1.464702448689
    C            2.206293080023    -0.204740339314     0.416739727499
    H            0.758089208759    -0.708036066959    -1.114979996923
    H            0.759689791328     0.991207586628    -0.679603375502
    C            3.246964478679     0.829182133780    -0.000807954622
    H            2.576741076778    -1.205453105385     0.228438025259
    H            2.069077181971    -0.132399637543     1.491791273830
    H            3.427679710561     0.797313149247    -1.069866715642
    H            2.916848032713     1.831137512761     0.249079323868
    H            4.191374994027     0.653740059736     0.500079999745

  Mulliken Charges: (a.u.)
   Center  Symbol    Alpha    Beta     Spin     Total
       1     O     4.17413  4.17413  0.00000 -0.34825
       2     N     3.27635  3.27635  0.00000  0.44730
       3     C     3.04159  3.04159  0.00000 -0.08319
       4     O     4.17417  4.17417  0.00000 -0.34834
       5     C     3.10327  3.10327  0.00000 -0.20654
       6     H     0.43330  0.43330  0.00000  0.13340
       7     H     0.43431  0.43431  0.00000  0.13138
       8     C     3.09402  3.09402  0.00000 -0.18804
       9     H     0.43553  0.43553  0.00000  0.12893
      10     H     0.43763  0.43763  0.00000  0.12473
      11     C     3.14677  3.14677  0.00000 -0.29353
      12     H     0.44520  0.44520  0.00000  0.10961
      13     H     0.45416  0.45416  0.00000  0.09168
      14     H     0.45079  0.45079  0.00000  0.09842
      15     H     0.45251  0.45251  0.00000  0.09497
      16     H     0.44627  0.44627  0.00000  0.10746

   Total alpha = 28.00000, Total beta = 28.00000, Total charge =  0.00000

*** Psi4 exiting successfully. Buy a developer a beer!
