                              Psi4 1.0.54 Driver

  ==> Input File <==

--------------------------------------------------------------------------
set {
	reference rhf
	basis cc-pvtz
}

set_num_threads( 4 )
memory 2 gb

molecule MOL {
0 1

O	 -1.278239	 1.034789	 -0.784693
C	 -1.204115	 0.062668	 -0.112312
C	 -2.386398	 -0.667698	 0.460323
O	 -0.068058	 -0.518372	 0.226882
H	 -2.382952	 -1.693172	 0.114333
H	 -3.296656	 -0.175702	 0.158400
H	 -2.312537	 -0.685191	 1.540100
C	 1.169086	 0.037484	 -0.230612
C	 1.930764	 -1.100438	 -0.880299
C	 1.915350	 0.662872	 0.934115
H	 0.940584	 0.796594	 -0.963161
H	 1.363469	 -1.521483	 -1.700450
H	 2.876572	 -0.740612	 -1.267191
H	 2.130846	 -1.887567	 -0.163131
H	 2.858014	 1.073494	 0.591661
H	 1.338144	 1.463924	 1.374339
H	 2.123094	 -0.080561	 1.695320

	symmetry c1
}
set optking {
	frozen_dihedral = ("
		11 8 4 2
	")
}

ee,wfn = optimize('scf', return_wfn=True)
oeprop( wfn, 'DIPOLE', 'QUADRUPOLE', 'MULLIKEN_CHARGES')
f=open( 'psi4out.xyz', 'w' )
f.write( "17  " )
f.write( str(ee) + "\n" )
f.write( MOL.save_string_xyz() )
f.close()
--------------------------------------------------------------------------

    Molecular point group: c1
  Charge       = 0
  Multiplicity = 1
  Basis Set: CC-PVTZ
  Basis Set:
  @DF-RHF Final Energy:  -345.04228568196640
    Total Energy =                       -345.0422856819662911
    Molecular point group: c1
  Basis Set: CC-PVTZ
  Basis Set:
  Basis Set: CC-PVTZ
  Basis Set:
  @DF-RHF Final Energy:  -345.04244722478501
    Total Energy =                       -345.0424472247849508
  Basis Set: CC-PVTZ
  Basis Set:
  Basis Set: CC-PVTZ
  Basis Set:
  @DF-RHF Final Energy:  -345.04223490061594
    Total Energy =                       -345.0422349006161085
  Basis Set: CC-PVTZ
  Basis Set:
  Basis Set: CC-PVTZ
  Basis Set:
  @DF-RHF Final Energy:  -345.04256764321065
    Total Energy =                       -345.0425676432111572
  Basis Set: CC-PVTZ
  Basis Set:
  Basis Set: CC-PVTZ
  Basis Set:
  @DF-RHF Final Energy:  -345.04257664576312
    Total Energy =                       -345.0425766457632335
  Basis Set: CC-PVTZ
  Basis Set:
  Charge       = 0
  Multiplicity = 1
  Basis Set: CC-PVTZ
  Basis Set:

    Orbital Energies (a.u.)
    -----------------------

    Doubly Occupied:

       1A    -20.590547     2A    -20.531058     3A    -11.367225
       4A    -11.286814     5A    -11.230260     6A    -11.217811
       7A    -11.216865     8A     -1.467258     9A     -1.364642
      10A     -1.080071    11A     -1.005530    12A     -0.949558
      13A     -0.849686    14A     -0.770104    15A     -0.694980
      16A     -0.667434    17A     -0.664033    18A     -0.614108
      19A     -0.587329    20A     -0.579245    21A     -0.568015
      22A     -0.551900    23A     -0.535448    24A     -0.524544
      25A     -0.504533    26A     -0.482982    27A     -0.447277
      28A     -0.440286

  @DF-RHF Final Energy:  -345.04257714002603

   => Energetics <=

    Nuclear Repulsion Energy =            322.3842069576949712
    One-Electron Energy =               -1109.2744818589080751
    Two-Electron Energy =                 441.8476977611869643
    DFT Exchange-Correlation Energy =       0.0000000000000000
    Empirical Dispersion Energy =           0.0000000000000000
    PCM Polarization Energy =               0.0000000000000000
    EFP Energy =                            0.0000000000000000
    Total Energy =                       -345.0425771400261965
    Molecular point group: c1
  Basis Set: CC-PVTZ
  Basis Set:

  -Total Gradient:
     Atom            X                  Y                   Z
    ------   -----------------  -----------------  -----------------
       1       -0.000054920650     0.000003533715    -0.000002546650
       2       -0.000012841363    -0.000412600933    -0.000623365808
       3        0.000017278290    -0.000015786176    -0.000036487910
       4        0.000018187316     0.000668074803     0.001036524561
       5        0.000003920338     0.000003176064     0.000011162624
       6        0.000000788510     0.000006291106     0.000001667616
       7        0.000003258086     0.000014124233     0.000001997631
       8       -0.000018024444    -0.000893301401    -0.001014053485
       9       -0.000036751586     0.000005337976     0.000020511251
      10        0.000081076759     0.000006412410    -0.000035787276
      11        0.000009081853     0.000579680139     0.000623586041
      12        0.000001652594     0.000001869466     0.000001353958
      13       -0.000026939172     0.000012646494     0.000013555311
      14       -0.000004755289     0.000006052839    -0.000000734523
      15        0.000029713525     0.000021772545     0.000031604302
      16       -0.000004265773    -0.000012289742    -0.000017936578
      17       -0.000006458991     0.000005006462    -0.000011051066

  **** Optimization is complete! (in 6 steps) ****
    Final optimized geometry and variables:
    Molecular point group: c1

    Geometry (in Angstrom), charge = 0, multiplicity = 1:

    O           -1.301963834171     1.130655971376    -0.711219880236
    C           -1.217874205716     0.145144030240    -0.060410682003
    C           -2.394259168990    -0.601132068063     0.504164854537
    O           -0.079704639796    -0.440314877330     0.266886382838
    H           -2.390222715835    -1.618591090481     0.135274276898
    H           -3.307968556692    -0.105216592189     0.219681426192
    H           -2.312500279956    -0.642713068870     1.582665933998
    C            1.166466657338     0.097621256510    -0.188287950654
    C            1.941904494114    -1.038297505931    -0.826287317037
    C            1.880162355596     0.715830326411     0.999893850984
    H            0.954423089880     0.861611937666    -0.917573133674
    H            1.396409718954    -1.449485532185    -1.666289412422
    H            2.899614731510    -0.680134432030    -1.184787379578
    H            2.118565264916    -1.832392299081    -0.110504369393
    H            2.834195060294     1.126729945683     0.691080783649
    H            1.288422398081     1.517002246431     1.424388721938
    H            2.058582046779    -0.026451911961     1.769062404520

  Mulliken Charges: (a.u.)
   Center  Symbol    Alpha    Beta     Spin     Total
       1     O     4.19945  4.19945  0.00000 -0.39890
       2     C     2.80272  2.80272  0.00000  0.39456
       3     C     3.14078  3.14078  0.00000 -0.28156
       4     O     4.16701  4.16701  0.00000 -0.33401
       5     H     0.44619  0.44619  0.00000  0.10761
       6     H     0.43848  0.43848  0.00000  0.12303
       7     H     0.44609  0.44609  0.00000  0.10783
       8     C     2.93668  2.93668  0.00000  0.12664
       9     C     3.13928  3.13928  0.00000 -0.27857
      10     C     3.14471  3.14471  0.00000 -0.28943
      11     H     0.43489  0.43489  0.00000  0.13022
      12     H     0.44714  0.44714  0.00000  0.10571
      13     H     0.45346  0.45346  0.00000  0.09309
      14     H     0.45276  0.45276  0.00000  0.09449
      15     H     0.45206  0.45206  0.00000  0.09588
      16     H     0.44518  0.44518  0.00000  0.10963
      17     H     0.45311  0.45311  0.00000  0.09378

   Total alpha = 28.00000, Total beta = 28.00000, Total charge = -0.00000

*** Psi4 exiting successfully. Buy a developer a beer!
