  ==> Input File <==

--------------------------------------------------------------------------
set {
	reference rhf
	basis 6-31G*
}

set_num_threads( 1 )
memory 2 gb

molecule MOL {
0 1

H	 -1.836216	 1.387520	 -0.000064
C	 -1.301823	 0.443321	 -0.000031
O	 -0.003969	 0.658512	 0.000451
O	 -1.829879	 -0.616434	 -0.000857
C	 0.642855	 0.764993	 1.268310
C	 2.113802	 1.008189	 1.008523
H	 0.478340	 -0.149497	 1.821448
H	 0.192871	 1.577124	 1.822614
H	 2.545800	 0.188745	 0.445565
H	 2.644484	 1.095140	 1.950887
H	 2.259120	 1.923702	 0.446733

	symmetry c1
}
set optking {
	frozen_dihedral = ("
		7 5 3 2
	")
}

ee = energy('scf')
oeprop('DIPOLE', 'QUADRUPOLE', 'MULLIKEN_CHARGES')
f=open( 'psi4out.xyz', 'w' )
f.write( "11  " )
f.write( str(ee) + "\n" )
f.write( MOL.save_string_xyz() )
f.close()
--------------------------------------------------------------------------

    Molecular point group: c1

    Geometry (in Angstrom), charge = 0, multiplicity = 1:

       Center              X                  Y                   Z               Mass
    ------------   -----------------  -----------------  -----------------  -----------------
           H         -1.761379417371     0.937190685839    -0.457310732497     1.007825032070
           C         -1.226986417371    -0.007008314161    -0.457277732497    12.000000000000
           O          0.070867582629     0.208182685839    -0.456795732497    15.994914619560
           O         -1.755042417371    -1.066763314161    -0.458103732497    15.994914619560
           C          0.717691582629     0.314663685839     0.811063267503    12.000000000000
           C          2.188638582629     0.557859685839     0.551276267503    12.000000000000
           H          0.553176582629    -0.599826314161     1.364201267503     1.007825032070
           H          0.267707582629     1.126794685839     1.365367267503     1.007825032070
           H          2.620636582629    -0.261584314161    -0.011681732497     1.007825032070
           H          2.719320582629     0.644810685839     1.493640267503     1.007825032070
           H          2.333956582629     1.473372685839    -0.010513732497     1.007825032070

  Charge       = 0
  Multiplicity = 1
  Basis Set: 6-31G*
  Basis Set:

    Orbital Energies (a.u.)
    -----------------------

    Doubly Occupied:

       1A    -20.593174     2A    -20.568466     3A    -11.379282
       4A    -11.305057     5A    -11.231134     6A     -1.470024
       7A     -1.378127     8A     -1.053977     9A     -0.893138
      10A     -0.829648    11A     -0.742364    12A     -0.689455
      13A     -0.646820    14A     -0.641635    15A     -0.564315
      16A     -0.542383    17A     -0.537680    18A     -0.499349
      19A     -0.467434    20A     -0.452112

  @DF-RHF Final Energy:  -266.80811145853158

   => Energetics <=

    Nuclear Repulsion Energy =            177.3302809072223738
    One-Electron Energy =                -715.3057210116647866
    Two-Electron Energy =                 271.1673286459108567
    DFT Exchange-Correlation Energy =       0.0000000000000000
    Empirical Dispersion Energy =           0.0000000000000000
    PCM Polarization Energy =               0.0000000000000000
    EFP Energy =                            0.0000000000000000
    Total Energy =                       -266.8081114585315845

  Mulliken Charges: (a.u.)
   Center  Symbol    Alpha    Beta     Spin     Total
       1     H     0.42797  0.42797  0.00000  0.14405
       2     C     2.73096  2.73096  0.00000  0.53807
       3     O     4.29786  4.29786  0.00000 -0.59571
       4     O     4.23380  4.23380  0.00000 -0.46761
       5     C     3.00501  3.00501  0.00000 -0.01001
       6     C     3.24757  3.24757  0.00000 -0.49515
       7     H     0.40778  0.40778  0.00000  0.18444
       8     H     0.41950  0.41950  0.00000  0.16101
       9     H     0.40488  0.40488  0.00000  0.19024
      10     H     0.41574  0.41574  0.00000  0.16851
      11     H     0.40893  0.40893  0.00000  0.18215

   Total alpha = 20.00000, Total beta = 20.00000, Total charge =  0.00000
