                              Psi4 1.0.54 Driver

  ==> Input File <==

--------------------------------------------------------------------------
set {
	reference rhf
	basis cc-pvtz
}

set_num_threads( 4 )
memory 2 gb

molecule MOL {
0 1

H	 0.238576	 1.916370	 0.528685
O	 0.057669	 1.301365	 -0.158528
C	 0.004145	 -0.005141	 0.363049
C	 1.199168	 -0.827145	 -0.096690
C	 -1.316386	 -0.602081	 -0.083515
H	 0.012026	 0.043363	 1.450619
H	 1.216685	 -0.896776	 -1.178167
H	 2.129940	 -0.372354	 0.228035
H	 1.160783	 -1.829622	 0.314294
H	 -1.357882	 -0.655920	 -1.165207
H	 -2.140147	 0.011735	 0.257253
H	 -1.440790	 -1.601175	 0.317669

	symmetry c1
}
set optking {
	frozen_dihedral = ("
		1 2 3 4
	")
}

ee,wfn = optimize('scf', return_wfn=True)
oeprop( wfn, 'DIPOLE', 'QUADRUPOLE', 'MULLIKEN_CHARGES')
f=open( 'psi4out.xyz', 'w' )
f.write( "12  " )
f.write( str(ee) + "\n" )
f.write( MOL.save_string_xyz() )
f.close()
--------------------------------------------------------------------------

    Molecular point group: c1
  Charge       = 0
  Multiplicity = 1
  Basis Set: CC-PVTZ
  Basis Set:
  @DF-RHF Final Energy:  -193.19387034081834
    Total Energy =                       -193.1938703408183358
    Molecular point group: c1
  Basis Set: CC-PVTZ
  Basis Set:
  Basis Set: CC-PVTZ
  Basis Set:
  @DF-RHF Final Energy:  -193.19323750201684
    Total Energy =                       -193.1932375020169275
  Basis Set: CC-PVTZ
  Basis Set:
  Basis Set: CC-PVTZ
  Basis Set:
  @DF-RHF Final Energy:  -193.19421876464440
    Total Energy =                       -193.1942187646443188
  Basis Set: CC-PVTZ
  Basis Set:
  Basis Set: CC-PVTZ
  Basis Set:
  @DF-RHF Final Energy:  -193.19422903565692
    Total Energy =                       -193.1942290356568606
  Basis Set: CC-PVTZ
  Basis Set:
  Charge       = 0
  Multiplicity = 1
  Basis Set: CC-PVTZ
  Basis Set:

    Orbital Energies (a.u.)
    -----------------------

    Doubly Occupied:

       1A    -20.542779     2A    -11.274765     3A    -11.205242
       4A    -11.204727     5A     -1.362613     6A     -1.042697
       7A     -0.936132     8A     -0.799994     9A     -0.714735
      10A     -0.609726    11A     -0.599376    12A     -0.559101
      13A     -0.538344    14A     -0.525456    15A     -0.506636
      16A     -0.465280    17A     -0.432248

  @DF-RHF Final Energy:  -193.19422936918733

   => Energetics <=

    Nuclear Repulsion Energy =            135.4997808083039672
    One-Electron Energy =                -530.7483132441370799
    Two-Electron Energy =                 202.0543030666458151
    DFT Exchange-Correlation Energy =       0.0000000000000000
    Empirical Dispersion Energy =           0.0000000000000000
    PCM Polarization Energy =               0.0000000000000000
    EFP Energy =                            0.0000000000000000
    Total Energy =                       -193.1942293691872976
    Molecular point group: c1
  Basis Set: CC-PVTZ
  Basis Set:

  -Total Gradient:
     Atom            X                  Y                   Z
    ------   -----------------  -----------------  -----------------
       1       -0.000757663288     0.000086087596     0.000159510562
       2        0.000825347105    -0.000265192523    -0.000322880504
       3        0.000200082662     0.000298053652     0.000596715066
       4       -0.000268644132    -0.000150323714    -0.000371346366
       5       -0.000019650744     0.000032889314    -0.000034893038
       6        0.000009219119     0.000020443625     0.000025076413
       7        0.000010405850    -0.000017229512    -0.000035847768
       8        0.000015237824     0.000011983130    -0.000000122555
       9       -0.000010138215    -0.000017950404     0.000011944118
      10       -0.000012119524    -0.000007066457    -0.000039322794
      11       -0.000012504526     0.000003667655    -0.000000826005
      12        0.000020427869     0.000004637637     0.000011992871

  **** Optimization is complete! (in 5 steps) ****
    Final optimized geometry and variables:
    Molecular point group: c1

    Geometry (in Angstrom), charge = 0, multiplicity = 1:

    H            0.221063730437     1.976953642818     0.251119447552
    O            0.038307415812     1.269237745685    -0.336224362606
    C            0.014482346169     0.038808560736     0.357387213113
    C            1.226652726820    -0.788046565837    -0.040486219745
    C           -1.292921786294    -0.666046525399     0.038269809407
    H            0.055080609542     0.227805859277     1.427071473495
    H            1.216463851789    -0.973297737469    -1.108341324156
    H            2.142803168880    -0.262127291125     0.200658332897
    H            1.233859119393    -1.742256945457     0.474899668220
    H           -1.373124427319    -0.835826795910    -1.029324234032
    H           -2.135616533772    -0.060074372274     0.347037531591
    H           -1.351880483493    -1.623350003679     0.544045828922

  Mulliken Charges: (a.u.)
   Center  Symbol    Alpha    Beta     Spin     Total
       1     H     0.39054  0.39054  0.00000  0.21893
       2     O     4.21173  4.21173  0.00000 -0.42346
       3     C     2.92607  2.92607  0.00000  0.14786
       4     C     3.13690  3.13690  0.00000 -0.27380
       5     C     3.13707  3.13707  0.00000 -0.27413
       6     H     0.46766  0.46766  0.00000  0.06468
       7     H     0.45252  0.45252  0.00000  0.09496
       8     H     0.45404  0.45404  0.00000  0.09193
       9     H     0.45958  0.45958  0.00000  0.08084
      10     H     0.45236  0.45236  0.00000  0.09527
      11     H     0.45176  0.45176  0.00000  0.09648
      12     H     0.45977  0.45977  0.00000  0.08046

   Total alpha = 17.00000, Total beta = 17.00000, Total charge = -0.00000

*** Psi4 exiting successfully. Buy a developer a beer!
