  ==> Input File <==

--------------------------------------------------------------------------
set {
	reference rhf
	basis 6-31G*
}

set_num_threads( 1 )
memory 2 gb

molecule MOL {
0 1

H	 -3.261111	 -0.295142	 1.469456
C	 -3.306842	 -0.277400	 0.373456
C	 -2.660244	 0.921717	 -0.272021
O	 -3.838538	 -1.161155	 -0.216482
C	 -3.538044	 1.546497	 -1.365352
H	 -2.418771	 1.639138	 0.503676
H	 -1.724994	 0.581185	 -0.714741
C	 -4.822601	 2.182206	 -0.827685
H	 -2.954110	 2.298960	 -1.886990
H	 -3.785999	 0.788406	 -2.106684
C	 -5.681709	 2.810774	 -1.926616
H	 -4.563416	 2.939988	 -0.091181
H	 -5.409816	 1.435316	 -0.296768
C	 -6.957624	 3.459655	 -1.383527
H	 -5.087046	 3.548147	 -2.459897
H	 -5.949465	 2.047329	 -2.655891
C	 -7.891367	 4.030826	 -2.456821
H	 -6.690064	 4.249621	 -0.683484
H	 -7.507066	 2.717977	 -0.807560
C	 -7.318513	 5.219429	 -3.230566
H	 -8.816144	 4.341315	 -1.976890
H	 -8.162793	 3.241739	 -3.155098
H	 -7.022933	 6.018431	 -2.555661
H	 -6.448369	 4.942023	 -3.816117
H	 -8.056441	 5.623678	 -3.916889

	symmetry c1
}
set optking {
	frozen_dihedral = ("
		6 3 5 8,
		3 5 8 12,
		12 8 11 14,
		8 11 14 18,
		20 17 14 18
	")
}

ee = energy('scf')
oeprop('DIPOLE', 'QUADRUPOLE', 'MULLIKEN_CHARGES')
f=open( 'psi4out.xyz', 'w' )
f.write( "25  " )
f.write( str(ee) + "\n" )
f.write( MOL.save_string_xyz() )
f.close()
--------------------------------------------------------------------------

    Molecular point group: c1

    Geometry (in Angstrom), charge = 0, multiplicity = 1:

       Center              X                  Y                   Z               Mass
    ------------   -----------------  -----------------  -----------------  -----------------
           H          1.859602861145    -2.376242686933     2.732955639551     1.007825032070
           C          1.813871861145    -2.358500686933     1.636955639551    12.000000000000
           C          2.460469861145    -1.159383686933     0.991478639551    12.000000000000
           O          1.282175861145    -3.242255686933     1.047017639551    15.994914619560
           C          1.582669861145    -0.534603686933    -0.101852360449    12.000000000000
           H          2.701942861145    -0.441962686933     1.767175639551     1.007825032070
           H          3.395719861145    -1.499915686933     0.548758639551     1.007825032070
           C          0.298112861145     0.101105313067     0.435814639551    12.000000000000
           H          2.166603861145     0.217859313067    -0.623490360449     1.007825032070
           H          1.334714861145    -1.292694686933    -0.843184360449     1.007825032070
           C         -0.560995138855     0.729673313067    -0.663116360449    12.000000000000
           H          0.557297861145     0.858887313067     1.172318639551     1.007825032070
           H         -0.289102138855    -0.645784686933     0.966731639551     1.007825032070
           C         -1.836910138855     1.378554313067    -0.120027360449    12.000000000000
           H          0.033667861145     1.467046313067    -1.196397360449     1.007825032070
           H         -0.828751138855    -0.033771686933    -1.392391360449     1.007825032070
           C         -2.770653138855     1.949725313067    -1.193321360449    12.000000000000
           H         -1.569350138855     2.168520313067     0.580015639551     1.007825032070
           H         -2.386352138855     0.636876313067     0.455939639551     1.007825032070
           C         -2.197799138855     3.138328313067    -1.967066360449    12.000000000000
           H         -3.695430138855     2.260214313067    -0.713390360449     1.007825032070
           H         -3.042079138855     1.160638313067    -1.891598360449     1.007825032070
           H         -1.902219138855     3.937330313067    -1.292161360449     1.007825032070
           H         -1.327655138855     2.860922313067    -2.552617360449     1.007825032070
           H         -2.935727138855     3.542577313067    -2.653389360449     1.007825032070

  Charge       = 0
  Multiplicity = 1
  Basis Set: 6-31G*
  Basis Set:

    Orbital Energies (a.u.)
    -----------------------

    Doubly Occupied:

       1A    -20.562888     2A    -11.327148     3A    -11.235340
       4A    -11.226827     5A    -11.219737     6A    -11.215789
       7A    -11.215607     8A    -11.214408     9A    -11.208685
      10A     -1.403457    11A     -1.098764    12A     -1.065915
      13A     -1.011111    14A     -0.942065    15A     -0.876692
      16A     -0.821868    17A     -0.779424    18A     -0.765391
      19A     -0.686464    20A     -0.648782    21A     -0.631141
      22A     -0.624031    23A     -0.600716    24A     -0.592769
      25A     -0.571655    26A     -0.546779    27A     -0.532647
      28A     -0.523343    29A     -0.502446    30A     -0.493877
      31A     -0.487623    32A     -0.474577    33A     -0.461623
      34A     -0.456018    35A     -0.437993    36A     -0.409484

  @DF-RHF Final Energy:  -387.12081193029030

   => Energetics <=

    Nuclear Repulsion Energy =            442.4841678523583823
    One-Electron Energy =               -1401.4638573267070569
    Two-Electron Energy =                 571.8588775440604195
    DFT Exchange-Correlation Energy =       0.0000000000000000
    Empirical Dispersion Energy =           0.0000000000000000
    PCM Polarization Energy =               0.0000000000000000
    EFP Energy =                            0.0000000000000000
    Total Energy =                       -387.1208119302882551

  Mulliken Charges: (a.u.)
   Center  Symbol    Alpha    Beta     Spin     Total
       1     H     0.42817  0.42817  0.00000  0.14366
       2     C     2.84106  2.84106  0.00000  0.31788
       3     C     3.20627  3.20627  0.00000 -0.41255
       4     O     4.23820  4.23820  0.00000 -0.47641
       5     C     3.15594  3.15594  0.00000 -0.31188
       6     H     0.41480  0.41480  0.00000  0.17041
       7     H     0.39904  0.39904  0.00000  0.20193
       8     C     3.15751  3.15751  0.00000 -0.31502
       9     H     0.41783  0.41783  0.00000  0.16434
      10     H     0.40510  0.40510  0.00000  0.18979
      11     C     3.15433  3.15433  0.00000 -0.30867
      12     H     0.42482  0.42482  0.00000  0.15036
      13     H     0.41714  0.41714  0.00000  0.16573
      14     C     3.15303  3.15303  0.00000 -0.30607
      15     H     0.42173  0.42173  0.00000  0.15654
      16     H     0.42040  0.42040  0.00000  0.15921
      17     C     3.15265  3.15265  0.00000 -0.30530
      18     H     0.42488  0.42488  0.00000  0.15023
      19     H     0.42093  0.42093  0.00000  0.15814
      20     C     3.24124  3.24124  0.00000 -0.48248
      21     H     0.42079  0.42079  0.00000  0.15843
      22     H     0.42229  0.42229  0.00000  0.15541
      23     H     0.42269  0.42269  0.00000  0.15463
      24     H     0.42020  0.42020  0.00000  0.15960
      25     H     0.41896  0.41896  0.00000  0.16209

   Total alpha = 36.00000, Total beta = 36.00000, Total charge =  0.00000
