  ==> Input File <==

--------------------------------------------------------------------------
set {
	reference rhf
	basis 6-31G*
}

set_num_threads( 1 )
memory 2 gb

molecule MOL {
0 1

H	 -1.492433	 -0.280027	 0.297401
N	 -0.626943	 -0.667432	 -0.000092
C	 -0.603740	 -2.052360	 -0.412588
C	 0.469286	 0.129090	 0.000148
H	 -0.913465	 -2.704173	 0.397484
H	 0.405469	 -2.302439	 -0.696640
H	 -1.259328	 -2.216392	 -1.261310
C	 1.788933	 -0.616240	 -0.000037
O	 0.411098	 1.327768	 -0.000049
H	 1.872803	 -1.245775	 -0.880381
H	 2.595421	 0.101576	 0.003713
H	 1.870096	 -1.252171	 0.875943

	symmetry c1
}
set optking {
	frozen_dihedral = ("
		4 2 3 5
	")
}

ee = energy('scf')
oeprop('DIPOLE', 'QUADRUPOLE', 'MULLIKEN_CHARGES')
f=open( 'psi4out.xyz', 'w' )
f.write( "12  " )
f.write( str(ee) + "\n" )
f.write( MOL.save_string_xyz() )
f.close()
--------------------------------------------------------------------------

    Molecular point group: c1

    Geometry (in Angstrom), charge = 0, multiplicity = 1:

       Center              X                  Y                   Z               Mass
    ------------   -----------------  -----------------  -----------------  -----------------
           H         -1.776511903320     0.110917113819     0.382619887047     1.007825032070
           N         -0.911021903320    -0.276487886181     0.085126887047    14.003074004780
           C         -0.887818903320    -1.661415886181    -0.327369112953    12.000000000000
           C          0.185207096680     0.520034113819     0.085366887047    12.000000000000
           H         -1.197543903320    -2.313228886181     0.482702887047     1.007825032070
           H          0.121390096680    -1.911494886181    -0.611421112953     1.007825032070
           H         -1.543406903320    -1.825447886181    -1.176091112953     1.007825032070
           C          1.504854096680    -0.225295886181     0.085181887047    12.000000000000
           O          0.127019096680     1.718712113819     0.085169887047    15.994914619560
           H          1.588724096680    -0.854830886181    -0.795162112953     1.007825032070
           H          2.311342096680     0.492520113819     0.088931887047     1.007825032070
           H          1.586017096680    -0.861226886181     0.961161887047     1.007825032070

  Charge       = 0
  Multiplicity = 1
  Basis Set: 6-31G*
  Basis Set:

    Orbital Energies (a.u.)
    -----------------------

    Doubly Occupied:

       1A    -20.517125     2A    -15.578251     3A    -11.344018
       4A    -11.268001     5A    -11.228989     6A     -1.383286
       7A     -1.232910     8A     -1.005060     9A     -0.956366
      10A     -0.789127    11A     -0.675537    12A     -0.666028
      13A     -0.640205    14A     -0.593505    15A     -0.575393
      16A     -0.570111    17A     -0.549735    18A     -0.506801
      19A     -0.411824    20A     -0.382150

  @DF-RHF Final Energy:  -246.99185610641428

   => Energetics <=

    Nuclear Repulsion Energy =            182.3330755138185850
    One-Electron Energy =                -696.9008798027815601
    Two-Electron Energy =                 267.5759481825492117
    DFT Exchange-Correlation Energy =       0.0000000000000000
    Empirical Dispersion Energy =           0.0000000000000000
    PCM Polarization Energy =               0.0000000000000000
    EFP Energy =                            0.0000000000000000
    Total Energy =                       -246.9918561064137634

  Mulliken Charges: (a.u.)
   Center  Symbol    Alpha    Beta     Spin     Total
       1     H     0.30524  0.30524  0.00000  0.38952
       2     N     3.88804  3.88804  0.00000 -0.77608
       3     C     3.13885  3.13885  0.00000 -0.27769
       4     C     2.63068  2.63068  0.00000  0.73864
       5     H     0.41418  0.41418  0.00000  0.17165
       6     H     0.40927  0.40927  0.00000  0.18145
       7     H     0.40986  0.40986  0.00000  0.18027
       8     C     3.30466  3.30466  0.00000 -0.60932
       9     O     4.29607  4.29607  0.00000 -0.59213
      10     H     0.40752  0.40752  0.00000  0.18496
      11     H     0.39119  0.39119  0.00000  0.21762
      12     H     0.40444  0.40444  0.00000  0.19111

   Total alpha = 20.00000, Total beta = 20.00000, Total charge =  0.00000
