  ==> Input File <==

--------------------------------------------------------------------------
set {
	reference rhf
	basis 6-31G*
}

set_num_threads( 1 )
memory 2 gb

molecule MOL {
0 1

O	 1.386848	 2.097206	 0.222745
C	 0.344197	 2.485797	 0.641069
C	 -0.951655	 1.712232	 0.625861
O	 0.183721	 3.681498	 1.193955
C	 -0.823008	 0.326187	 0.001381
H	 -1.305103	 1.650732	 1.651535
H	 -1.683999	 2.316014	 0.096863
C	 -2.149452	 -0.435131	 -0.000098
H	 -0.072393	 -0.241430	 0.542284
H	 -0.452785	 0.424506	 -1.014285
C	 -3.368779	 0.488503	 -0.000883
H	 -2.193746	 -1.087250	 -0.871175
H	 -2.195311	 -1.087803	 0.870418
C	 -4.693822	 -0.272754	 -0.001129
H	 -3.325798	 1.139422	 -0.871284
H	 -3.326423	 1.139959	 0.869145
H	 -4.781274	 -0.907928	 -0.878124
H	 -5.538651	 0.408946	 -0.001420
H	 -4.781694	 -0.907783	 0.875984
C	 1.327952	 4.511837	 1.272864
H	 2.099245	 4.040743	 1.865068
H	 0.998557	 5.424122	 1.745211
H	 1.715383	 4.719889	 0.285890

	symmetry c1
}
set optking {
	frozen_dihedral = ("
		15 11 8 12,
		1 2 3 6,
		9 5 3 6,
		1 2 4 20
	")
}

ee = energy('scf')
oeprop('DIPOLE', 'QUADRUPOLE', 'MULLIKEN_CHARGES')
f=open( 'psi4out.xyz', 'w' )
f.write( "23  " )
f.write( str(ee) + "\n" )
f.write( MOL.save_string_xyz() )
f.close()
--------------------------------------------------------------------------

    Molecular point group: c1

    Geometry (in Angstrom), charge = 0, multiplicity = 1:

       Center              X                  Y                   Z               Mass
    ------------   -----------------  -----------------  -----------------  -----------------
           O          2.337598758932     0.441584384878    -0.225645381705    15.994914619560
           C          1.294947758932     0.830175384878     0.192678618295    12.000000000000
           C         -0.000904241068     0.056610384878     0.177470618295    12.000000000000
           O          1.134471758932     2.025876384878     0.745564618295    15.994914619560
           C          0.127742758932    -1.329434615122    -0.447009381705    12.000000000000
           H         -0.354352241068    -0.004889615122     1.203144618295     1.007825032070
           H         -0.733248241068     0.660392384878    -0.351527381705     1.007825032070
           C         -1.198701241068    -2.090752615122    -0.448488381705    12.000000000000
           H          0.878357758932    -1.897051615122     0.093893618295     1.007825032070
           H          0.497965758932    -1.231115615122    -1.462675381705     1.007825032070
           C         -2.418028241068    -1.167118615122    -0.449273381705    12.000000000000
           H         -1.242995241068    -2.742871615122    -1.319565381705     1.007825032070
           H         -1.244560241068    -2.743424615122     0.422027618295     1.007825032070
           C         -3.743071241068    -1.928375615122    -0.449519381705    12.000000000000
           H         -2.375047241068    -0.516199615122    -1.319674381705     1.007825032070
           H         -2.375672241068    -0.515662615122     0.420754618295     1.007825032070
           H         -3.830523241068    -2.563549615122    -1.326514381705     1.007825032070
           H         -4.587900241068    -1.246675615122    -0.449810381705     1.007825032070
           H         -3.830943241068    -2.563404615122     0.427593618295     1.007825032070
           C          2.278702758932     2.856215384878     0.824473618295    12.000000000000
           H          3.049995758932     2.385121384878     1.416677618295     1.007825032070
           H          1.949307758932     3.768500384878     1.296820618295     1.007825032070
           H          2.666133758932     3.064267384878    -0.162500381705     1.007825032070

  Charge       = 0
  Multiplicity = 1
  Basis Set: 6-31G*
  Basis Set:

    Orbital Energies (a.u.)
    -----------------------

    Doubly Occupied:

       1A    -20.603047     2A    -20.544406     3A    -11.370986
       4A    -11.280477     5A    -11.233870     6A    -11.218760
       7A    -11.218335     8A    -11.216941     9A    -11.210876
      10A     -1.468587    11A     -1.361925    12A     -1.098324
      13A     -1.038774    14A     -0.986830    15A     -0.932805
      16A     -0.855286    17A     -0.793691    18A     -0.758025
      19A     -0.700778    20A     -0.682888    21A     -0.670629
      22A     -0.648755    23A     -0.610809    24A     -0.600827
      25A     -0.579233    26A     -0.560199    27A     -0.552606
      28A     -0.526228    29A     -0.520794    30A     -0.512181
      31A     -0.495915    32A     -0.468329    33A     -0.458234
      34A     -0.455939    35A     -0.451605    36A     -0.436175

  @DF-RHF Final Energy:  -422.96627020553058

   => Energetics <=

    Nuclear Repulsion Energy =            462.1897762670062093
    One-Electron Energy =               -1492.0638690235143713
    Two-Electron Energy =                 606.9078225509755384
    DFT Exchange-Correlation Energy =       0.0000000000000000
    Empirical Dispersion Energy =           0.0000000000000000
    PCM Polarization Energy =               0.0000000000000000
    EFP Energy =                            0.0000000000000000
    Total Energy =                       -422.9662702055326235

  Mulliken Charges: (a.u.)
   Center  Symbol    Alpha    Beta     Spin     Total
       1     O     4.28620  4.28620  0.00000 -0.57241
       2     C     2.60229  2.60229  0.00000  0.79542
       3     C     3.21877  3.21877  0.00000 -0.43754
       4     O     4.30734  4.30734  0.00000 -0.61469
       5     C     3.15333  3.15333  0.00000 -0.30666
       6     H     0.40026  0.40026  0.00000  0.19948
       7     H     0.39650  0.39650  0.00000  0.20700
       8     C     3.15429  3.15429  0.00000 -0.30857
       9     H     0.40911  0.40911  0.00000  0.18179
      10     H     0.41079  0.41079  0.00000  0.17843
      11     C     3.16228  3.16228  0.00000 -0.32455
      12     H     0.41813  0.41813  0.00000  0.16373
      13     H     0.42134  0.42134  0.00000  0.15731
      14     C     3.23717  3.23717  0.00000 -0.47434
      15     H     0.42201  0.42201  0.00000  0.15597
      16     H     0.41928  0.41928  0.00000  0.16143
      17     H     0.42119  0.42119  0.00000  0.15762
      18     H     0.41915  0.41915  0.00000  0.16171
      19     H     0.42139  0.42139  0.00000  0.15722
      20     C     3.09232  3.09232  0.00000 -0.18465
      21     H     0.40912  0.40912  0.00000  0.18176
      22     H     0.40856  0.40856  0.00000  0.18288
      23     H     0.40917  0.40917  0.00000  0.18165

   Total alpha = 36.00000, Total beta = 36.00000, Total charge =  0.00000
