  ==> Input File <==

--------------------------------------------------------------------------
set {
	reference rhf
	basis 6-31G*
}

set_num_threads( 1 )
memory 2 gb

molecule MOL {
0 1

H	 2.160235	 -0.367401	 -0.693560
O	 1.586534	 -0.678666	 -0.000226
C	 0.489431	 0.077273	 0.000046
C	 -0.764129	 -0.759190	 0.000191
O	 0.537743	 1.263962	 0.000257
C	 -2.038368	 0.075731	 -0.000248
H	 -0.717284	 -1.412404	 -0.866059
H	 -0.717458	 -1.411724	 0.866967
H	 -2.086483	 0.712501	 -0.875098
H	 -2.908485	 -0.571682	 -0.000042
H	 -2.086576	 0.713280	 0.874068

	symmetry c1
}
set optking {
	frozen_dihedral = ("
		2 3 4 7
	")
}

ee = energy('scf')
oeprop('DIPOLE', 'QUADRUPOLE', 'MULLIKEN_CHARGES')
f=open( 'psi4out.xyz', 'w' )
f.write( "11  " )
f.write( str(ee) + "\n" )
f.write( MOL.save_string_xyz() )
f.close()
--------------------------------------------------------------------------

    Molecular point group: c1

    Geometry (in Angstrom), charge = 0, multiplicity = 1:

       Center              X                  Y                   Z               Mass
    ------------   -----------------  -----------------  -----------------  -----------------
           H          2.162733083534    -0.363778571801    -0.684121602280     1.007825032070
           O          1.589032083534    -0.675043571801     0.009212397720    15.994914619560
           C          0.491929083534     0.080895428199     0.009484397720    12.000000000000
           C         -0.761630916466    -0.755567571801     0.009629397720    12.000000000000
           O          0.540241083534     1.267584428199     0.009695397720    15.994914619560
           C         -2.035869916466     0.079353428199     0.009190397720    12.000000000000
           H         -0.714785916466    -1.408781571801    -0.856620602280     1.007825032070
           H         -0.714959916466    -1.408101571801     0.876405397720     1.007825032070
           H         -2.083984916466     0.716123428199    -0.865659602280     1.007825032070
           H         -2.905986916466    -0.568059571801     0.009396397720     1.007825032070
           H         -2.084077916466     0.716902428199     0.883506397720     1.007825032070

  Charge       = 0
  Multiplicity = 1
  Basis Set: 6-31G*
  Basis Set:

    Orbital Energies (a.u.)
    -----------------------

    Doubly Occupied:

       1A    -20.605151     2A    -20.556821     3A    -11.381299
       4A    -11.243663     5A    -11.219901     6A     -1.472710
       7A     -1.367868     8A     -1.064177     9A     -0.913644
      10A     -0.803951    11A     -0.707083    12A     -0.686096
      13A     -0.661686    14A     -0.611574    15A     -0.572632
      16A     -0.527431    17A     -0.524622    18A     -0.502998
      19A     -0.483181    20A     -0.445904

  @DF-RHF Final Energy:  -266.83336281002971

   => Energetics <=

    Nuclear Repulsion Energy =            179.7689452747787868
    One-Electron Energy =                -720.4998413520590930
    Two-Electron Energy =                 273.8975332672507648
    DFT Exchange-Correlation Energy =       0.0000000000000000
    Empirical Dispersion Energy =           0.0000000000000000
    PCM Polarization Energy =               0.0000000000000000
    EFP Energy =                            0.0000000000000000
    Total Energy =                       -266.8333628100294845

  Mulliken Charges: (a.u.)
   Center  Symbol    Alpha    Beta     Spin     Total
       1     H     0.26536  0.26536  0.00000  0.46928
       2     O     4.35415  4.35415  0.00000 -0.70830
       3     C     2.63312  2.63312  0.00000  0.73376
       4     C     3.20691  3.20691  0.00000 -0.41383
       5     O     4.26443  4.26443  0.00000 -0.52885
       6     C     3.24001  3.24001  0.00000 -0.48001
       7     H     0.40251  0.40251  0.00000  0.19497
       8     H     0.39755  0.39755  0.00000  0.20491
       9     H     0.41046  0.41046  0.00000  0.17908
      10     H     0.41713  0.41713  0.00000  0.16574
      11     H     0.40838  0.40838  0.00000  0.18324

   Total alpha = 20.00000, Total beta = 20.00000, Total charge = -0.00000
