  ==> Input File <==

--------------------------------------------------------------------------
set {
	reference rhf
	basis cc-pvtz
}

set_num_threads( 4 )
memory 2 gb

molecule MOL {
0 1

H	 -2.816458	 -0.841657	 -0.064679
N	 -1.878861	 -0.711874	 0.250184
C	 -1.341419	 0.551458	 -0.220231
H	 -1.333674	 -1.468530	 -0.105118
C	 0.082190	 0.731516	 0.254705
H	 -1.357065	 0.652078	 -1.304747
H	 -1.939897	 1.357530	 0.189797
O	 0.062635	 1.278028	 1.538703
H	 0.592677	 -0.230492	 0.265400
H	 0.613897	 1.392052	 -0.426403
C	 1.317247	 1.557769	 2.064930
H	 1.178533	 1.969921	 3.054009
H	 1.925042	 0.658815	 2.143416
H	 1.851970	 2.282165	 1.455107

	symmetry c1
}
set optking {
	frozen_dihedral = ("
		8 5 3 6
	")
}

ee = optimize('scf')
oeprop('DIPOLE', 'QUADRUPOLE', 'MULLIKEN_CHARGES')
f=open( 'psi4out.xyz', 'w' )
f.write( "14  " )
f.write( str(ee) + "\n" )
f.write( MOL.save_string_xyz() )
f.close()
--------------------------------------------------------------------------

    Molecular point group: c1
  Charge       = 0
  Multiplicity = 1
  Basis Set: CC-PVTZ
  Basis Set:
  @DF-RHF Final Energy:  -248.21992513166572
    Total Energy =                       -248.2199251316656046
    Molecular point group: c1
  Basis Set: CC-PVTZ
  Basis Set:
  Basis Set: CC-PVTZ
  Basis Set:
  @DF-RHF Final Energy:  -248.22054316384731
    Total Energy =                       -248.2205431638470827
  Basis Set: CC-PVTZ
  Basis Set:
  Basis Set: CC-PVTZ
  Basis Set:
  @DF-RHF Final Energy:  -248.22071677495970
    Total Energy =                       -248.2207167749596124
  Basis Set: CC-PVTZ
  Basis Set:
  Basis Set: CC-PVTZ
  Basis Set:
  @DF-RHF Final Energy:  -248.22075252657908
    Total Energy =                       -248.2207525265789627
  Basis Set: CC-PVTZ
  Basis Set:
  Basis Set: CC-PVTZ
  Basis Set:
  @DF-RHF Final Energy:  -248.22075808653545
    Total Energy =                       -248.2207580865355112
  Basis Set: CC-PVTZ
  Basis Set:
  Charge       = 0
  Multiplicity = 1
  Basis Set: CC-PVTZ
  Basis Set:

    Orbital Energies (a.u.)
    -----------------------

    Doubly Occupied:

       1A    -20.544312     2A    -15.527874     3A    -11.263570
       4A    -11.259036     5A    -11.240855     6A     -1.379759
       7A     -1.178574     8A     -0.999202     9A     -0.902088
      10A     -0.820420    11A     -0.682001    12A     -0.669870
      13A     -0.646500    14A     -0.620189    15A     -0.603136
      16A     -0.541467    17A     -0.523848    18A     -0.502641
      19A     -0.466782    20A     -0.414835    21A     -0.385599

  @DF-RHF Final Energy:  -248.22075842456169

   => Energetics <=

    Nuclear Repulsion Energy =            192.8594013507168654
    One-Electron Energy =                -719.8152070473171307
    Two-Electron Energy =                 278.7350472720385710
    DFT Exchange-Correlation Energy =       0.0000000000000000
    Empirical Dispersion Energy =           0.0000000000000000
    PCM Polarization Energy =               0.0000000000000000
    EFP Energy =                            0.0000000000000000
    Total Energy =                       -248.2207584245616658
    Molecular point group: c1
  Basis Set: CC-PVTZ
  Basis Set:

  -Total Gradient:
     Atom            X                  Y                   Z
    ------   -----------------  -----------------  -----------------
       1        0.000012190755    -0.000000145212     0.000002915405
       2       -0.000000698859     0.000032788975    -0.000008450234
       3        0.000696408547    -0.002751778090    -0.000564035874
       4       -0.000000036369     0.000010250099     0.000003555729
       5       -0.000034373721    -0.001980590305     0.001295201678
       6       -0.000607205311     0.002720211247     0.000215165436
       7       -0.000006819253    -0.000008870185    -0.000003616825
       8       -0.000052572462     0.001988072775    -0.000936765532
       9        0.000011137202    -0.000014183677    -0.000016716190
      10        0.000001084388    -0.000006978632    -0.000007322736
      11       -0.000015654901     0.000009548918     0.000032115801
      12        0.000011097352     0.000004407407     0.000006248288
      13       -0.000008338667     0.000002775387    -0.000011738285
      14       -0.000006218700    -0.000005508700    -0.000006556658

  **** Optimization is complete! (in 6 steps) ****
    Final optimized geometry and variables:
    Molecular point group: c1

    Geometry (in Angstrom), charge = 0, multiplicity = 1:

    H           -2.482774257277    -1.498655972750    -0.648867678898
    N           -1.497350185196    -1.426322008364    -0.514451462770
    C           -0.990371468183    -0.160799625409    -1.012921853199
    H           -1.074554133418    -2.196957358497    -0.987403198308
    C            0.425659476694     0.109657764374    -0.536653249278
    H           -1.015143802797    -0.074777474573    -2.099246746915
    H           -1.617417345795     0.633036015103    -0.627539539599
    O            0.395543720573     0.668163336388     0.737182848366
    H            1.001060617893    -0.815673316823    -0.535295660618
    H            0.916633661817     0.797685706582    -1.224802481716
    C            1.644932996231     0.859159139343     1.309835977008
    H            1.499068499437     1.309352201691     2.281064100917
    H            2.173799944166    -0.082880000467     1.437403317717
    H            2.264462434946     1.521527450428     0.707562638965

  Mulliken Charges: (a.u.)
   Center  Symbol    Alpha    Beta     Spin     Total
       1     H     0.42785  0.42785  0.00000  0.14431
       2     N     3.68886  3.68886  0.00000 -0.37771
       3     C     3.02560  3.02560  0.00000 -0.05119
       4     H     0.43202  0.43202  0.00000  0.13595
       5     C     2.95412  2.95412  0.00000  0.09175
       6     H     0.46796  0.46796  0.00000  0.06409
       7     H     0.45322  0.45322  0.00000  0.09356
       8     O     4.17019  4.17019  0.00000 -0.34038
       9     H     0.48078  0.48078  0.00000  0.03843
      10     H     0.47540  0.47540  0.00000  0.04920
      11     C     3.03139  3.03139  0.00000 -0.06278
      12     H     0.44705  0.44705  0.00000  0.10590
      13     H     0.47130  0.47130  0.00000  0.05739
      14     H     0.47426  0.47426  0.00000  0.05149

   Total alpha = 21.00000, Total beta = 21.00000, Total charge = -0.00000
