  ==> Input File <==

--------------------------------------------------------------------------
set {
	reference rhf
	basis 6-31G*
}

set_num_threads( 1 )
memory 2 gb

molecule MOL {
0 1

H	 3.840390	 0.214148	 0.413719
N	 3.092854	 -0.246221	 -0.068770
C	 1.865559	 0.531981	 0.018834
H	 2.973547	 -1.140361	 0.368390
C	 0.645745	 -0.382037	 -0.029944
H	 1.841966	 1.207024	 -0.831236
H	 1.815756	 1.155410	 0.915079
C	 -0.679275	 0.379305	 0.025956
H	 0.698998	 -0.976915	 -0.937203
H	 0.693479	 -1.083846	 0.802235
C	 -1.903357	 -0.536963	 -0.023547
H	 -0.726309	 1.082987	 -0.803784
H	 -0.717680	 0.977832	 0.934877
C	 -3.225172	 0.228290	 0.028445
H	 -1.867824	 -1.134999	 -0.931459
H	 -1.860449	 -1.239604	 0.805977
H	 -3.313397	 0.915643	 -0.808262
H	 -4.073500	 -0.448134	 -0.008893
H	 -3.306061	 0.809945	 0.942516

	symmetry c1
}
set optking {
	frozen_dihedral = ("
		6 3 5 9,
		12 8 5 9,
		12 8 11 15
	")
}

ee = energy('scf')
oeprop('DIPOLE', 'QUADRUPOLE', 'MULLIKEN_CHARGES')
f=open( 'psi4out.xyz', 'w' )
f.write( "19  " )
f.write( str(ee) + "\n" )
f.write( MOL.save_string_xyz() )
f.close()
--------------------------------------------------------------------------

    Molecular point group: c1

    Geometry (in Angstrom), charge = 0, multiplicity = 1:

       Center              X                  Y                   Z               Mass
    ------------   -----------------  -----------------  -----------------  -----------------
           H          3.843615185805     0.219419296007     0.412081461828     1.007825032070
           N          3.096079185805    -0.240949703993    -0.070407538172    14.003074004780
           C          1.868784185805     0.537252296007     0.017196461828    12.000000000000
           H          2.976772185805    -1.135089703993     0.366752461828     1.007825032070
           C          0.648970185805    -0.376765703993    -0.031581538172    12.000000000000
           H          1.845191185805     1.212295296007    -0.832873538172     1.007825032070
           H          1.818981185805     1.160681296007     0.913441461828     1.007825032070
           C         -0.676049814195     0.384576296007     0.024318461828    12.000000000000
           H          0.702223185805    -0.971643703993    -0.938840538172     1.007825032070
           H          0.696704185805    -1.078574703993     0.800597461828     1.007825032070
           C         -1.900131814195    -0.531691703993    -0.025184538172    12.000000000000
           H         -0.723083814195     1.088258296007    -0.805421538172     1.007825032070
           H         -0.714454814195     0.983103296007     0.933239461828     1.007825032070
           C         -3.221946814195     0.233561296007     0.026807461828    12.000000000000
           H         -1.864598814195    -1.129727703993    -0.933096538172     1.007825032070
           H         -1.857223814195    -1.234332703993     0.804339461828     1.007825032070
           H         -3.310171814195     0.920914296007    -0.809899538172     1.007825032070
           H         -4.070274814195    -0.442862703993    -0.010530538172     1.007825032070
           H         -3.302835814195     0.815216296007     0.940878461828     1.007825032070

  Charge       = 0
  Multiplicity = 1
  Basis Set: 6-31G*
  Basis Set:

    Orbital Energies (a.u.)
    -----------------------

    Doubly Occupied:

       1A    -15.530376     2A    -11.238866     3A    -11.216156
       4A    -11.215538     5A    -11.214839     6A    -11.209051
       7A     -1.176536     8A     -1.075108     9A     -0.999936
      10A     -0.900978    11A     -0.816660    12A     -0.793219
      13A     -0.655867    14A     -0.649492    15A     -0.614807
      16A     -0.594512    17A     -0.564997    18A     -0.543217
      19A     -0.539140    20A     -0.497757    21A     -0.486910
      22A     -0.468180    23A     -0.464033    24A     -0.449379
      25A     -0.378943

  @DF-RHF Final Energy:  -251.34915918202489

   => Energetics <=

    Nuclear Repulsion Energy =            245.9098036487550871
    One-Electron Energy =                -825.9289634148724417
    Two-Electron Energy =                 328.6700005840929180
    DFT Exchange-Correlation Energy =       0.0000000000000000
    Empirical Dispersion Energy =           0.0000000000000000
    PCM Polarization Energy =               0.0000000000000000
    EFP Energy =                            0.0000000000000000
    Total Energy =                       -251.3491591820244366

  Mulliken Charges: (a.u.)
   Center  Symbol    Alpha    Beta     Spin     Total
       1     H     0.33309  0.33309  0.00000  0.33382
       2     N     3.92591  3.92591  0.00000 -0.85181
       3     C     3.04977  3.04977  0.00000 -0.09954
       4     H     0.33451  0.33451  0.00000  0.33098
       5     C     3.16444  3.16444  0.00000 -0.32889
       6     H     0.41989  0.41989  0.00000  0.16023
       7     H     0.43363  0.43363  0.00000  0.13274
       8     C     3.15376  3.15376  0.00000 -0.30752
       9     H     0.41376  0.41376  0.00000  0.17248
      10     H     0.42722  0.42722  0.00000  0.14555
      11     C     3.15129  3.15129  0.00000 -0.30258
      12     H     0.42186  0.42186  0.00000  0.15628
      13     H     0.42379  0.42379  0.00000  0.15243
      14     C     3.23949  3.23949  0.00000 -0.47897
      15     H     0.42187  0.42187  0.00000  0.15625
      16     H     0.42334  0.42334  0.00000  0.15331
      17     H     0.42134  0.42134  0.00000  0.15732
      18     H     0.41906  0.41906  0.00000  0.16188
      19     H     0.42198  0.42198  0.00000  0.15605

   Total alpha = 25.00000, Total beta = 25.00000, Total charge =  0.00000
