  ==> Input File <==

--------------------------------------------------------------------------
set {
	reference rhf
	basis 6-31G*
}

set_num_threads( 1 )
memory 2 gb

molecule MOL {
0 1

O	 1.619439	 1.023653	 0.764598
C	 1.705091	 0.115954	 0.001797
C	 0.705619	 -0.221665	 -1.077525
O	 2.721346	 -0.737485	 -0.000216
C	 -0.484770	 0.731601	 -1.121133
H	 1.239577	 -0.228370	 -2.023864
H	 0.383678	 -1.246339	 -0.912855
C	 -1.480220	 0.367020	 -2.223504
H	 -0.125854	 1.745319	 -1.268591
H	 -0.983319	 0.725515	 -0.156912
C	 -2.680364	 1.313633	 -2.282128
H	 -0.973416	 0.371354	 -3.187417
H	 -1.834636	 -0.651380	 -2.071413
C	 -3.675239	 0.948128	 -3.382981
H	 -2.328148	 2.331093	 -2.436594
H	 -3.188184	 1.309736	 -1.320233
H	 -3.205244	 0.976990	 -4.362004
H	 -4.514226	 1.636822	 -3.398897
H	 -4.071791	 -0.052745	 -3.236999
C	 4.024888	 -0.184556	 -0.001949
H	 4.179030	 0.422472	 -0.882452
H	 4.701782	 -1.024608	 -0.003642
H	 4.181981	 0.421185	 0.878906

	symmetry c1
}
set optking {
	frozen_dihedral = ("
		15 11 8 12,
		9 5 8 12,
		1 2 3 6,
		9 5 3 6
	")
}

ee = energy('scf')
oeprop('DIPOLE', 'QUADRUPOLE', 'MULLIKEN_CHARGES')
f=open( 'psi4out.xyz', 'w' )
f.write( "23  " )
f.write( str(ee) + "\n" )
f.write( MOL.save_string_xyz() )
f.close()
--------------------------------------------------------------------------

    Molecular point group: c1

    Geometry (in Angstrom), charge = 0, multiplicity = 1:

       Center              X                  Y                   Z               Mass
    ------------   -----------------  -----------------  -----------------  -----------------
           O          1.310286031951     0.653102622068     1.789941979286    15.994914619560
           C          1.395938031951    -0.254596377932     1.027140979286    12.000000000000
           C          0.396466031951    -0.592215377932    -0.052181020714    12.000000000000
           O          2.412193031951    -1.108035377932     1.025127979286    15.994914619560
           C         -0.793922968049     0.361050622068    -0.095789020714    12.000000000000
           H          0.930424031951    -0.598920377932    -0.998520020714     1.007825032070
           H          0.074525031951    -1.616889377932     0.112488979286     1.007825032070
           C         -1.789372968049    -0.003530377932    -1.198160020714    12.000000000000
           H         -0.435006968049     1.374768622068    -0.243247020714     1.007825032070
           H         -1.292471968049     0.354964622068     0.868431979286     1.007825032070
           C         -2.989516968049     0.943082622068    -1.256784020714    12.000000000000
           H         -1.282568968049     0.000803622068    -2.162073020714     1.007825032070
           H         -2.143788968049    -1.021930377932    -1.046069020714     1.007825032070
           C         -3.984391968049     0.577577622068    -2.357637020714    12.000000000000
           H         -2.637300968049     1.960542622068    -1.411250020714     1.007825032070
           H         -3.497336968049     0.939185622068    -0.294889020714     1.007825032070
           H         -3.514396968049     0.606439622068    -3.336660020714     1.007825032070
           H         -4.823378968049     1.266271622068    -2.373553020714     1.007825032070
           H         -4.380943968049    -0.423295377932    -2.211655020714     1.007825032070
           C          3.715735031951    -0.555106377932     1.023394979286    12.000000000000
           H          3.869877031951     0.051921622068     0.142891979286     1.007825032070
           H          4.392629031951    -1.395158377932     1.021701979286     1.007825032070
           H          3.872828031951     0.050634622068     1.904249979286     1.007825032070

  Charge       = 0
  Multiplicity = 1
  Basis Set: 6-31G*
  Basis Set:

    Orbital Energies (a.u.)
    -----------------------

    Doubly Occupied:

       1A    -20.592975     2A    -20.550131     3A    -11.373075
       4A    -11.287262     5A    -11.235957     6A    -11.219245
       7A    -11.218161     8A    -11.216730     9A    -11.209919
      10A     -1.466101    11A     -1.364146    12A     -1.093197
      13A     -1.042566    14A     -0.986660    15A     -0.936159
      16A     -0.845871    17A     -0.795459    18A     -0.767693
      19A     -0.696310    20A     -0.681461    21A     -0.672833
      22A     -0.650427    23A     -0.610696    24A     -0.605046
      25A     -0.575702    26A     -0.565590    27A     -0.554485
      28A     -0.532384    29A     -0.508764    30A     -0.506522
      31A     -0.485185    32A     -0.471437    33A     -0.468099
      34A     -0.465495    35A     -0.451279    36A     -0.431103

  @DF-RHF Final Energy:  -422.96435681695095

   => Energetics <=

    Nuclear Repulsion Energy =            452.5888335928942752
    One-Electron Energy =               -1472.8381355661808811
    Two-Electron Energy =                 597.2849451563374714
    DFT Exchange-Correlation Energy =       0.0000000000000000
    Empirical Dispersion Energy =           0.0000000000000000
    PCM Polarization Energy =               0.0000000000000000
    EFP Energy =                            0.0000000000000000
    Total Energy =                       -422.9643568169491346

  Mulliken Charges: (a.u.)
   Center  Symbol    Alpha    Beta     Spin     Total
       1     O     4.27317  4.27317  0.00000 -0.54634
       2     C     2.60615  2.60615  0.00000  0.78769
       3     C     3.21035  3.21035  0.00000 -0.42070
       4     O     4.31052  4.31052  0.00000 -0.62103
       5     C     3.15335  3.15335  0.00000 -0.30670
       6     H     0.40472  0.40472  0.00000  0.19057
       7     H     0.39924  0.39924  0.00000  0.20152
       8     C     3.15311  3.15311  0.00000 -0.30623
       9     H     0.41274  0.41274  0.00000  0.17451
      10     H     0.41097  0.41097  0.00000  0.17805
      11     C     3.15151  3.15151  0.00000 -0.30302
      12     H     0.42472  0.42472  0.00000  0.15056
      13     H     0.42371  0.42371  0.00000  0.15257
      14     C     3.23957  3.23957  0.00000 -0.47914
      15     H     0.42159  0.42159  0.00000  0.15682
      16     H     0.42107  0.42107  0.00000  0.15786
      17     H     0.42204  0.42204  0.00000  0.15593
      18     H     0.41844  0.41844  0.00000  0.16312
      19     H     0.42169  0.42169  0.00000  0.15661
      20     C     3.09502  3.09502  0.00000 -0.19003
      21     H     0.41832  0.41832  0.00000  0.16337
      22     H     0.40544  0.40544  0.00000  0.18913
      23     H     0.40256  0.40256  0.00000  0.19488

   Total alpha = 36.00000, Total beta = 36.00000, Total charge =  0.00000
