  ==> Input File <==

--------------------------------------------------------------------------
set {
	reference rhf
	basis 6-31G*
}

set_num_threads( 4 )
memory 2 gb

molecule MOL {
0 1

O	 -0.682937	 1.318834	 -0.186099
C	 -0.860635	 0.152188	 -0.042321
C	 -2.173363	 -0.477127	 0.338347
O	 0.083258	 -0.765189	 -0.202595
H	 -2.477673	 -1.180929	 -0.427595
H	 -2.923125	 0.290956	 0.455536
H	 -2.058825	 -1.029004	 1.264191
C	 1.391937	 -0.334737	 -0.569838
C	 1.532308	 -0.202544	 -2.074986
H	 2.118328	 -1.024146	 -0.167083
H	 1.508168	 0.623560	 -0.084393
H	 2.511452	 0.198252	 -2.318645
H	 1.429493	 -1.166025	 -2.558205
H	 0.780200	 0.471493	 -2.470489

	symmetry c1
}
set optking {
	frozen_dihedral = ("
		10 8 4 2
	")
}

ee = optimize('scf')
oeprop('DIPOLE', 'QUADRUPOLE', 'MULLIKEN_CHARGES')
f=open( 'psi4out.xyz', 'w' )
f.write( "14  " )
f.write( str(ee) + "\n" )
f.write( MOL.save_string_xyz() )
f.close()
--------------------------------------------------------------------------

    Molecular point group: c1
  Charge       = 0
  Multiplicity = 1
  Basis Set: 6-31G*
  Basis Set:
  @DF-RHF Final Energy:  -305.87361146852231
    Total Energy =                       -305.8736114685220855
    Molecular point group: c1
  Basis Set: 6-31G*
  Basis Set:
  Basis Set: 6-31G*
  Basis Set:
  @DF-RHF Final Energy:  -305.87504703549547
    Total Energy =                       -305.8750470354953563
  Basis Set: 6-31G*
  Basis Set:
  Basis Set: 6-31G*
  Basis Set:
  @DF-RHF Final Energy:  -305.87536449157767
    Total Energy =                       -305.8753644915777841
  Basis Set: 6-31G*
  Basis Set:
  Basis Set: 6-31G*
  Basis Set:
  @DF-RHF Final Energy:  -305.87510967945377
    Total Energy =                       -305.8751096794539421
  Basis Set: 6-31G*
  Basis Set:
  Basis Set: 6-31G*
  Basis Set:
  @DF-RHF Final Energy:  -305.87539052996829
    Total Energy =                       -305.8753905299680582
  Basis Set: 6-31G*
  Basis Set:
  Charge       = 0
  Multiplicity = 1
  Basis Set: 6-31G*
  Basis Set:

    Orbital Energies (a.u.)
    -----------------------

    Doubly Occupied:

       1A    -20.601763     2A    -20.544601     3A    -11.376058
       4A    -11.284809     5A    -11.233327     6A    -11.219255
       7A     -1.467396     8A     -1.362931     9A     -1.055363
      10A     -0.998917    11A     -0.881909    12A     -0.766990
      13A     -0.699099    14A     -0.682035    15A     -0.656673
      16A     -0.610536    17A     -0.586407    18A     -0.569925
      19A     -0.559789    20A     -0.528473    21A     -0.517346
      22A     -0.494094    23A     -0.450174    24A     -0.439420

  @DF-RHF Final Energy:  -305.87539121146341

   => Energetics <=

    Nuclear Repulsion Energy =            248.4016795260387767
    One-Electron Energy =                -909.3795616375309692
    Two-Electron Energy =                 355.1024909000287835
    DFT Exchange-Correlation Energy =       0.0000000000000000
    Empirical Dispersion Energy =           0.0000000000000000
    PCM Polarization Energy =               0.0000000000000000
    EFP Energy =                            0.0000000000000000
    Total Energy =                       -305.8753912114633522
    Molecular point group: c1
  Basis Set: 6-31G*
  Basis Set:

  -Total Gradient:
     Atom            X                  Y                   Z
    ------   -----------------  -----------------  -----------------
       1       -0.000011161584     0.000032638843    -0.000006188679
       2        0.000234009336     0.000049492382     0.000809288048
       3        0.000019213850    -0.000000580881    -0.000008557727
       4       -0.000272554283    -0.000017629612    -0.001029602097
       5       -0.000000979349    -0.000004753043     0.000000244309
       6        0.000010886966     0.000004211065    -0.000002349369
       7        0.000002058112     0.000002047976     0.000002840489
       8        0.000075077473    -0.000565062538    -0.000658477657
       9       -0.000059026928    -0.000005992389     0.000055066100
      10        0.000017217792     0.000480794992     0.000807136901
      11       -0.000023325822     0.000017841926     0.000010988930
      12        0.000010762201    -0.000001731575     0.000016776395
      13        0.000008491087     0.000006455746     0.000001013509
      14       -0.000010668848     0.000002267106     0.000001820848

  **** Optimization is complete! (in 6 steps) ****
    Final optimized geometry and variables:
    Molecular point group: c1

    Geometry (in Angstrom), charge = 0, multiplicity = 1:

    O           -0.601903717503     1.367036106653     0.279962956027
    C           -0.755595430532     0.196540090352     0.419158068204
    C           -2.051496899759    -0.459388658837     0.812198897902
    O            0.203471211093    -0.702975355854     0.245686176991
    H           -2.351897307869    -1.163998641834     0.045356031881
    H           -2.814039554929     0.293818669226     0.942691061471
    H           -1.915515666860    -1.014747978611     1.732969965745
    C            1.508350208781    -0.248601150592    -0.105910623045
    C            1.667796930730    -0.158376902441    -1.611505466288
    H            2.179386576077    -0.981454806032     0.319012883067
    H            1.690453882125     0.705232570254     0.364458447352
    H            2.686527028977     0.123819319260    -1.858875747012
    H            1.455179221837    -1.114295310675    -2.077427057770
    H            0.999046444438     0.588010996394    -2.023196069499

  Mulliken Charges: (a.u.)
   Center  Symbol    Alpha    Beta     Spin     Total
       1     O     4.28441  4.28441  0.00000 -0.56883
       2     C     2.61998  2.61998  0.00000  0.76004
       3     C     3.28166  3.28166  0.00000 -0.56331
       4     O     4.30720  4.30720  0.00000 -0.61441
       5     H     0.40041  0.40041  0.00000  0.19917
       6     H     0.39707  0.39707  0.00000  0.20585
       7     H     0.40028  0.40028  0.00000  0.19945
       8     C     3.00841  3.00841  0.00000 -0.01682
       9     C     3.25283  3.25283  0.00000 -0.50566
      10     H     0.41047  0.41047  0.00000  0.17907
      11     H     0.40100  0.40100  0.00000  0.19801
      12     H     0.41755  0.41755  0.00000  0.16489
      13     H     0.41394  0.41394  0.00000  0.17212
      14     H     0.40479  0.40479  0.00000  0.19042

   Total alpha = 24.00000, Total beta = 24.00000, Total charge = -0.00000
