  ==> Input File <==

--------------------------------------------------------------------------
set {
	reference rhf
	basis 6-31G*
}

set_num_threads( 1 )
memory 2 gb

molecule MOL {
0 1

H	 -3.135461	 -1.215070	 0.001379
O	 -2.310168	 -0.871793	 -0.309793
C	 -2.026376	 0.340750	 0.341611
C	 -0.673256	 0.843270	 -0.132153
H	 -2.792215	 1.080697	 0.115987
H	 -2.013526	 0.200402	 1.421792
C	 0.486613	 -0.083066	 0.235839
H	 -0.715586	 0.970948	 -1.210718
H	 -0.508072	 1.829858	 0.297090
C	 0.071027	 -1.211879	 1.180764
H	 1.278018	 0.502220	 0.692602
H	 0.904565	 -0.512788	 -0.673829
C	 1.228838	 -2.141023	 1.543860
H	 -0.345853	 -0.784065	 2.090106
H	 -0.727499	 -1.793035	 0.723535
H	 2.029268	 -1.594859	 2.034682
H	 0.905456	 -2.929860	 2.216248
H	 1.646277	 -2.611941	 0.658145

	symmetry c1
}
set optking {
	frozen_dihedral = ("
		14 10 7 11,
		2 3 4 8,
		1 2 3 4
	")
}

ee = energy('scf')
oeprop('DIPOLE', 'QUADRUPOLE', 'MULLIKEN_CHARGES')
f=open( 'psi4out.xyz', 'w' )
f.write( "18  " )
f.write( str(ee) + "\n" )
f.write( MOL.save_string_xyz() )
f.close()
--------------------------------------------------------------------------

    Molecular point group: c1

    Geometry (in Angstrom), charge = 0, multiplicity = 1:

       Center              X                  Y                   Z               Mass
    ------------   -----------------  -----------------  -----------------  -----------------
           H         -2.551838607193    -0.671541474827    -0.469922953661     1.007825032070
           O         -1.726545607193    -0.328264474827    -0.781094953661    15.994914619560
           C         -1.442753607193     0.884278525173    -0.129690953661    12.000000000000
           C         -0.089633607193     1.386798525173    -0.603454953661    12.000000000000
           H         -2.208592607193     1.624225525173    -0.355314953661     1.007825032070
           H         -1.429903607193     0.743930525173     0.950490046339     1.007825032070
           C          1.070235392807     0.460462525173    -0.235462953661    12.000000000000
           H         -0.131963607193     1.514476525173    -1.682019953661     1.007825032070
           H          0.075550392807     2.373386525173    -0.174211953661     1.007825032070
           C          0.654649392807    -0.668350474827     0.709462046339    12.000000000000
           H          1.861640392807     1.045748525173     0.221300046339     1.007825032070
           H          1.488187392807     0.030740525173    -1.145130953661     1.007825032070
           C          1.812460392807    -1.597494474827     1.072558046339    12.000000000000
           H          0.237769392807    -0.240536474827     1.618804046339     1.007825032070
           H         -0.143876607193    -1.249506474827     0.252233046339     1.007825032070
           H          2.612890392807    -1.051330474827     1.563380046339     1.007825032070
           H          1.489078392807    -2.386331474827     1.744946046339     1.007825032070
           H          2.229899392807    -2.068412474827     0.186843046339     1.007825032070

  Charge       = 0
  Multiplicity = 1
  Basis Set: 6-31G*
  Basis Set:

    Orbital Energies (a.u.)
    -----------------------

    Doubly Occupied:

       1A    -20.555562     2A    -11.267935     3A    -11.211298
       4A    -11.205569     5A    -11.198897     6A    -11.198128
       7A     -1.364378     8A     -1.074390     9A     -1.002130
      10A     -0.911059    11A     -0.834297    12A     -0.762145
      13A     -0.709378    14A     -0.647309    15A     -0.623581
      16A     -0.581647    17A     -0.562100    18A     -0.553308
      19A     -0.535083    20A     -0.493311    21A     -0.490004
      22A     -0.470229    23A     -0.451022    24A     -0.440465
      25A     -0.418564

  @DF-RHF Final Energy:  -271.16440764060172

   => Energetics <=

    Nuclear Repulsion Energy =            260.0006995156390417
    One-Electron Energy =                -883.2065322911777230
    Two-Electron Energy =                 352.0414251349370716
    DFT Exchange-Correlation Energy =       0.0000000000000000
    Empirical Dispersion Energy =           0.0000000000000000
    PCM Polarization Energy =               0.0000000000000000
    EFP Energy =                            0.0000000000000000
    Total Energy =                       -271.1644076406016666

  Mulliken Charges: (a.u.)
   Center  Symbol    Alpha    Beta     Spin     Total
       1     H     0.28059  0.28059  0.00000  0.43882
       2     O     4.36791  4.36791  0.00000 -0.73581
       3     C     3.00931  3.00931  0.00000 -0.01862
       4     C     3.16084  3.16084  0.00000 -0.32167
       5     H     0.42511  0.42511  0.00000  0.14978
       6     H     0.42804  0.42804  0.00000  0.14393
       7     C     3.15123  3.15123  0.00000 -0.30245
       8     H     0.41239  0.41239  0.00000  0.17523
       9     H     0.42157  0.42157  0.00000  0.15685
      10     C     3.16946  3.16946  0.00000 -0.33893
      11     H     0.42311  0.42311  0.00000  0.15377
      12     H     0.41875  0.41875  0.00000  0.16250
      13     C     3.23587  3.23587  0.00000 -0.47174
      14     H     0.42980  0.42980  0.00000  0.14039
      15     H     0.39462  0.39462  0.00000  0.21076
      16     H     0.42591  0.42591  0.00000  0.14819
      17     H     0.42272  0.42272  0.00000  0.15455
      18     H     0.42277  0.42277  0.00000  0.15445

   Total alpha = 25.00000, Total beta = 25.00000, Total charge = -0.00000
