  ==> Input File <==

--------------------------------------------------------------------------
set {
	reference rhf
	basis 6-31G*
}

set_num_threads( 1 )
memory 2 gb

molecule MOL {
0 1

O	 -1.806910	 0.941989	 0.621715
C	 -1.083277	 0.139568	 0.115197
C	 0.323299	 -0.082943	 0.642902
C	 -1.515043	 -0.673772	 -1.084755
C	 1.355627	 -0.005344	 -0.493127
H	 0.396251	 -1.044647	 1.143147
H	 0.528637	 0.693580	 1.371677
C	 2.786168	 -0.195604	 0.007473
H	 1.132807	 -0.760304	 -1.243899
H	 1.259610	 0.958506	 -0.981915
H	 3.495561	 -0.130713	 -0.811210
H	 2.912696	 -1.165395	 0.480041
H	 3.049284	 0.565503	 0.735850
H	 -0.779714	 -0.605548	 -1.881188
H	 -2.475239	 -0.327067	 -1.440501
H	 -1.590307	 -1.721862	 -0.807180

	symmetry c1
}
set optking {
	frozen_dihedral = ("
		9 5 3 2
	")
}

ee = energy('scf')
oeprop('DIPOLE', 'QUADRUPOLE', 'MULLIKEN_CHARGES')
f=open( 'psi4out.xyz', 'w' )
f.write( "16  " )
f.write( str(ee) + "\n" )
f.write( MOL.save_string_xyz() )
f.close()
--------------------------------------------------------------------------

    Molecular point group: c1

    Geometry (in Angstrom), charge = 0, multiplicity = 1:

       Center              X                  Y                   Z               Mass
    ------------   -----------------  -----------------  -----------------  -----------------
           O         -1.824238886309     0.922421204625     0.659653654139    15.994914619560
           C         -1.100605886309     0.120000204625     0.153135654139    12.000000000000
           C          0.305970113691    -0.102510795375     0.680840654139    12.000000000000
           C         -1.532371886309    -0.693339795375    -1.046816345861    12.000000000000
           C          1.338298113691    -0.024911795375    -0.455188345861    12.000000000000
           H          0.378922113691    -1.064214795375     1.181085654139     1.007825032070
           H          0.511308113691     0.674012204625     1.409615654139     1.007825032070
           C          2.768839113691    -0.215171795375     0.045411654139    12.000000000000
           H          1.115478113691    -0.779871795375    -1.205960345861     1.007825032070
           H          1.242281113691     0.938938204625    -0.943976345861     1.007825032070
           H          3.478232113691    -0.150280795375    -0.773271345861     1.007825032070
           H          2.895367113691    -1.184962795375     0.517979654139     1.007825032070
           H          3.031955113691     0.545935204625     0.773788654139     1.007825032070
           H         -0.797042886309    -0.625115795375    -1.843249345861     1.007825032070
           H         -2.492567886309    -0.346634795375    -1.402562345861     1.007825032070
           H         -1.607635886309    -1.741429795375    -0.769241345861     1.007825032070

  Charge       = 0
  Multiplicity = 1
  Basis Set: 6-31G*
  Basis Set:

    Orbital Energies (a.u.)
    -----------------------

    Doubly Occupied:

       1A    -20.548301     2A    -11.324676     3A    -11.234765
       4A    -11.230287     5A    -11.227589     6A    -11.221132
       7A     -1.393429     8A     -1.087579     9A     -1.010075
      10A     -0.950912    11A     -0.833047    12A     -0.735547
      13A     -0.658272    14A     -0.652886    15A     -0.619725
      16A     -0.605344    17A     -0.577994    18A     -0.554396
      19A     -0.535991    20A     -0.518321    21A     -0.505751
      22A     -0.485865    23A     -0.474570    24A     -0.398339

  @DF-RHF Final Energy:  -270.02703858603900

   => Energetics <=

    Nuclear Repulsion Energy =            237.9382347243774518
    One-Electron Energy =                -837.1609894466251944
    Two-Electron Energy =                 329.1957161362092279
    DFT Exchange-Correlation Energy =       0.0000000000000000
    Empirical Dispersion Energy =           0.0000000000000000
    PCM Polarization Energy =               0.0000000000000000
    EFP Energy =                            0.0000000000000000
    Total Energy =                       -270.0270385860384863

  Mulliken Charges: (a.u.)
   Center  Symbol    Alpha    Beta     Spin     Total
       1     O     4.26127  4.26127  0.00000 -0.52253
       2     C     2.73240  2.73240  0.00000  0.53519
       3     C     3.20268  3.20268  0.00000 -0.40536
       4     C     3.29281  3.29281  0.00000 -0.58562
       5     C     3.16874  3.16874  0.00000 -0.33749
       6     H     0.40950  0.40950  0.00000  0.18100
       7     H     0.39908  0.39908  0.00000  0.20183
       8     C     3.23870  3.23870  0.00000 -0.47741
       9     H     0.41840  0.41840  0.00000  0.16319
      10     H     0.41356  0.41356  0.00000  0.17288
      11     H     0.41591  0.41591  0.00000  0.16818
      12     H     0.41984  0.41984  0.00000  0.16033
      13     H     0.41736  0.41736  0.00000  0.16529
      14     H     0.40617  0.40617  0.00000  0.18765
      15     H     0.39588  0.39588  0.00000  0.20824
      16     H     0.40769  0.40769  0.00000  0.18462

   Total alpha = 24.00000, Total beta = 24.00000, Total charge =  0.00000
