  ==> Input File <==

--------------------------------------------------------------------------
set {
	reference rhf
	basis cc-pvtz
}

set_num_threads( 4 )
memory 2 gb

molecule MOL {
0 1

H	 2.828711	 -0.346904	 0.001083
C	 1.876752	 0.015931	 -0.363450
C	 0.776285	 -0.474665	 0.563092
H	 1.728113	 -0.357244	 -1.367440
H	 1.906171	 1.096574	 -0.386153
N	 -0.540022	 0.017605	 0.071630
H	 0.707111	 -1.548969	 0.573035
H	 0.886169	 -0.084184	 1.560432
O	 -0.550159	 1.049932	 -0.510086
O	 -1.492347	 -0.642375	 0.320428

	symmetry c1
}
set optking {
	frozen_dihedral = ("
		9 6 3 2
	")
}

ee = optimize('scf')
oeprop('DIPOLE', 'QUADRUPOLE', 'MULLIKEN_CHARGES')
f=open( 'psi4out.xyz', 'w' )
f.write( "10  " )
f.write( str(ee) + "\n" )
f.write( MOL.save_string_xyz() )
f.close()
--------------------------------------------------------------------------

    Molecular point group: c1
  Charge       = 0
  Multiplicity = 1
  Basis Set: CC-PVTZ
  Basis Set:
  @DF-RHF Final Energy:  -282.81184566116758
    Total Energy =                       -282.8118456611678084
    Molecular point group: c1
  Basis Set: CC-PVTZ
  Basis Set:
  Basis Set: CC-PVTZ
  Basis Set:
  @DF-RHF Final Energy:  -282.81232592953921
    Total Energy =                       -282.8123259295391563
  Basis Set: CC-PVTZ
  Basis Set:
  Basis Set: CC-PVTZ
  Basis Set:
  @DF-RHF Final Energy:  -282.81288720454825
    Total Energy =                       -282.8128872045481899
  Basis Set: CC-PVTZ
  Basis Set:
  Basis Set: CC-PVTZ
  Basis Set:
  @DF-RHF Final Energy:  -282.81292284739243
    Total Energy =                       -282.8129228473924286
  Basis Set: CC-PVTZ
  Basis Set:
  Basis Set: CC-PVTZ
  Basis Set:
  @DF-RHF Final Energy:  -282.81287082829374
    Total Energy =                       -282.8128708282939101
  Basis Set: CC-PVTZ
  Basis Set:
  Charge       = 0
  Multiplicity = 1
  Basis Set: CC-PVTZ
  Basis Set:

    Orbital Energies (a.u.)
    -----------------------

    Doubly Occupied:

       1A    -20.593005     2A    -20.591266     3A    -15.839435
       4A    -11.302970     5A    -11.244745     6A     -1.638502
       7A     -1.422803     8A     -1.124294     9A     -0.966989
      10A     -0.835899    11A     -0.764348    12A     -0.748929
      13A     -0.732025    14A     -0.644200    15A     -0.593110
      16A     -0.564066    17A     -0.539325    18A     -0.489979
      19A     -0.479685    20A     -0.455865

  @DF-RHF Final Energy:  -282.81296616180003

   => Energetics <=

    Nuclear Repulsion Energy =            186.5753217183957418
    One-Electron Energy =                -755.6336985999383842
    Two-Electron Energy =                 286.2454107197424946
    DFT Exchange-Correlation Energy =       0.0000000000000000
    Empirical Dispersion Energy =           0.0000000000000000
    PCM Polarization Energy =               0.0000000000000000
    EFP Energy =                            0.0000000000000000
    Total Energy =                       -282.8129661618002046
    Molecular point group: c1
  Basis Set: CC-PVTZ
  Basis Set:

  -Total Gradient:
     Atom            X                  Y                   Z
    ------   -----------------  -----------------  -----------------
       1       -0.000018812355    -0.000017341182     0.000028867684
       2       -0.000011458938     0.000114037037     0.000035641168
       3       -0.000006326808    -0.000226806054    -0.000258769737
       4        0.000013357987     0.000014792364     0.000012159054
       5       -0.000013014676     0.000018968552    -0.000004219812
       6       -0.000143141962     0.000278049335     0.000305281050
       7       -0.000021430359     0.000021682708     0.000005869789
       8        0.000007101595     0.000024612160     0.000031421933
       9        0.000175845904    -0.000092534479    -0.000184526941
      10        0.000017879611    -0.000135460438     0.000028275810

  **** Optimization is complete! (in 6 steps) ****
    Final optimized geometry and variables:
    Molecular point group: c1

    Geometry (in Angstrom), charge = 0, multiplicity = 1:

    H            2.850742493336    -0.383757535802     0.001706421517
    C            1.920572548669     0.017597824893    -0.381091228242
    C            0.796164818517    -0.455004681331     0.513633979264
    H            1.788293632141    -0.336208065622    -1.394789728772
    H            1.985529415185     1.094252812689    -0.397264837920
    N           -0.546277941305     0.019982111333     0.061833777933
    H            0.712757296015    -1.526990330064     0.562296093019
    H            0.889922831023    -0.069538064684     1.519516444071
    O           -0.607307251598     1.054850787644    -0.510249950519
    O           -1.471034701862    -0.667172784921     0.338312734461

  Mulliken Charges: (a.u.)
   Center  Symbol    Alpha    Beta     Spin     Total
       1     H     0.44934  0.44934  0.00000  0.10133
       2     C     3.13986  3.13986  0.00000 -0.27971
       3     C     3.04183  3.04183  0.00000 -0.08366
       4     H     0.44482  0.44482  0.00000  0.11036
       5     H     0.43746  0.43746  0.00000  0.12507
       6     N     3.27682  3.27682  0.00000  0.44636
       7     H     0.43129  0.43129  0.00000  0.13743
       8     H     0.43623  0.43623  0.00000  0.12755
       9     O     4.17107  4.17107  0.00000 -0.34214
      10     O     4.17129  4.17129  0.00000 -0.34257

   Total alpha = 20.00000, Total beta = 20.00000, Total charge =  0.00000
