  ==> Input File <==

--------------------------------------------------------------------------
set {
	reference rhf
	basis 6-31G*
}

set_num_threads( 1 )
memory 2 gb

molecule MOL {
0 1

O	 1.214711	 1.306902	 -0.000018
C	 1.122059	 0.121804	 -0.000188
C	 -0.170150	 -0.657997	 -0.000612
O	 2.172624	 -0.688929	 0.000216
C	 -1.412532	 0.227344	 -0.000452
H	 -0.153702	 -1.313099	 -0.867402
H	 -0.153924	 -1.313811	 0.865644
C	 -1.697040	 0.829660	 1.376369
H	 -2.267221	 -0.354426	 -0.331442
H	 -1.287141	 1.020921	 -0.730532
C	 -2.939475	 1.719199	 1.385249
H	 -1.821039	 0.030306	 2.104197
H	 -0.836539	 1.409350	 1.704347
H	 -3.823744	 1.159484	 1.094663
H	 -3.118822	 2.133126	 2.372556
H	 -2.831958	 2.548706	 0.692429
C	 3.452279	 -0.082609	 0.000533
H	 3.583069	 0.529321	 -0.880332
H	 4.163299	 -0.894027	 0.001117
H	 3.582335	 0.529955	 0.881077

	symmetry c1
}
set optking {
	frozen_dihedral = ("
		9 5 8 12,
		1 2 3 6,
		1 2 4 17
	")
}

ee = energy('scf')
oeprop('DIPOLE', 'QUADRUPOLE', 'MULLIKEN_CHARGES')
f=open( 'psi4out.xyz', 'w' )
f.write( "20  " )
f.write( str(ee) + "\n" )
f.write( MOL.save_string_xyz() )
f.close()
--------------------------------------------------------------------------

    Molecular point group: c1

    Geometry (in Angstrom), charge = 0, multiplicity = 1:

       Center              X                  Y                   Z               Mass
    ------------   -----------------  -----------------  -----------------  -----------------
           O          0.961121759753     0.951107349760    -0.345409376674    15.994914619560
           C          0.868469759753    -0.233990650240    -0.345579376674    12.000000000000
           C         -0.423739240247    -1.013791650240    -0.346003376674    12.000000000000
           O          1.919034759753    -1.044723650240    -0.345175376674    15.994914619560
           C         -1.666121240247    -0.128450650240    -0.345843376674    12.000000000000
           H         -0.407291240247    -1.668893650240    -1.212793376674     1.007825032070
           H         -0.407513240247    -1.669605650240     0.520252623326     1.007825032070
           C         -1.950629240247     0.473865349760     1.030977623326    12.000000000000
           H         -2.520810240247    -0.710220650240    -0.676833376674     1.007825032070
           H         -1.540730240247     0.665126349760    -1.075923376674     1.007825032070
           C         -3.193064240247     1.363404349760     1.039857623326    12.000000000000
           H         -2.074628240247    -0.325488650240     1.758805623326     1.007825032070
           H         -1.090128240247     1.053555349760     1.358955623326     1.007825032070
           H         -4.077333240247     0.803689349760     0.749271623326     1.007825032070
           H         -3.372411240247     1.777331349760     2.027164623326     1.007825032070
           H         -3.085547240247     2.192911349760     0.347037623326     1.007825032070
           C          3.198689759753    -0.438403650240    -0.344858376674    12.000000000000
           H          3.329479759753     0.173526349760    -1.225723376674     1.007825032070
           H          3.909709759753    -1.249821650240    -0.344274376674     1.007825032070
           H          3.328745759753     0.174160349760     0.535685623326     1.007825032070

  Charge       = 0
  Multiplicity = 1
  Basis Set: 6-31G*
  Basis Set:

    Orbital Energies (a.u.)
    -----------------------

    Doubly Occupied:

       1A    -20.604806     2A    -20.546833     3A    -11.373448
       4A    -11.281612     5A    -11.235505     6A    -11.218899
       7A    -11.212615     8A    -11.205783     9A     -1.470612
      10A     -1.364355    11A     -1.086964    12A     -1.021245
      13A     -0.968596    14A     -0.883270    15A     -0.804544
      16A     -0.766926    17A     -0.703058    18A     -0.681030
      19A     -0.672773    20A     -0.628903    21A     -0.607597
      22A     -0.586377    23A     -0.577900    24A     -0.544836
      25A     -0.531216    26A     -0.516613    27A     -0.511004
      28A     -0.476475    29A     -0.471089    30A     -0.461015
      31A     -0.455381    32A     -0.436714

  @DF-RHF Final Energy:  -383.94078225622155

   => Energetics <=

    Nuclear Repulsion Energy =            389.0239093574087406
    One-Electron Energy =               -1294.1132940807228806
    Two-Electron Energy =                 521.1486024670916777
    DFT Exchange-Correlation Energy =       0.0000000000000000
    Empirical Dispersion Energy =           0.0000000000000000
    PCM Polarization Energy =               0.0000000000000000
    EFP Energy =                            0.0000000000000000
    Total Energy =                       -383.9407822562225192

  Mulliken Charges: (a.u.)
   Center  Symbol    Alpha    Beta     Spin     Total
       1     O     4.28616  4.28616  0.00000 -0.57233
       2     C     2.60616  2.60616  0.00000  0.78767
       3     C     3.20976  3.20976  0.00000 -0.41953
       4     O     4.30666  4.30666  0.00000 -0.61333
       5     C     3.15442  3.15442  0.00000 -0.30884
       6     H     0.39791  0.39791  0.00000  0.20419
       7     H     0.40013  0.40013  0.00000  0.19973
       8     C     3.15756  3.15756  0.00000 -0.31512
       9     H     0.41907  0.41907  0.00000  0.16185
      10     H     0.40772  0.40772  0.00000  0.18456
      11     C     3.24014  3.24014  0.00000 -0.48029
      12     H     0.42642  0.42642  0.00000  0.14715
      13     H     0.40768  0.40768  0.00000  0.18463
      14     H     0.42372  0.42372  0.00000  0.15256
      15     H     0.41917  0.41917  0.00000  0.16166
      16     H     0.41859  0.41859  0.00000  0.16282
      17     C     3.09244  3.09244  0.00000 -0.18488
      18     H     0.40895  0.40895  0.00000  0.18211
      19     H     0.40826  0.40826  0.00000  0.18348
      20     H     0.40905  0.40905  0.00000  0.18189

   Total alpha = 32.00000, Total beta = 32.00000, Total charge =  0.00000
