  ==> Input File <==

--------------------------------------------------------------------------
set {
	reference rhf
	basis cc-pvtz
}

set_num_threads( 4 )
memory 2 gb

molecule MOL {
0 1

H	 2.828711	 -0.346904	 0.001083
C	 1.876752	 0.015931	 -0.363450
C	 0.776285	 -0.474665	 0.563092
H	 1.728113	 -0.357244	 -1.367440
H	 1.906171	 1.096574	 -0.386153
N	 -0.540022	 0.017605	 0.071630
H	 0.707111	 -1.548969	 0.573035
H	 0.886169	 -0.084184	 1.560432
O	 -0.871081	 -0.314047	 -1.016764
O	 -1.154502	 0.731037	 0.791231

	symmetry c1
}
set optking {
	frozen_dihedral = ("
		9 6 3 2
	")
}

ee = optimize('scf')
oeprop('DIPOLE', 'QUADRUPOLE', 'MULLIKEN_CHARGES')
f=open( 'psi4out.xyz', 'w' )
f.write( "10  " )
f.write( str(ee) + "\n" )
f.write( MOL.save_string_xyz() )
f.close()
--------------------------------------------------------------------------

    Molecular point group: c1
  Charge       = 0
  Multiplicity = 1
  Basis Set: CC-PVTZ
  Basis Set:
  @DF-RHF Final Energy:  -282.81301794893676
    Total Energy =                       -282.8130179489368174
    Molecular point group: c1
  Basis Set: CC-PVTZ
  Basis Set:
  Basis Set: CC-PVTZ
  Basis Set:
  @DF-RHF Final Energy:  -282.80831984917609
    Total Energy =                       -282.8083198491759731
  Basis Set: CC-PVTZ
  Basis Set:
  Basis Set: CC-PVTZ
  Basis Set:
  @DF-RHF Final Energy:  -282.81305910181027
    Total Energy =                       -282.8130591018104383
  Basis Set: CC-PVTZ
  Basis Set:
  Basis Set: CC-PVTZ
  Basis Set:
  @DF-RHF Final Energy:  -282.81322112699684
    Total Energy =                       -282.8132211269968366
  Basis Set: CC-PVTZ
  Basis Set:
  Basis Set: CC-PVTZ
  Basis Set:
  @DF-RHF Final Energy:  -282.81322424848031
    Total Energy =                       -282.8132242484804237
  Basis Set: CC-PVTZ
  Basis Set:
  Charge       = 0
  Multiplicity = 1
  Basis Set: CC-PVTZ
  Basis Set:

    Orbital Energies (a.u.)
    -----------------------

    Doubly Occupied:

       1A    -20.594057     2A    -20.590342     3A    -15.838762
       4A    -11.302166     5A    -11.248564     6A     -1.638021
       7A     -1.422371     8A     -1.125574     9A     -0.966916
      10A     -0.838508    11A     -0.764369    12A     -0.742032
      13A     -0.730754    14A     -0.655566    15A     -0.590840
      16A     -0.562221    17A     -0.544709    18A     -0.489315
      19A     -0.479386    20A     -0.455451

  @DF-RHF Final Energy:  -282.81322493625385

   => Energetics <=

    Nuclear Repulsion Energy =            186.6696791312203629
    One-Electron Energy =                -755.8059643258400229
    Two-Electron Energy =                 286.3230602583656719
    DFT Exchange-Correlation Energy =       0.0000000000000000
    Empirical Dispersion Energy =           0.0000000000000000
    PCM Polarization Energy =               0.0000000000000000
    EFP Energy =                            0.0000000000000000
    Total Energy =                       -282.8132249362539596
    Molecular point group: c1
  Basis Set: CC-PVTZ
  Basis Set:

  -Total Gradient:
     Atom            X                  Y                   Z
    ------   -----------------  -----------------  -----------------
       1        0.000001690749     0.000000707673     0.000001881918
       2       -0.000003610502    -0.000129447251    -0.000108580943
       3        0.000046306696     0.000250413329     0.000094532928
       4       -0.000007499976     0.000000871098     0.000009605316
       5        0.000007254190     0.000000641532    -0.000004991948
       6       -0.000157855306    -0.000373978259    -0.000013069757
       7       -0.000004892113    -0.000007929164     0.000006229275
       8       -0.000009317242     0.000010868736    -0.000011813367
       9        0.000148992009     0.000201176311    -0.000047003279
      10       -0.000021068504     0.000046675995     0.000073209857

  **** Optimization is complete! (in 6 steps) ****
    Final optimized geometry and variables:
    Molecular point group: c1

    Geometry (in Angstrom), charge = 0, multiplicity = 1:

    H            2.840334825142    -0.349674312409     0.008530313667
    C            1.894533456874     0.012199319767    -0.373490089312
    C            0.785382521435    -0.461272668315     0.547541907270
    H            1.754172103617    -0.367321465725    -1.374144008190
    H            1.933569781945     1.093401918985    -0.408034592739
    N           -0.541249237635     0.023528107616     0.069977324886
    H            0.707651740807    -1.537919645057     0.552849469281
    H            0.889884048005    -0.089820242858     1.551380150413
    O           -0.880557007910    -0.317626632201    -1.013527000640
    O           -1.168158791292     0.712785967187     0.800853929392

  Mulliken Charges: (a.u.)
   Center  Symbol    Alpha    Beta     Spin     Total
       1     H     0.44855  0.44855  0.00000  0.10291
       2     C     3.14137  3.14137  0.00000 -0.28275
       3     C     3.03820  3.03820  0.00000 -0.07641
       4     H     0.43686  0.43686  0.00000  0.12627
       5     H     0.44474  0.44474  0.00000  0.11053
       6     N     3.27788  3.27788  0.00000  0.44423
       7     H     0.43727  0.43727  0.00000  0.12547
       8     H     0.43233  0.43233  0.00000  0.13533
       9     O     4.17441  4.17441  0.00000 -0.34882
      10     O     4.16838  4.16838  0.00000 -0.33676

   Total alpha = 20.00000, Total beta = 20.00000, Total charge =  0.00000
