  ==> Input File <==

--------------------------------------------------------------------------
set {
	reference rhf
	basis cc-pvtz
}

set_num_threads( 4 )
memory 2 gb

molecule MOL {
0 1

H	 -2.816458	 -0.841657	 -0.064679
N	 -1.878861	 -0.711874	 0.250184
C	 -1.341419	 0.551458	 -0.220231
H	 -1.333674	 -1.468530	 -0.105118
C	 -0.035193	 0.862957	 0.473591
H	 -1.173546	 0.577190	 -1.296196
H	 -2.047692	 1.339276	 0.017620
O	 0.909758	 -0.095914	 0.105703
H	 0.308161	 1.855862	 0.186501
H	 -0.181920	 0.851332	 1.551211
C	 2.141725	 0.039057	 0.732807
H	 2.786888	 -0.748591	 0.371199
H	 2.600943	 0.998689	 0.504949
H	 2.050410	 -0.050625	 1.812706

	symmetry c1
}
set optking {
	frozen_dihedral = ("
		6 3 2 4
	")
}

ee = optimize('scf')
oeprop('DIPOLE', 'QUADRUPOLE', 'MULLIKEN_CHARGES')
f=open( 'psi4out.xyz', 'w' )
f.write( "14  " )
f.write( str(ee) + "\n" )
f.write( MOL.save_string_xyz() )
f.close()
--------------------------------------------------------------------------

    Molecular point group: c1
  Charge       = 0
  Multiplicity = 1
  Basis Set: CC-PVTZ
  Basis Set:
  @DF-RHF Final Energy:  -248.22580101014717
    Total Energy =                       -248.2258010101472792
    Molecular point group: c1
  Basis Set: CC-PVTZ
  Basis Set:
  Basis Set: CC-PVTZ
  Basis Set:
  @DF-RHF Final Energy:  -248.22584117462677
    Total Energy =                       -248.2258411746269644
  Basis Set: CC-PVTZ
  Basis Set:
  Basis Set: CC-PVTZ
  Basis Set:
  @DF-RHF Final Energy:  -248.22584423123479
    Total Energy =                       -248.2258442312349302
  Basis Set: CC-PVTZ
  Basis Set:
  Charge       = 0
  Multiplicity = 1
  Basis Set: CC-PVTZ
  Basis Set:

    Orbital Energies (a.u.)
    -----------------------

    Doubly Occupied:

       1A    -20.548992     2A    -15.524854     3A    -11.262271
       4A    -11.262068     5A    -11.240259     6A     -1.382993
       7A     -1.176539     8A     -1.000148     9A     -0.906331
      10A     -0.814876    11A     -0.683577    12A     -0.676847
      13A     -0.644900    14A     -0.613255    15A     -0.608511
      16A     -0.538872    17A     -0.528500    18A     -0.498341
      19A     -0.474237    20A     -0.418575    21A     -0.385215

  @DF-RHF Final Energy:  -248.22584443057386

   => Energetics <=

    Nuclear Repulsion Energy =            194.5382227397615509
    One-Electron Energy =                -723.1478076061301863
    Two-Electron Energy =                 280.3837404357944934
    DFT Exchange-Correlation Energy =       0.0000000000000000
    Empirical Dispersion Energy =           0.0000000000000000
    PCM Polarization Energy =               0.0000000000000000
    EFP Energy =                            0.0000000000000000
    Total Energy =                       -248.2258444305741705
    Molecular point group: c1
  Basis Set: CC-PVTZ
  Basis Set:

  -Total Gradient:
     Atom            X                  Y                   Z
    ------   -----------------  -----------------  -----------------
       1       -0.000009214637    -0.000007308792    -0.000002574145
       2        0.001939015342    -0.000003663354     0.002039192841
       3       -0.002521145794     0.000769715357    -0.000717336439
       4       -0.001137928690    -0.000135477186    -0.001592684616
       5        0.000021788867     0.000010278690    -0.000003354577
       6        0.001716572626    -0.000621901943     0.000273466556
       7        0.000007197621    -0.000004394980    -0.000000886113
       8       -0.000007925960    -0.000012127971     0.000001301260
       9       -0.000011378133     0.000000042775    -0.000000787792
      10        0.000000215535     0.000005475518     0.000005165130
      11        0.000001292044    -0.000002358828     0.000000114249
      12        0.000000153436     0.000000407159    -0.000000898626
      13        0.000002228038     0.000001261943     0.000000883044
      14       -0.000000870293     0.000000051611    -0.000001600772

  **** Optimization is complete! (in 4 steps) ****
    Final optimized geometry and variables:
    Molecular point group: c1

    Geometry (in Angstrom), charge = 0, multiplicity = 1:

    H           -2.778230298745    -0.960542948372    -0.347469524979
    N           -1.850546015926    -0.823373620187    -0.006305906774
    C           -1.309578618550     0.436634487655    -0.485120133372
    H           -1.300017868048    -1.584583545448    -0.343173557619
    C           -0.002558328017     0.750975550834     0.207580586387
    H           -1.127301650298     0.447822882261    -1.558729135993
    H           -2.015959669377     1.226880635789    -0.258807537409
    O            0.942990527661    -0.202991049040    -0.170212723911
    H            0.337725913727     1.746593163185    -0.075619701886
    H           -0.146493467536     0.732471893789     1.285233467871
    C            2.172686620751    -0.077945245449     0.462676706925
    H            2.819246923391    -0.859600387248     0.090581100251
    H            2.632818367128     0.885311927833     0.251929074765
    H            2.077984753036    -0.185085473023     1.540675294897

  Mulliken Charges: (a.u.)
   Center  Symbol    Alpha    Beta     Spin     Total
       1     H     0.43020  0.43020  0.00000  0.13960
       2     N     3.69186  3.69186  0.00000 -0.38371
       3     C     3.02698  3.02698  0.00000 -0.05396
       4     H     0.42345  0.42345  0.00000  0.15310
       5     C     2.96528  2.96528  0.00000  0.06943
       6     H     0.46343  0.46343  0.00000  0.07314
       7     H     0.45715  0.45715  0.00000  0.08570
       8     O     4.17973  4.17973  0.00000 -0.35945
       9     H     0.47112  0.47112  0.00000  0.05777
      10     H     0.46983  0.46983  0.00000  0.06034
      11     C     3.03134  3.03134  0.00000 -0.06268
      12     H     0.44783  0.44783  0.00000  0.10434
      13     H     0.47199  0.47199  0.00000  0.05602
      14     H     0.46982  0.46982  0.00000  0.06036

   Total alpha = 21.00000, Total beta = 21.00000, Total charge = -0.00000
