  ==> Input File <==

--------------------------------------------------------------------------
set {
	reference rhf
	basis cc-pvtz
}

set_num_threads( 4 )
memory 2 gb

molecule MOL {
0 1

O	 1.669234	 -0.382742	 -0.585744
C	 0.860843	 0.273204	 -0.013120
C	 -0.623368	 -0.117453	 -0.005652
C	 1.293839	 1.526337	 0.721860
C	 -0.892588	 -1.253841	 -1.002900
C	 -1.473463	 1.100646	 -0.372896
C	 -0.981836	 -0.579025	 1.418506
H	 -0.609333	 -0.970024	 -2.010649
H	 -1.950451	 -1.487353	 -1.013175
H	 -0.360848	 -2.161259	 -0.746463
H	 -1.232203	 1.461623	 -1.364827
H	 -2.524364	 0.834451	 -0.354500
H	 -1.312381	 1.914833	 0.318657
H	 -2.035706	 -0.826342	 1.468082
H	 -0.425078	 -1.458934	 1.716857
H	 -0.788494	 0.205047	 2.140903
H	 1.351155	 1.314448	 1.783736
H	 2.273829	 1.812474	 0.372268
H	 0.600484	 2.345526	 0.589874

	symmetry c1
}
set optking {
	frozen_dihedral = ("
		1 2 3 5
	")
}

ee = optimize('scf')
oeprop('DIPOLE', 'QUADRUPOLE', 'MULLIKEN_CHARGES')
f=open( 'psi4out.xyz', 'w' )
f.write( "19  " )
f.write( str(ee) + "\n" )
f.write( MOL.save_string_xyz() )
f.close()
--------------------------------------------------------------------------

    Molecular point group: c1
  Charge       = 0
  Multiplicity = 1
  Basis Set: CC-PVTZ
  Basis Set:
  @DF-RHF Final Energy:  -309.17188301180312
    Total Energy =                       -309.1718830118031747
    Molecular point group: c1
  Basis Set: CC-PVTZ
  Basis Set:
  Basis Set: CC-PVTZ
  Basis Set:
  @DF-RHF Final Energy:  -309.17149094020863
    Total Energy =                       -309.1714909402087414
  Basis Set: CC-PVTZ
  Basis Set:
  Basis Set: CC-PVTZ
  Basis Set:
  @DF-RHF Final Energy:  -309.17221713066868
    Total Energy =                       -309.1722171306688551
  Basis Set: CC-PVTZ
  Basis Set:
  Basis Set: CC-PVTZ
  Basis Set:
  @DF-RHF Final Energy:  -309.17345088158146
    Total Energy =                       -309.1734508815813456
  Basis Set: CC-PVTZ
  Basis Set:
  @DF-RHF Final Energy:  -309.17343029242954
    Total Energy =                       -309.1734302924298277
  @DF-RHF Final Energy:  -309.17344927811257
    Total Energy =                       -309.1734492781125709
  @DF-RHF Final Energy:  -309.17365901873376
    Total Energy =                       -309.1736590187334173
  @DF-RHF Final Energy:  -309.17377933292357
    Total Energy =                       -309.1737793329239139
  @DF-RHF Final Energy:  -309.17402580124343
    Total Energy =                       -309.1740258012430331
  @DF-RHF Final Energy:  -309.17419678947948
    Total Energy =                       -309.1741967894796517
  Basis Set: CC-PVTZ
  Basis Set:
  @DF-RHF Final Energy:  -309.17423478085715
    Total Energy =                       -309.1742347808574323
  Basis Set: CC-PVTZ
  Basis Set:
  Basis Set: CC-PVTZ
  Basis Set:
  @DF-RHF Final Energy:  -309.17425305419573
    Total Energy =                       -309.1742530541959013
  Basis Set: CC-PVTZ
  Basis Set:
  Basis Set: CC-PVTZ
  Basis Set:
  @DF-RHF Final Energy:  -309.17425619731023
    Total Energy =                       -309.1742561973103420
  Basis Set: CC-PVTZ
  Basis Set:
  Charge       = 0
  Multiplicity = 1
  Basis Set: CC-PVTZ
  Basis Set:

    Orbital Energies (a.u.)
    -----------------------

    Doubly Occupied:

       1A    -20.537386     2A    -11.317740     3A    -11.245726
       4A    -11.225056     5A    -11.222499     6A    -11.222292
       7A    -11.206135     8A     -1.398464     9A     -1.110971
      10A     -1.002880    11A     -0.948053    12A     -0.935678
      13A     -0.835975    14A     -0.705413    15A     -0.666730
      16A     -0.633937    17A     -0.621292    18A     -0.600198
      19A     -0.593453    20A     -0.565599    21A     -0.546719
      22A     -0.544776    23A     -0.523900    24A     -0.514949
      25A     -0.501484    26A     -0.472720    27A     -0.468849
      28A     -0.394922

  @DF-RHF Final Energy:  -309.17425641187941

   => Energetics <=

    Nuclear Repulsion Energy =            326.8915459562614956
    One-Electron Energy =               -1067.0040175065228141
    Two-Electron Energy =                 430.9382151383816790
    DFT Exchange-Correlation Energy =       0.0000000000000000
    Empirical Dispersion Energy =           0.0000000000000000
    PCM Polarization Energy =               0.0000000000000000
    EFP Energy =                            0.0000000000000000
    Total Energy =                       -309.1742564118795826
    Molecular point group: c1
  Basis Set: CC-PVTZ
  Basis Set:

  -Total Gradient:
     Atom            X                  Y                   Z
    ------   -----------------  -----------------  -----------------
       1       -0.000073016692     0.000302251300    -0.000399796852
       2        0.000167745414    -0.000478653629     0.000651517159
       3       -0.000137385188     0.000441455795    -0.000499396729
       4       -0.000015933723     0.000000910403    -0.000016088302
       5        0.000067437016    -0.000252803889     0.000237706331
       6       -0.000006487944    -0.000016611164     0.000011466488
       7       -0.000005245273     0.000017543979     0.000007058451
       8       -0.000000917537    -0.000007388976    -0.000005814376
       9       -0.000003710935    -0.000002847798    -0.000001469619
      10       -0.000009112815     0.000007927787    -0.000000630924
      11        0.000005090480    -0.000001568024     0.000000193861
      12        0.000000332915     0.000002286317    -0.000002292098
      13       -0.000004290496    -0.000000362675     0.000002513850
      14        0.000002407179    -0.000000515041     0.000001314164
      15       -0.000001798556     0.000003522157    -0.000007993928
      16       -0.000005527712    -0.000003626170     0.000010222874
      17        0.000003894201     0.000004083426     0.000005914727
      18        0.000008697448    -0.000000084326    -0.000003321694
      19        0.000007822221    -0.000015519471     0.000008896617

  **** Optimization is complete! (in 14 steps) ****
    Final optimized geometry and variables:
    Molecular point group: c1

    Geometry (in Angstrom), charge = 0, multiplicity = 1:

    O            1.669035666052    -0.449026052891    -0.670997510498
    C            0.879411809554     0.195250166717    -0.060265699136
    C           -0.603473301856    -0.196160976027    -0.008228466079
    C            1.336773332503     1.440315485978     0.674663310279
    C           -0.872929226298    -1.311103251828    -1.020626659838
    C           -1.486236649506     1.019431929577    -0.328365781383
    C           -0.919198380760    -0.710427349386     1.407882849278
    H           -0.644601327014    -0.989321715663    -2.028569692583
    H           -1.918144707652    -1.596937622003    -0.982630538441
    H           -0.270227174327    -2.183703442337    -0.813006084222
    H           -1.257941276045     1.424915431599    -1.308012226696
    H           -2.528571413111     0.723960333223    -0.329669440493
    H           -1.372528670337     1.812619489266     0.399714277186
    H           -1.949573575759    -1.042669769501     1.453713506904
    H           -0.286902903705    -1.551854536261     1.666312188971
    H           -0.789213570345     0.054810798699     2.162812232176
    H            0.842081145833     1.572729077741     1.626440299073
    H            2.405040485006     1.385459605660     0.817963333608
    H            1.114413746093     2.309433974872     0.065399403529

  Mulliken Charges: (a.u.)
   Center  Symbol    Alpha    Beta     Spin     Total
       1     O     4.17493  4.17493  0.00000 -0.34985
       2     C     2.85375  2.85375  0.00000  0.29250
       3     C     3.00906  3.00906  0.00000 -0.01812
       4     C     3.16281  3.16281  0.00000 -0.32561
       5     C     3.14977  3.14977  0.00000 -0.29953
       6     C     3.16355  3.16355  0.00000 -0.32710
       7     C     3.15987  3.15987  0.00000 -0.31973
       8     H     0.44553  0.44553  0.00000  0.10893
       9     H     0.45206  0.45206  0.00000  0.09589
      10     H     0.44054  0.44054  0.00000  0.11892
      11     H     0.44277  0.44277  0.00000  0.11447
      12     H     0.44297  0.44297  0.00000  0.11406
      13     H     0.44589  0.44589  0.00000  0.10821
      14     H     0.44495  0.44495  0.00000  0.11010
      15     H     0.44193  0.44193  0.00000  0.11615
      16     H     0.44584  0.44584  0.00000  0.10832
      17     H     0.44681  0.44681  0.00000  0.10639
      18     H     0.43180  0.43180  0.00000  0.13640
      19     H     0.44519  0.44519  0.00000  0.10962

   Total alpha = 28.00000, Total beta = 28.00000, Total charge = -0.00000
