  ==> Input File <==

--------------------------------------------------------------------------
set {
	reference rhf
	basis 6-31G*
}

set_num_threads( 1 )
memory 2 gb

molecule MOL {
0 1

H	 2.591676	 2.013956	 0.335017
O	 3.341076	 1.666752	 -0.126416
C	 3.569581	 0.339145	 0.272707
C	 2.570040	 -0.156663	 1.311851
H	 3.487392	 -0.256963	 -0.627056
H	 4.586600	 0.222985	 0.645481
C	 2.636035	 0.591580	 2.645509
H	 1.569561	 -0.072837	 0.895461
H	 2.755171	 -1.215983	 1.481956
C	 1.658663	 0.035153	 3.684717
H	 2.424789	 1.643647	 2.475521
H	 3.649729	 0.535295	 3.042492
C	 1.744137	 0.693676	 5.066521
H	 0.642534	 0.125859	 3.305111
H	 1.844957	 -1.030627	 3.799209
C	 1.316435	 2.163323	 5.107604
H	 1.115416	 0.130376	 5.752974
H	 2.761003	 0.603161	 5.445503
C	 1.318014	 2.745285	 6.522791
H	 0.318474	 2.258818	 4.682087
H	 1.973321	 2.761953	 4.481148
C	 0.897637	 4.213989	 6.565874
H	 0.651190	 2.160795	 7.153033
H	 2.311971	 2.641946	 6.953203
H	 -0.106096	 4.346210	 6.171843
H	 0.906874	 4.596560	 7.581841
H	 1.567663	 4.831530	 5.974204

	symmetry c1
}
set optking {
	frozen_dihedral = ("
		14 10 7 4,
		14 10 13 16,
		10 7 4 8,
		8 4 3 2,
		10 13 16 20,
		20 16 19 22
	")
}

ee = energy('scf')
oeprop('DIPOLE', 'QUADRUPOLE', 'MULLIKEN_CHARGES')
f=open( 'psi4out.xyz', 'w' )
f.write( "27  " )
f.write( str(ee) + "\n" )
f.write( MOL.save_string_xyz() )
f.close()
--------------------------------------------------------------------------

    Molecular point group: c1

    Geometry (in Angstrom), charge = 0, multiplicity = 1:

       Center              X                  Y                   Z               Mass
    ------------   -----------------  -----------------  -----------------  -----------------
           H          0.460876379136     0.625653060905    -3.062989117528     1.007825032070
           O          1.210276379136     0.278449060905    -3.524422117528    15.994914619560
           C          1.438781379136    -1.049157939095    -3.125299117528    12.000000000000
           C          0.439240379136    -1.544965939095    -2.086155117528    12.000000000000
           H          1.356592379136    -1.645265939095    -4.025062117528     1.007825032070
           H          2.455800379136    -1.165317939095    -2.752525117528     1.007825032070
           C          0.505235379136    -0.796722939095    -0.752497117528    12.000000000000
           H         -0.561238620864    -1.461139939095    -2.502545117528     1.007825032070
           H          0.624371379136    -2.604285939095    -1.916050117528     1.007825032070
           C         -0.472136620864    -1.353149939095     0.286710882472    12.000000000000
           H          0.293989379136     0.255344060905    -0.922485117528     1.007825032070
           H          1.518929379136    -0.853007939095    -0.355514117528     1.007825032070
           C         -0.386662620864    -0.694626939095     1.668514882472    12.000000000000
           H         -1.488265620864    -1.262443939095    -0.092895117528     1.007825032070
           H         -0.285842620864    -2.418929939095     0.401202882472     1.007825032070
           C         -0.814364620864     0.775020060905     1.709597882472    12.000000000000
           H         -1.015383620864    -1.257926939095     2.354967882472     1.007825032070
           H          0.630203379136    -0.785141939095     2.047496882472     1.007825032070
           C         -0.812785620864     1.356982060905     3.124784882472    12.000000000000
           H         -1.812325620864     0.870515060905     1.284080882472     1.007825032070
           H         -0.157478620864     1.373650060905     1.083141882472     1.007825032070
           C         -1.233162620864     2.825686060905     3.167867882472    12.000000000000
           H         -1.479609620864     0.772492060905     3.755026882472     1.007825032070
           H          0.181171379136     1.253643060905     3.555196882472     1.007825032070
           H         -2.236895620864     2.957907060905     2.773836882472     1.007825032070
           H         -1.223925620864     3.208257060905     4.183834882472     1.007825032070
           H         -0.563136620864     3.443227060905     2.576197882472     1.007825032070

  Charge       = 0
  Multiplicity = 1
  Basis Set: 6-31G*
  Basis Set:

    Orbital Energies (a.u.)
    -----------------------

    Doubly Occupied:

       1A    -20.548578     2A    -11.265743     3A    -11.224608
       4A    -11.223556     5A    -11.220362     6A    -11.217624
       7A    -11.216996     8A    -11.215788     9A    -11.209989
      10A     -1.357235    11A     -1.098121    12A     -1.064312
      13A     -1.013590    14A     -0.949635    15A     -0.890117
      16A     -0.825891    17A     -0.805641    18A     -0.780824
      19A     -0.662769    20A     -0.659039    21A     -0.649170
      22A     -0.625616    23A     -0.608555    24A     -0.585511
      25A     -0.576581    26A     -0.564126    27A     -0.541008
      28A     -0.527405    29A     -0.510923    30A     -0.492195
      31A     -0.488264    32A     -0.480374    33A     -0.467677
      34A     -0.462271    35A     -0.448861    36A     -0.442759
      37A     -0.425732

  @DF-RHF Final Energy:  -388.27825687128268

   => Energetics <=

    Nuclear Repulsion Energy =            460.1070629471240636
    One-Electron Energy =               -1438.0757285347388006
    Two-Electron Energy =                 589.6904087163308077
    DFT Exchange-Correlation Energy =       0.0000000000000000
    Empirical Dispersion Energy =           0.0000000000000000
    PCM Polarization Energy =               0.0000000000000000
    EFP Energy =                            0.0000000000000000
    Total Energy =                       -388.2782568712839293

  Mulliken Charges: (a.u.)
   Center  Symbol    Alpha    Beta     Spin     Total
       1     H     0.27796  0.27796  0.00000  0.44409
       2     O     4.37846  4.37846  0.00000 -0.75692
       3     C     2.97475  2.97475  0.00000  0.05051
       4     C     3.18967  3.18967  0.00000 -0.37934
       5     H     0.42290  0.42290  0.00000  0.15420
       6     H     0.42616  0.42616  0.00000  0.14767
       7     C     3.15574  3.15574  0.00000 -0.31148
       8     H     0.41974  0.41974  0.00000  0.16053
       9     H     0.41692  0.41692  0.00000  0.16615
      10     C     3.15262  3.15262  0.00000 -0.30524
      11     H     0.42551  0.42551  0.00000  0.14897
      12     H     0.41902  0.41902  0.00000  0.16196
      13     C     3.15335  3.15335  0.00000 -0.30671
      14     H     0.42362  0.42362  0.00000  0.15276
      15     H     0.42092  0.42092  0.00000  0.15815
      16     C     3.15341  3.15341  0.00000 -0.30683
      17     H     0.42095  0.42095  0.00000  0.15811
      18     H     0.42296  0.42296  0.00000  0.15409
      19     C     3.15125  3.15125  0.00000 -0.30249
      20     H     0.42490  0.42490  0.00000  0.15020
      21     H     0.42196  0.42196  0.00000  0.15607
      22     C     3.23939  3.23939  0.00000 -0.47879
      23     H     0.42293  0.42293  0.00000  0.15414
      24     H     0.42254  0.42254  0.00000  0.15491
      25     H     0.42191  0.42191  0.00000  0.15617
      26     H     0.41893  0.41893  0.00000  0.16213
      27     H     0.42152  0.42152  0.00000  0.15696

   Total alpha = 37.00000, Total beta = 37.00000, Total charge = -0.00000
