                              Psi4 1.0.54 Driver

  ==> Input File <==

--------------------------------------------------------------------------
set {
	reference rhf
	basis cc-pvtz
}

set_num_threads( 4 )
memory 2 gb

molecule MOL {
0 1

H	 -4.017483	 -0.513665	 -0.328116
C	 -2.955337	 -0.359240	 -0.341300
C	 -2.439217	 0.850621	 -0.769669
C	 -2.107251	 -1.370021	 0.069861
H	 -3.098099	 1.634723	 -1.088663
C	 -1.074249	 1.048310	 -0.786327
H	 -2.508501	 -2.307908	 0.401884
C	 -0.740263	 -1.173601	 0.053758
H	 -0.657729	 1.978684	 -1.114922
C	 -0.219785	 0.037175	 -0.374769
H	 -0.080705	 -1.954330	 0.371526
C	 1.247274	 0.300433	 -0.411560
O	 1.968286	 -0.725612	 -0.000027
O	 1.724762	 1.323724	 -0.772198
C	 3.373556	 -0.568203	 0.000011
H	 3.695416	 -0.031588	 -0.879663
H	 3.782700	 -1.565294	 -0.000152
H	 3.695405	 -0.031851	 0.879862

	symmetry c1
}
set optking {
	frozen_dihedral = ("
		12 13 15 16
	")
}

ee,wfn = optimize('scf', return_wfn=True)
oeprop( wfn, 'DIPOLE', 'QUADRUPOLE', 'MULLIKEN_CHARGES')
f=open( 'psi4out.xyz', 'w' )
f.write( "18  " )
f.write( str(ee) + "\n" )
f.write( MOL.save_string_xyz() )
f.close()
--------------------------------------------------------------------------

    Molecular point group: c1
  Charge       = 0
  Multiplicity = 1
  Basis Set: CC-PVTZ
  Basis Set:
  @DF-RHF Final Energy:  -457.50953569890640
    Total Energy =                       -457.5095356989064612
    Molecular point group: c1
  Basis Set: CC-PVTZ
  Basis Set:
  Basis Set: CC-PVTZ
  Basis Set:
  @DF-RHF Final Energy:  -457.50957864899669
    Total Energy =                       -457.5095786489966940
  Basis Set: CC-PVTZ
  Basis Set:
  Basis Set: CC-PVTZ
  Basis Set:
  @DF-RHF Final Energy:  -457.50937729551612
    Total Energy =                       -457.5093772955164013
  Basis Set: CC-PVTZ
  Basis Set:
  Basis Set: CC-PVTZ
  Basis Set:
  @DF-RHF Final Energy:  -457.50962895209477
    Total Energy =                       -457.5096289520952269
  Basis Set: CC-PVTZ
  Basis Set:
  Charge       = 0
  Multiplicity = 1
  Basis Set: CC-PVTZ
  Basis Set:

    Orbital Energies (a.u.)
    -----------------------

    Doubly Occupied:

       1A    -20.600704     2A    -20.534278     3A    -11.372168
       4A    -11.280914     5A    -11.244910     6A    -11.243433
       7A    -11.242609     8A    -11.239962     9A    -11.235990
      10A    -11.235226    11A     -1.476362    12A     -1.368634
      13A     -1.170699    14A     -1.051790    15A     -1.028979
      16A     -0.980842    17A     -0.863122    18A     -0.838384
      19A     -0.781149    20A     -0.745125    21A     -0.688088
      22A     -0.680834    23A     -0.676340    24A     -0.634192
      25A     -0.630035    26A     -0.601250    27A     -0.588105
      28A     -0.566027    29A     -0.530813    30A     -0.520315
      31A     -0.509566    32A     -0.502103    33A     -0.463223
      34A     -0.449407    35A     -0.350170    36A     -0.346179

  @DF-RHF Final Energy:  -457.50963966654581

   => Energetics <=

    Nuclear Repulsion Energy =            493.9197272074989087
    One-Electron Energy =               -1602.3148851469748024
    Two-Electron Energy =                 650.8855182729307671
    DFT Exchange-Correlation Energy =       0.0000000000000000
    Empirical Dispersion Energy =           0.0000000000000000
    PCM Polarization Energy =               0.0000000000000000
    EFP Energy =                            0.0000000000000000
    Total Energy =                       -457.5096396665451266
    Molecular point group: c1
  Basis Set: CC-PVTZ
  Basis Set:

  -Total Gradient:
     Atom            X                  Y                   Z
    ------   -----------------  -----------------  -----------------
       1       -0.000000040607    -0.000001041429     0.000000654753
       2        0.000007114383     0.000012570190    -0.000004438343
       3       -0.000000815551    -0.000012336541     0.000002896643
       4        0.000015050213    -0.000009199662     0.000006741787
       5        0.000001675019     0.000001361604    -0.000001873165
       6        0.000007337829    -0.000007535234    -0.000000576434
       7       -0.000003513172     0.000000701975     0.000000886194
       8       -0.000036908536    -0.000023761728     0.000011268586
       9       -0.000001179234     0.000000323831     0.000002393573
      10        0.000001276098     0.000001502722     0.000001216998
      11       -0.000004139315     0.000006293542    -0.000004807199
      12       -0.000031525513    -0.000427328007    -0.001309520006
      13       -0.000067858296     0.001051184302     0.002056979706
      14        0.000074043431    -0.000022679969     0.000030456723
      15        0.000317083751    -0.001904030340    -0.001508249324
      16       -0.000165644777     0.001352562247     0.000732644028
      17       -0.000018456382    -0.000006574376    -0.000012161394
      18       -0.000093499334    -0.000012013121    -0.000004513126

  **** Optimization is complete! (in 5 steps) ****
    Final optimized geometry and variables:
    Molecular point group: c1

    Geometry (in Angstrom), charge = 0, multiplicity = 1:

    H           -4.022481552883    -0.465836512584    -0.008007079811
    C           -2.960811403888    -0.307686699658    -0.018087373021
    C           -2.447784713558     0.904917610077    -0.442605299787
    C           -2.110159600598    -1.316169689932     0.393312647221
    H           -3.108579057315     1.687441366323    -0.761712754540
    C           -1.083508974394     1.107520417646    -0.455085741295
    H           -2.508775342295    -2.256210546258     0.722513465121
    C           -0.743724146072    -1.114880296892     0.381128415454
    H           -0.669621896758     2.040262259992    -0.780394292673
    C           -0.226402526176     0.098518794880    -0.043581353828
    H           -0.082427595093    -1.894010950677     0.699240210997
    C            1.240255893943     0.367914212595    -0.076589253693
    O            1.961763220611    -0.655827790638     0.339897099505
    O            1.712720487420     1.393707012610    -0.436378518947
    C            3.369736898988    -0.523158589349     0.319597972189
    H            3.693650506504    -0.008002124364    -0.569802271931
    H            3.768004331435    -1.524168912860     0.351933987848
    H            3.699937306930     0.033182190379     1.185791040493

  Mulliken Charges: (a.u.)
   Center  Symbol    Alpha    Beta     Spin     Total
       1     H     0.42030  0.42030  0.00000  0.15939
       2     C     3.06975  3.06975  0.00000 -0.13949
       3     C     3.07552  3.07552  0.00000 -0.15104
       4     C     3.07494  3.07494  0.00000 -0.14988
       5     H     0.42041  0.42041  0.00000  0.15919
       6     C     3.07588  3.07588  0.00000 -0.15175
       7     H     0.42190  0.42190  0.00000  0.15620
       8     C     3.08208  3.08208  0.00000 -0.16416
       9     H     0.40659  0.40659  0.00000  0.18682
      10     C     3.01452  3.01452  0.00000 -0.02904
      11     H     0.41109  0.41109  0.00000  0.17782
      12     C     2.77980  2.77980  0.00000  0.44040
      13     O     4.14890  4.14890  0.00000 -0.29780
      14     O     4.21159  4.21159  0.00000 -0.42318
      15     C     3.03758  3.03758  0.00000 -0.07517
      16     H     0.44767  0.44767  0.00000  0.10467
      17     H     0.44616  0.44616  0.00000  0.10767
      18     H     0.45533  0.45533  0.00000  0.08934

   Total alpha = 36.00000, Total beta = 36.00000, Total charge = -0.00000

*** Psi4 exiting successfully. Buy a developer a beer!
