  ==> Input File <==

--------------------------------------------------------------------------
set {
	reference rhf
	basis 6-31G*
}

set_num_threads( 4 )
memory 2 gb

molecule MOL {
0 1

H	 -2.589211	 -1.583839	 -0.735739
N	 -1.679874	 -1.490842	 -0.326554
C	 -1.443340	 -0.121853	 0.096559
H	 -1.010031	 -1.744730	 -1.026527
C	 -0.050595	 0.006576	 0.676991
H	 -1.550547	 0.610106	 -0.705154
H	 -2.163816	 0.132253	 0.868003
O	 0.874168	 -0.245412	 -0.342030
H	 0.098992	 1.008434	 1.078915
H	 0.075654	 -0.708986	 1.486476
C	 2.202317	 -0.244239	 0.074611
H	 2.711377	 -1.041390	 -0.449894
H	 2.692099	 0.699270	 -0.159667
H	 2.283185	 -0.418429	 1.145558

	symmetry c1
}
set optking {
	frozen_dihedral = ("
		5 8 11 13
	")
}

ee = optimize('scf')
oeprop('DIPOLE', 'QUADRUPOLE', 'MULLIKEN_CHARGES')
f=open( 'psi4out.xyz', 'w' )
f.write( "14  " )
f.write( str(ee) + "\n" )
f.write( MOL.save_string_xyz() )
f.close()
--------------------------------------------------------------------------

    Molecular point group: c1
  Charge       = 0
  Multiplicity = 1
  Basis Set: 6-31G*
  Basis Set:
  @DF-RHF Final Energy:  -248.12221121690419
    Total Energy =                       -248.1222112169044181
    Molecular point group: c1
  Basis Set: 6-31G*
  Basis Set:
  Basis Set: 6-31G*
  Basis Set:
  @DF-RHF Final Energy:  -248.12239357091494
    Total Energy =                       -248.1223935709151647
  Basis Set: 6-31G*
  Basis Set:
  Basis Set: 6-31G*
  Basis Set:
  @DF-RHF Final Energy:  -248.12244245698082
    Total Energy =                       -248.1224424569805933
  Basis Set: 6-31G*
  Basis Set:
  Charge       = 0
  Multiplicity = 1
  Basis Set: 6-31G*
  Basis Set:

    Orbital Energies (a.u.)
    -----------------------

    Doubly Occupied:

       1A    -20.554812     2A    -15.528000     3A    -11.266055
       4A    -11.265838     5A    -11.240355     6A     -1.377662
       7A     -1.173143     8A     -0.999083     9A     -0.907404
      10A     -0.814757    11A     -0.682293    12A     -0.672106
      13A     -0.644007    14A     -0.609211    15A     -0.605540
      16A     -0.539292    17A     -0.533795    18A     -0.496791
      19A     -0.471794    20A     -0.413398    21A     -0.379694

  @DF-RHF Final Energy:  -248.12244291531806

   => Energetics <=

    Nuclear Repulsion Energy =            194.4720957708951232
    One-Electron Energy =                -722.8390145642757716
    Two-Electron Energy =                 280.2444758780627012
    DFT Exchange-Correlation Energy =       0.0000000000000000
    Empirical Dispersion Energy =           0.0000000000000000
    PCM Polarization Energy =               0.0000000000000000
    EFP Energy =                            0.0000000000000000
    Total Energy =                       -248.1224429153178903
    Molecular point group: c1
  Basis Set: 6-31G*
  Basis Set:

  -Total Gradient:
     Atom            X                  Y                   Z
    ------   -----------------  -----------------  -----------------
       1        0.000015527254    -0.000001004656    -0.000007095785
       2        0.000004183363     0.000012797873    -0.000019512768
       3       -0.000048826111    -0.000034908613     0.000112697651
       4       -0.000004937087     0.000001830405    -0.000018385395
       5       -0.000197607050    -0.002022779543     0.000359436083
       6        0.000048634853    -0.000028820811     0.000031215066
       7       -0.000055849333     0.000002729201     0.000004902618
       8        0.000518497060     0.002740427068    -0.001267362720
       9        0.000002678411    -0.000010023058     0.000010842882
      10       -0.000009993794     0.000007694556    -0.000035897784
      11       -0.000973139320     0.000356228313     0.003257528177
      12        0.000010053036    -0.000010493036    -0.000000046399
      13        0.000702797978    -0.001002464160    -0.002428136937
      14       -0.000012019264    -0.000011213540    -0.000000184689

  **** Optimization is complete! (in 4 steps) ****
    Final optimized geometry and variables:
    Molecular point group: c1

    Geometry (in Angstrom), charge = 0, multiplicity = 1:

    H           -2.570140463358    -1.162357629797    -0.773401422320
    N           -1.665476605340    -1.063675393027    -0.355381496167
    C           -1.441420350032     0.306854752488     0.069593219902
    H           -0.987317520708    -1.312951165650    -1.048903121722
    C           -0.054665334376     0.444951258465     0.662046053504
    H           -1.546750615523     1.037848580346    -0.733126095069
    H           -2.169921471838     0.556638359226     0.834991872635
    O            0.877940036502     0.187070036105    -0.349555486914
    H            0.083049766302     1.449795759116     1.060435321338
    H            0.066635291866    -0.266098702462     1.475147276697
    C            2.216916133553     0.173918323829     0.045872103364
    H            2.723955278773    -0.615252460546    -0.496265203917
    H            2.700298518850     1.115475925663    -0.200508602376
    H            2.324556381318    -0.015398472309     1.109429442038

  Mulliken Charges: (a.u.)
   Center  Symbol    Alpha    Beta     Spin     Total
       1     H     0.33294  0.33294  0.00000  0.33413
       2     N     3.92532  3.92532  0.00000 -0.85065
       3     C     3.06907  3.06907  0.00000 -0.13815
       4     H     0.32360  0.32360  0.00000  0.35279
       5     C     2.98972  2.98972  0.00000  0.02055
       6     H     0.42667  0.42667  0.00000  0.14666
       7     H     0.42061  0.42061  0.00000  0.15878
       8     O     4.31347  4.31347  0.00000 -0.62693
       9     H     0.43127  0.43127  0.00000  0.13746
      10     H     0.42197  0.42197  0.00000  0.15606
      11     C     3.07600  3.07600  0.00000 -0.15200
      12     H     0.41639  0.41639  0.00000  0.16721
      13     H     0.42476  0.42476  0.00000  0.15049
      14     H     0.42821  0.42821  0.00000  0.14359

   Total alpha = 21.00000, Total beta = 21.00000, Total charge =  0.00000
