  ==> Input File <==

--------------------------------------------------------------------------
set {
	reference rhf
	basis 6-31G*
}

set_num_threads( 4 )
memory 2 gb

molecule MOL {
0 1

H	 -2.499100	 -0.730091	 -0.745082
O	 -2.347518	 -0.290803	 0.079804
C	 -1.184022	 0.487508	 -0.006784
C	 0.062599	 -0.378592	 0.031606
H	 -1.176523	 1.099369	 -0.904519
H	 -1.187323	 1.153111	 0.844927
O	 -0.305733	 -1.642921	 0.485018
H	 0.806791	 0.065254	 0.695804
H	 0.502532	 -0.429913	 -0.962582
C	 0.738193	 -2.562803	 0.541386
H	 1.522181	 -2.233769	 1.220893
H	 0.331191	 -3.497146	 0.902295
H	 1.178068	 -2.724992	 -0.440447

	symmetry c1
}
set optking {
	frozen_dihedral = ("
		8 4 3 5
	")
}

ee = optimize('scf')
oeprop('DIPOLE', 'QUADRUPOLE', 'MULLIKEN_CHARGES')
f=open( 'psi4out.xyz', 'w' )
f.write( "13  " )
f.write( str(ee) + "\n" )
f.write( MOL.save_string_xyz() )
f.close()
--------------------------------------------------------------------------

    Molecular point group: c1
  Charge       = 0
  Multiplicity = 1
  Basis Set: 6-31G*
  Basis Set:
  @DF-RHF Final Energy:  -267.93753615203013
    Total Energy =                       -267.9375361520300203
    Molecular point group: c1
  Basis Set: 6-31G*
  Basis Set:
  Basis Set: 6-31G*
  Basis Set:
  @DF-RHF Final Energy:  -267.93914443665898
    Total Energy =                       -267.9391444366592054
  Basis Set: 6-31G*
  Basis Set:
  Basis Set: 6-31G*
  Basis Set:
  @DF-RHF Final Energy:  -267.94060989461491
    Total Energy =                       -267.9406098946150223
  Basis Set: 6-31G*
  Basis Set:
  Basis Set: 6-31G*
  Basis Set:
  @DF-RHF Final Energy:  -267.94098924602577
    Total Energy =                       -267.9409892460257083
  Basis Set: 6-31G*
  Basis Set:
  @DF-RHF Final Energy:  -267.94184496105606
    Total Energy =                       -267.9418449610560060
  @DF-RHF Final Energy:  -267.94343038603375
    Total Energy =                       -267.9434303860339242
  @DF-RHF Final Energy:  -267.86908561893199
    Total Energy =                       -267.8690856189320471
  @DF-RHF Final Energy:  -267.93011117111956
    Total Energy =                       -267.9301111711196768
  @DF-RHF Final Energy:  -267.94344263018183
    Total Energy =                       -267.9434426301816643
  @DF-RHF Final Energy:  -267.94544839418870
    Total Energy =                       -267.9454483941885883
  @DF-RHF Final Energy:  -267.94622327052656
    Total Energy =                       -267.9462232705267866
  @DF-RHF Final Energy:  -267.94505192799897
    Total Energy =                       -267.9450519279988612
  Basis Set: 6-31G*
  Basis Set:
  @DF-RHF Final Energy:  -267.94664028924706
    Total Energy =                       -267.9466402892469432
  Basis Set: 6-31G*
  Basis Set:
  Basis Set: 6-31G*
  Basis Set:
  @DF-RHF Final Energy:  -267.94714088802391
    Total Energy =                       -267.9471408880240233
  Basis Set: 6-31G*
  Basis Set:
  Basis Set: 6-31G*
  Basis Set:
  @DF-RHF Final Energy:  -267.94714364985464
    Total Energy =                       -267.9471436498545245
  Basis Set: 6-31G*
  Basis Set:
  Charge       = 0
  Multiplicity = 1
  Basis Set: 6-31G*
  Basis Set:

    Orbital Energies (a.u.)
    -----------------------

    Doubly Occupied:

       1A    -20.572015     2A    -20.539438     3A    -11.278969
       4A    -11.277142     5A    -11.268323     6A     -1.399061
       7A     -1.346047     8A     -1.016507     9A     -0.925490
      10A     -0.835305    11A     -0.701791    12A     -0.686149
      13A     -0.665481    14A     -0.632336    15A     -0.592673
      16A     -0.566737    17A     -0.549573    18A     -0.493423
      19A     -0.477226    20A     -0.442166    21A     -0.417683

  @DF-RHF Final Energy:  -267.94714309629444

   => Energetics <=

    Nuclear Repulsion Energy =            195.3868876352793507
    One-Electron Energy =                -753.3009865293017810
    Two-Electron Energy =                 289.9669557977277918
    DFT Exchange-Correlation Energy =       0.0000000000000000
    Empirical Dispersion Energy =           0.0000000000000000
    PCM Polarization Energy =               0.0000000000000000
    EFP Energy =                            0.0000000000000000
    Total Energy =                       -267.9471430962946670
    Molecular point group: c1
  Basis Set: 6-31G*
  Basis Set:

  -Total Gradient:
     Atom            X                  Y                   Z
    ------   -----------------  -----------------  -----------------
       1        0.000075852011     0.000079007664     0.000071635068
       2       -0.000015672721    -0.000067874235     0.000052523210
       3        0.003413543289     0.005361508979     0.007046189572
       4        0.003741240927     0.004646195174    -0.007907547210
       5       -0.003550323326    -0.005194253307    -0.004767621359
       6        0.000125227968    -0.000019085966    -0.000085996038
       7       -0.000028511536    -0.000292553752     0.000109382645
       8       -0.003753713338    -0.004690895134     0.005486345530
       9        0.000024693705     0.000130274872    -0.000018657495
      10       -0.000020804501     0.000048885963     0.000041899047
      11        0.000016483655    -0.000026149607     0.000006459398
      12       -0.000019583546     0.000027930982    -0.000015035773
      13       -0.000008432585    -0.000002991634    -0.000019576593

  **** Optimization is complete! (in 16 steps) ****
    Final optimized geometry and variables:
    Molecular point group: c1

    Geometry (in Angstrom), charge = 0, multiplicity = 1:

    H           -1.637979687361    -0.166892158747    -0.009945329161
    O           -1.700262743377     0.668577546576    -0.453869334600
    C           -0.544171065503     1.400710611683    -0.171833354130
    C            0.705178760984     0.504991982186    -0.094985802503
    H           -0.443681457538     2.089409027005    -1.000972965468
    H           -0.660232970225     1.961917071604     0.750891660110
    O            0.292261901760    -0.778391197403     0.290455380844
    H            1.378844053113     0.876287591621     0.674387867189
    H            1.227465035116     0.457951233424    -1.046589895056
    C            1.325700114782    -1.703798945371     0.421859962930
    H            2.037699553186    -1.396702263061     1.184839993377
    H            0.884155848214    -2.646840458964     0.712196968079
    H            1.857749543473    -1.836339867754    -0.517354585938

  Mulliken Charges: (a.u.)
   Center  Symbol    Alpha    Beta     Spin     Total
       1     H     0.26648  0.26648  0.00000  0.46704
       2     O     4.37736  4.37736  0.00000 -0.75473
       3     C     2.99588  2.99588  0.00000  0.00825
       4     C     3.00572  3.00572  0.00000 -0.01144
       5     H     0.41736  0.41736  0.00000  0.16528
       6     H     0.42643  0.42643  0.00000  0.14715
       7     O     4.31902  4.31902  0.00000 -0.63803
       8     H     0.42663  0.42663  0.00000  0.14673
       9     H     0.42304  0.42304  0.00000  0.15392
      10     C     3.07969  3.07969  0.00000 -0.15938
      11     H     0.42711  0.42711  0.00000  0.14579
      12     H     0.40973  0.40973  0.00000  0.18055
      13     H     0.42557  0.42557  0.00000  0.14886

   Total alpha = 21.00000, Total beta = 21.00000, Total charge = -0.00000
