  ==> Input File <==

--------------------------------------------------------------------------
set {
	reference rhf
	basis 6-31G*
}

set_num_threads( 4 )
memory 2 gb

molecule MOL {
0 1

O	 0.064562	 -1.269062	 -1.332285
C	 0.873870	 -1.233815	 -0.462320
C	 1.245376	 -0.013843	 0.345420
O	 1.574527	 -2.294085	 -0.079519
C	 0.455112	 1.231400	 -0.050772
H	 1.105063	 -0.269272	 1.390532
H	 2.313470	 0.144138	 0.219274
C	 -0.998893	 1.219485	 0.433193
H	 0.482531	 1.345121	 -1.130325
H	 0.957290	 2.103070	 0.354729
C	 -1.883438	 0.145884	 -0.207175
H	 -1.431207	 2.195402	 0.224832
H	 -1.019646	 1.105716	 1.516076
C	 -3.347647	 0.245583	 0.225435
H	 -1.822183	 0.231698	 -1.291012
H	 -1.510341	 -0.844814	 0.042401
C	 -4.239992	 -0.825570	 -0.404234
H	 -3.732888	 1.230466	 -0.033079
H	 -3.408585	 0.170602	 1.310038
C	 -5.701275	 -0.716658	 0.029921
H	 -4.179496	 -0.752714	 -1.488058
H	 -3.859041	 -1.810759	 -0.143352
H	 -6.308102	 -1.488908	 -0.432678
H	 -6.122175	 0.245478	 -0.248167
H	 -5.799072	 -0.820114	 1.106957
C	 1.323813	 -3.509942	 -0.760490
H	 0.292613	 -3.808507	 -0.638058
H	 1.980091	 -4.239828	 -0.312637
H	 1.541146	 -3.407445	 -1.813960

	symmetry c1
}
set optking {
	frozen_dihedral = ("
		6 3 5 9
	")
}

ee = optimize('scf')
oeprop('DIPOLE', 'QUADRUPOLE', 'MULLIKEN_CHARGES')
f=open( 'psi4out.xyz', 'w' )
f.write( "29  " )
f.write( str(ee) + "\n" )
f.write( MOL.save_string_xyz() )
f.close()
--------------------------------------------------------------------------

    Molecular point group: c1
  Charge       = 0
  Multiplicity = 1
  Basis Set: 6-31G*
  Basis Set:
  @DF-RHF Final Energy:  -501.03130186133922
    Total Energy =                       -501.0313018613392160
    Molecular point group: c1
  Basis Set: 6-31G*
  Basis Set:
  Basis Set: 6-31G*
  Basis Set:
  @DF-RHF Final Energy:  -501.03745749169764
    Total Energy =                       -501.0374574916970687
  Basis Set: 6-31G*
  Basis Set:
  Basis Set: 6-31G*
  Basis Set:
  @DF-RHF Final Energy:  -501.03929833730308
    Total Energy =                       -501.0392983373034212
  Basis Set: 6-31G*
  Basis Set:
  Basis Set: 6-31G*
  Basis Set:
  @DF-RHF Final Energy:  -501.03947078053011
    Total Energy =                       -501.0394707805299959
  Basis Set: 6-31G*
  Basis Set:
  @DF-RHF Final Energy:  -501.04088366959309
    Total Energy =                       -501.0408836695935406
  @DF-RHF Final Energy:  -501.04127172341566
    Total Energy =                       -501.0412717234156617
  @DF-RHF Final Energy:  -501.04144740463482
    Total Energy =                       -501.0414474046347095
  @DF-RHF Final Energy:  -501.04158372498216
    Total Energy =                       -501.0415837249825017
  @DF-RHF Final Energy:  -501.04186504985000
    Total Energy =                       -501.0418650498498891
  @DF-RHF Final Energy:  -501.04201395003952
    Total Energy =                       -501.0420139500396317
  @DF-RHF Final Energy:  -501.04201963195953
    Total Energy =                       -501.0420196319603292
  Basis Set: 6-31G*
  Basis Set:
  @DF-RHF Final Energy:  -501.04209495028454
    Total Energy =                       -501.0420949502839676
  Basis Set: 6-31G*
  Basis Set:
  Basis Set: 6-31G*
  Basis Set:
  @DF-RHF Final Energy:  -501.04209753523639
    Total Energy =                       -501.0420975352369624
  Basis Set: 6-31G*
  Basis Set:
  Basis Set: 6-31G*
  Basis Set:
  @DF-RHF Final Energy:  -501.04209908865869
    Total Energy =                       -501.0420990886584605
  Basis Set: 6-31G*
  Basis Set:
  Charge       = 0
  Multiplicity = 1
  Basis Set: 6-31G*
  Basis Set:

    Orbital Energies (a.u.)
    -----------------------

    Doubly Occupied:

       1A    -20.605836     2A    -20.542901     3A    -11.372159
       4A    -11.281093     5A    -11.234634     6A    -11.221949
       7A    -11.216359     8A    -11.212910     9A    -11.211616
      10A    -11.210894    11A    -11.206893    12A     -1.469901
      13A     -1.361939    14A     -1.095867    15A     -1.064638
      16A     -1.016541    17A     -0.977532    18A     -0.928231
      19A     -0.862138    20A     -0.799275    21A     -0.787029
      22A     -0.763607    23A     -0.700195    24A     -0.681793
      25A     -0.671729    26A     -0.648995    27A     -0.620651
      28A     -0.610332    29A     -0.590963    30A     -0.579107
      31A     -0.564180    32A     -0.542968    33A     -0.540558
      34A     -0.530607    35A     -0.518963    36A     -0.503793
      37A     -0.497819    38A     -0.477001    39A     -0.467416
      40A     -0.461247    41A     -0.458729    42A     -0.450810
      43A     -0.440860    44A     -0.430580

  @DF-RHF Final Energy:  -501.04209973298248

   => Energetics <=

    Nuclear Repulsion Energy =            641.5648369046400603
    One-Electron Energy =               -1954.3473954026112551
    Two-Electron Energy =                 811.7404587649886025
    DFT Exchange-Correlation Energy =       0.0000000000000000
    Empirical Dispersion Energy =           0.0000000000000000
    PCM Polarization Energy =               0.0000000000000000
    EFP Energy =                            0.0000000000000000
    Total Energy =                       -501.0420997329825923
    Molecular point group: c1
  Basis Set: 6-31G*
  Basis Set:

  -Total Gradient:
     Atom            X                  Y                   Z
    ------   -----------------  -----------------  -----------------
       1        0.000001742786     0.000043441936    -0.000026333641
       2        0.000004447377    -0.000018757244     0.000027978462
       3       -0.000921865577    -0.000810802185    -0.000464592211
       4        0.000020018713     0.000002502983     0.000022594047
       5       -0.001023641799    -0.000708663677    -0.000093311221
       6        0.000961382472     0.000763171425     0.000382989505
       7       -0.000024180769    -0.000004003408    -0.000000273997
       8       -0.000030283432    -0.000014833934    -0.000036602526
       9        0.001020856067     0.000742722319     0.000165408433
      10        0.000008535309     0.000003077872    -0.000001342503
      11       -0.000004909896     0.000001876304     0.000033228424
      12        0.000000931971     0.000009419923     0.000002014799
      13        0.000014862528    -0.000010293536    -0.000002005399
      14       -0.000000956360     0.000008917388    -0.000011193833
      15       -0.000000534145     0.000006939762     0.000000708520
      16       -0.000001233375    -0.000002589211    -0.000006052958
      17       -0.000000738706    -0.000007991945     0.000014539885
      18        0.000001049815     0.000002720581    -0.000002451077
      19       -0.000001007007    -0.000000853399    -0.000004796211
      20       -0.000002153828     0.000000199242    -0.000003458609
      21       -0.000002972898     0.000004582060     0.000002199793
      22        0.000002797740    -0.000002086222    -0.000003867985
      23       -0.000001598760     0.000000080733    -0.000000035316
      24       -0.000000970555     0.000000296719     0.000000665570
      25        0.000001318281    -0.000000459593    -0.000001004467
      26       -0.000039473680    -0.000009872277     0.000003021262
      27        0.000009134694    -0.000006220235    -0.000001281748
      28        0.000005043087    -0.000000622574     0.000000902045
      29        0.000004399934     0.000008100195     0.000002352958

  **** Optimization is complete! (in 15 steps) ****
    Final optimized geometry and variables:
    Molecular point group: c1

    Geometry (in Angstrom), charge = 0, multiplicity = 1:

    O            1.818585858491    -0.404418169720    -1.534413676134
    C            1.998986607366    -0.489317728388    -0.361544579112
    C            2.199294708561     0.686432066575     0.565614360199
    O            2.097389241373    -1.648234941021     0.274188159815
    C            1.366376953871     1.922050213118     0.206215057974
    H            2.037742105264     0.377629502621     1.591389352791
    H            3.255817129699     0.932786276353     0.483207985126
    C           -0.095012746360     1.885252374330     0.670034391468
    H            1.424102992954     2.083702197164    -0.864537843942
    H            1.839674349233     2.782201169955     0.671714343428
    C           -0.956822255955     0.764753081120     0.081721443136
    H           -0.546311367035     2.842358537450     0.417655131549
    H           -0.118689443045     1.818746311925     1.756859911634
    C           -2.428320917848     0.884084968062     0.484018802793
    H           -0.872986276623     0.770572799062    -1.001805458246
    H           -0.583475757606    -0.202326301064     0.412625505647
    C           -3.300815847536    -0.241889834056    -0.073632846482
    H           -2.817915327559     1.841593952807     0.142160188275
    H           -2.507194649408     0.894238854894     1.570173352508
    C           -4.770482781817    -0.112606809786     0.325297469663
    H           -3.220895413323    -0.254943840693    -1.158377728896
    H           -2.916609521253    -1.199489626651     0.271656787710
    H           -5.362826753790    -0.925084145047    -0.084284818513
    H           -5.194218371796     0.820132729498    -0.036251103792
    H           -4.886835165985    -0.130398928820     1.405377054512
    C            1.990966636787    -2.822166025280    -0.511401133652
    H            1.029028381291    -2.864284202408    -1.001354153594
    H            2.098176411198    -3.647137081823     0.175478918807
    H            2.771709097435    -2.851564067398    -1.257704014169

  Mulliken Charges: (a.u.)
   Center  Symbol    Alpha    Beta     Spin     Total
       1     O     4.28901  4.28901  0.00000 -0.57802
       2     C     2.60265  2.60265  0.00000  0.79470
       3     C     3.20891  3.20891  0.00000 -0.41781
       4     O     4.30666  4.30666  0.00000 -0.61331
       5     C     3.16124  3.16124  0.00000 -0.32248
       6     H     0.40035  0.40035  0.00000  0.19929
       7     H     0.39841  0.39841  0.00000  0.20317
       8     C     3.15258  3.15258  0.00000 -0.30516
       9     H     0.40256  0.40256  0.00000  0.19489
      10     H     0.41764  0.41764  0.00000  0.16471
      11     C     3.16086  3.16086  0.00000 -0.32173
      12     H     0.41977  0.41977  0.00000  0.16047
      13     H     0.42428  0.42428  0.00000  0.15145
      14     C     3.15024  3.15024  0.00000 -0.30047
      15     H     0.41167  0.41167  0.00000  0.17666
      16     H     0.42553  0.42553  0.00000  0.14894
      17     C     3.15129  3.15129  0.00000 -0.30258
      18     H     0.42387  0.42387  0.00000  0.15227
      19     H     0.42504  0.42504  0.00000  0.14992
      20     C     3.23928  3.23928  0.00000 -0.47855
      21     H     0.42150  0.42150  0.00000  0.15701
      22     H     0.42399  0.42399  0.00000  0.15201
      23     H     0.41963  0.41963  0.00000  0.16074
      24     H     0.42180  0.42180  0.00000  0.15640
      25     H     0.42233  0.42233  0.00000  0.15534
      26     C     3.09334  3.09334  0.00000 -0.18667
      27     H     0.40835  0.40835  0.00000  0.18330
      28     H     0.40843  0.40843  0.00000  0.18313
      29     H     0.40881  0.40881  0.00000  0.18238

   Total alpha = 44.00000, Total beta = 44.00000, Total charge =  0.00000
