  ==> Input File <==

--------------------------------------------------------------------------
set {
	reference rhf
	basis 6-31G*
}

set_num_threads( 4 )
memory 2 gb

molecule MOL {
0 1

H	 1.032673	 -2.499859	 2.549089
O	 1.208862	 -2.100186	 1.702936
C	 0.411965	 -1.039805	 1.572693
C	 0.624473	 -0.343591	 0.253101
O	 -0.356888	 -0.719974	 2.419799
C	 -0.265902	 0.883932	 0.072916
H	 1.679026	 -0.095505	 0.191913
H	 0.445941	 -1.076498	 -0.529667
C	 -1.728698	 0.646073	 0.462102
H	 -0.209144	 1.219470	 -0.958188
H	 0.135059	 1.692851	 0.673903
C	 -2.482460	 -0.343073	 -0.431425
H	 -2.245265	 1.602650	 0.432430
H	 -1.779332	 0.308348	 1.496285
C	 -3.960546	 -0.461025	 -0.060175
H	 -2.395034	 -0.026811	 -1.468912
H	 -2.024850	 -1.327147	 -0.371646
H	 -4.472726	 -1.168004	 -0.705284
H	 -4.465146	 0.496508	 -0.151489
H	 -4.081218	 -0.800940	 0.964585

	symmetry c1
}
set optking {
	frozen_dihedral = ("
		7 4 6 10
	")
}

ee = optimize('scf')
oeprop('DIPOLE', 'QUADRUPOLE', 'MULLIKEN_CHARGES')
f=open( 'psi4out.xyz', 'w' )
f.write( "20  " )
f.write( str(ee) + "\n" )
f.write( MOL.save_string_xyz() )
f.close()
--------------------------------------------------------------------------

    Molecular point group: c1
  Charge       = 0
  Multiplicity = 1
  Basis Set: 6-31G*
  Basis Set:
  @DF-RHF Final Energy:  -383.93897766317144
    Total Energy =                       -383.9389776631712721
    Molecular point group: c1
  Basis Set: 6-31G*
  Basis Set:
  Basis Set: 6-31G*
  Basis Set:
  @DF-RHF Final Energy:  -383.94474453162667
    Total Energy =                       -383.9447445316266112
  Basis Set: 6-31G*
  Basis Set:
  Basis Set: 6-31G*
  Basis Set:
  @DF-RHF Final Energy:  -383.94561456194214
    Total Energy =                       -383.9456145619424206
  Basis Set: 6-31G*
  Basis Set:
  Basis Set: 6-31G*
  Basis Set:
  @DF-RHF Final Energy:  -383.94333586003887
    Total Energy =                       -383.9433358600387010
  Basis Set: 6-31G*
  Basis Set:
  @DF-RHF Final Energy:  -383.94616016940103
    Total Energy =                       -383.9461601694007413
  @DF-RHF Final Energy:  -383.94650138905899
    Total Energy =                       -383.9465013890594491
  @DF-RHF Final Energy:  -383.94664226722347
    Total Energy =                       -383.9466422672232966
  @DF-RHF Final Energy:  -383.94665741687407
    Total Energy =                       -383.9466574168737907
  Basis Set: 6-31G*
  Basis Set:
  @DF-RHF Final Energy:  -383.94670496342792
    Total Energy =                       -383.9467049634280329
  Basis Set: 6-31G*
  Basis Set:
  Basis Set: 6-31G*
  Basis Set:
  @DF-RHF Final Energy:  -383.94670890112684
    Total Energy =                       -383.9467089011271810
  Basis Set: 6-31G*
  Basis Set:
  Basis Set: 6-31G*
  Basis Set:
  @DF-RHF Final Energy:  -383.94671028548510
    Total Energy =                       -383.9467102854854375
  Basis Set: 6-31G*
  Basis Set:
  Charge       = 0
  Multiplicity = 1
  Basis Set: 6-31G*
  Basis Set:

    Orbital Energies (a.u.)
    -----------------------

    Doubly Occupied:

       1A    -20.614723     2A    -20.550419     3A    -11.381726
       4A    -11.240430     5A    -11.226441     6A    -11.217985
       7A    -11.213945     8A    -11.209709     9A     -1.475704
      10A     -1.365697    11A     -1.094271    12A     -1.038072
      13A     -0.958453    14A     -0.871606    15A     -0.816528
      16A     -0.773461    17A     -0.702349    18A     -0.684850
      19A     -0.662128    20A     -0.633291    21A     -0.605796
      22A     -0.591439    23A     -0.575420    24A     -0.555675
      25A     -0.533983    26A     -0.514887    27A     -0.499893
      28A     -0.481205    29A     -0.467282    30A     -0.464177
      31A     -0.454235    32A     -0.438046

  @DF-RHF Final Energy:  -383.94671045036023

   => Energetics <=

    Nuclear Repulsion Energy =            389.6772638468029299
    One-Electron Energy =               -1295.4202969492528155
    Two-Electron Energy =                 521.7963226520897706
    DFT Exchange-Correlation Energy =       0.0000000000000000
    Empirical Dispersion Energy =           0.0000000000000000
    PCM Polarization Energy =               0.0000000000000000
    EFP Energy =                            0.0000000000000000
    Total Energy =                       -383.9467104503601149
    Molecular point group: c1
  Basis Set: 6-31G*
  Basis Set:

  -Total Gradient:
     Atom            X                  Y                   Z
    ------   -----------------  -----------------  -----------------
       1       -0.000012004331     0.000026697796    -0.000010676482
       2        0.000012803090     0.000015587035    -0.000036112003
       3       -0.000004239916    -0.000074861162     0.000018569268
       4       -0.000797430664    -0.001163884441    -0.005056307479
       5       -0.000009026975     0.000052357154     0.000010168215
       6        0.003677383197     0.002968734662     0.002049667365
       7        0.000153833438     0.000526821302     0.003950193930
       8       -0.000008293755    -0.000000072762    -0.000000805771
       9        0.000003910461     0.000018652509    -0.000028462412
      10       -0.003030967406    -0.002350197534    -0.000921701198
      11        0.000003567038    -0.000006161391     0.000003407957
      12        0.000001834886    -0.000014921660     0.000016734843
      13       -0.000004616862     0.000010880070     0.000003018109
      14        0.000006262665    -0.000009025691    -0.000000698607
      15        0.000001309996     0.000004323352    -0.000003764570
      16        0.000000222739    -0.000001595636     0.000005255724
      17        0.000004970756    -0.000002908075     0.000000962335
      18       -0.000002107896     0.000004174288    -0.000005319781
      19        0.000002383661     0.000001933400     0.000006930349
      20        0.000000205876    -0.000006533215    -0.000001059802

  **** Optimization is complete! (in 12 steps) ****
    Final optimized geometry and variables:
    Molecular point group: c1

    Geometry (in Angstrom), charge = 0, multiplicity = 1:

    H            1.556552219768    -2.200320246824     1.612290430938
    O            1.568151489993    -1.842366320257     0.729665233458
    C            1.311598657254    -0.538400530640     0.810342423090
    C            1.378864027688     0.142557425955    -0.534822634126
    O            1.101603872514    -0.000271781097     1.849555817475
    C            0.466878684802     1.369620017427    -0.659613372293
    H            2.416776719147     0.458339410336    -0.619874421832
    H            1.199370248881    -0.587214099180    -1.312382569076
    C           -1.011896372456     1.132428214389    -0.323559117875
    H            0.521471253658     1.705783715458    -1.692119641571
    H            0.851076123612     2.164869974812    -0.031851229101
    C           -1.699815775217     0.077526547499    -1.194995457497
    H           -1.533248073999     2.079382210607    -0.445415673407
    H           -1.112109099132     0.864200064563     0.722888350738
    C           -3.195554668199    -0.039248804946    -0.902445860942
    H           -1.555902274646     0.323955912337    -2.245506221922
    H           -1.235103831454    -0.893979087851    -1.043268002533
    H           -3.660731840015    -0.796235172494    -1.526205285073
    H           -3.705340751775     0.901919332495    -1.087466654301
    H           -3.370874510786    -0.310688320680     0.134575077777

  Mulliken Charges: (a.u.)
   Center  Symbol    Alpha    Beta     Spin     Total
       1     H     0.26820  0.26820  0.00000  0.46360
       2     O     4.35010  4.35010  0.00000 -0.70021
       3     C     2.62221  2.62221  0.00000  0.75557
       4     C     3.21544  3.21544  0.00000 -0.43087
       5     O     4.28167  4.28167  0.00000 -0.56334
       6     C     3.15242  3.15242  0.00000 -0.30484
       7     H     0.39581  0.39581  0.00000  0.20838
       8     H     0.39682  0.39682  0.00000  0.20635
       9     C     3.16375  3.16375  0.00000 -0.32750
      10     H     0.41819  0.41819  0.00000  0.16362
      11     H     0.40736  0.40736  0.00000  0.18528
      12     C     3.15551  3.15551  0.00000 -0.31103
      13     H     0.42033  0.42033  0.00000  0.15934
      14     H     0.40625  0.40625  0.00000  0.18751
      15     C     3.23886  3.23886  0.00000 -0.47773
      16     H     0.42404  0.42404  0.00000  0.15192
      17     H     0.42276  0.42276  0.00000  0.15449
      18     H     0.41920  0.41920  0.00000  0.16160
      19     H     0.42119  0.42119  0.00000  0.15761
      20     H     0.41988  0.41988  0.00000  0.16024

   Total alpha = 32.00000, Total beta = 32.00000, Total charge = -0.00000
