                              Psi4 1.0.54 Driver

  ==> Input File <==

--------------------------------------------------------------------------
set {
	reference rhf
	basis cc-pvtz
}

set_num_threads( 4 )
memory 2 gb

molecule MOL {
0 1

O	 2.166217	 -0.280392	 0.382077
C	 1.121787	 0.124983	 0.000110
C	 -0.170912	 -0.649867	 -0.000147
O	 0.952230	 1.342845	 -0.488193
C	 -1.413045	 0.229353	 0.001137
H	 -0.152877	 -1.303435	 -0.866175
H	 -0.152278	 -1.305116	 0.864586
C	 -2.702562	 -0.586401	 0.000228
H	 -1.390744	 0.882001	 -0.864365
H	 -1.390549	 0.879837	 0.868264
C	 -3.953810	 0.284959	 -0.000782
H	 -2.717793	 -1.238567	 -0.869075
H	 -2.719108	 -1.238472	 0.869576
H	 -3.983727	 0.924403	 -0.876454
H	 -4.852989	 -0.320147	 -0.001515
H	 -3.985140	 0.924399	 0.874841
C	 2.087611	 2.182367	 -0.546763
H	 2.493073	 2.344879	 0.440869
H	 1.747053	 3.114620	 -0.967231
H	 2.851515	 1.747446	 -1.174073

	symmetry c1
}
set optking {
	frozen_dihedral = ("
		1 2 3 6
	")
}

ee,wfn = optimize('scf', return_wfn=True)
oeprop( wfn, 'DIPOLE', 'QUADRUPOLE', 'MULLIKEN_CHARGES')
f=open( 'psi4out.xyz', 'w' )
f.write( "20  " )
f.write( str(ee) + "\n" )
f.write( MOL.save_string_xyz() )
f.close()
--------------------------------------------------------------------------

    Molecular point group: c1
  Charge       = 0
  Multiplicity = 1
  Basis Set: CC-PVTZ
  Basis Set:
  @DF-RHF Final Energy:  -384.07991894381831
    Total Energy =                       -384.0799189438192798
    Molecular point group: c1
  Basis Set: CC-PVTZ
  Basis Set:
  Basis Set: CC-PVTZ
  Basis Set:
  @DF-RHF Final Energy:  -382.34215993340388
    Total Energy =                       -382.3421599334038774
  Basis Set: CC-PVTZ
  Basis Set:
  Basis Set: CC-PVTZ
  Basis Set:
  @DF-RHF Final Energy:  -382.55670566128066
    Total Energy =                       -382.5567056612806027
  Basis Set: CC-PVTZ
  Basis Set:
  Basis Set: CC-PVTZ
  Basis Set:
  @DF-RHF Final Energy:  -383.00673542605261
    Total Energy =                       -383.0067354260526145
  Basis Set: CC-PVTZ
  Basis Set:
  @DF-RHF Final Energy:  -383.46673980018261
    Total Energy =                       -383.4667398001825518
  @DF-RHF Final Energy:  -383.79739385668483
    Total Energy =                       -383.7973938566849483
  @DF-RHF Final Energy:  -383.97565422551685
    Total Energy =                       -383.9756542255173599
  @DF-RHF Final Energy:  -384.06498678158061
    Total Energy =                       -384.0649867815799325
  @DF-RHF Final Energy:  -384.08016360967355
    Total Energy =                       -384.0801636096734910
  @DF-RHF Final Energy:  -384.08062184716806
    Total Energy =                       -384.0806218471676630
  Basis Set: CC-PVTZ
  Basis Set:
  @DF-RHF Final Energy:  -384.08032217903889
    Total Energy =                       -384.0803221790384896
  Basis Set: CC-PVTZ
  Basis Set:
  Basis Set: CC-PVTZ
  Basis Set:
  @DF-RHF Final Energy:  -384.08102210622286
    Total Energy =                       -384.0810221062226901
  Basis Set: CC-PVTZ
  Basis Set:
  Basis Set: CC-PVTZ
  Basis Set:
  @DF-RHF Final Energy:  -384.08103209670946
    Total Energy =                       -384.0810320967091229
  Basis Set: CC-PVTZ
  Basis Set:
  Charge       = 0
  Multiplicity = 1
  Basis Set: CC-PVTZ
  Basis Set:

    Orbital Energies (a.u.)
    -----------------------

    Doubly Occupied:

       1A    -20.598774     2A    -20.530415     3A    -11.364706
       4A    -11.279309     5A    -11.233933     6A    -11.222707
       7A    -11.220925     8A    -11.211772     9A     -1.473119
      10A     -1.364302    11A     -1.092899    12A     -1.025163
      13A     -0.967717    14A     -0.893273    15A     -0.807015
      16A     -0.776822    17A     -0.695232    18A     -0.686324
      19A     -0.675407    20A     -0.648941    21A     -0.595224
      22A     -0.593251    23A     -0.581808    24A     -0.545283
      25A     -0.532496    26A     -0.524704    27A     -0.505278
      28A     -0.493896    29A     -0.480420    30A     -0.474616
      31A     -0.457174    32A     -0.431083

  @DF-RHF Final Energy:  -384.08103591633841

   => Energetics <=

    Nuclear Repulsion Energy =            384.2137876677440431
    One-Electron Energy =               -1284.6216706943969257
    Two-Electron Energy =                 516.3268471103147021
    DFT Exchange-Correlation Energy =       0.0000000000000000
    Empirical Dispersion Energy =           0.0000000000000000
    PCM Polarization Energy =               0.0000000000000000
    EFP Energy =                            0.0000000000000000
    Total Energy =                       -384.0810359163381236
    Molecular point group: c1
  Basis Set: CC-PVTZ
  Basis Set:

  -Total Gradient:
     Atom            X                  Y                   Z
    ------   -----------------  -----------------  -----------------
       1        0.000508541803    -0.000553080593    -0.000272972845
       2       -0.000777349224     0.000694546661     0.000658477947
       3        0.000215025383    -0.000132324571    -0.000999407689
       4        0.000037779787     0.000124597984    -0.000122166770
       5       -0.000003473433     0.000034959961    -0.000065832849
       6        0.000013450983    -0.000114521038     0.000752676843
       7       -0.000003176618     0.000002430383     0.000010981886
       8       -0.000000498587    -0.000044169919     0.000063244097
       9        0.000013929179    -0.000003937130    -0.000007805283
      10        0.000000324206     0.000005234700     0.000019277896
      11        0.000020720712     0.000053607606    -0.000024648779
      12        0.000000775393     0.000001543697    -0.000012871315
      13       -0.000013788223     0.000004826102     0.000015024323
      14        0.000006155327    -0.000007429528    -0.000015334391
      15       -0.000002698021    -0.000030706585     0.000010515489
      16       -0.000000528950     0.000005356030     0.000011480605
      17       -0.000032771811    -0.000077525581    -0.000023194433
      18       -0.000007113695     0.000010038270     0.000014759173
      19        0.000007255044     0.000019587181    -0.000016651073
      20        0.000017440745     0.000006966368     0.000004447169

  **** Optimization is complete! (in 14 steps) ****
    Final optimized geometry and variables:
    Molecular point group: c1

    Geometry (in Angstrom), charge = 0, multiplicity = 1:

    O            1.620510508784     0.583849606345     1.783822620687
    C            1.027316900284     0.372288029603     0.780605574619
    C           -0.047998821808    -0.680537158999     0.655839996674
    O            1.272391261188     1.010513800920    -0.349464758239
    C           -1.069326061605    -0.487826279247    -0.460356841754
    H            0.475316550735    -1.624765395320     0.531859677601
    H           -0.530750704167    -0.731675607354     1.622934842467
    C           -2.132645725662    -1.582669069155    -0.459869261169
    H           -0.564684094605    -0.470401939053    -1.418597729974
    H           -1.548447619105     0.480298511008    -0.349369247934
    C           -3.164301850645    -1.406830684263    -1.568798845035
    H           -1.651417970486    -2.551234440644    -0.565979152588
    H           -2.636810202488    -1.597112438421     0.502409803191
    H           -2.694331081345    -1.422734228633    -2.546374870194
    H           -3.904094482053    -2.198429722558    -1.544358874825
    H           -3.687506197204    -0.461693858800    -1.469818422541
    C            2.295136744549     1.986347833774    -0.333239369639
    H            2.063757355393     2.767940533017     0.374836712302
    H            2.337926677705     2.388732063363    -1.332343941782
    H            3.242348300960     1.540463810020    -0.068792561744

  Mulliken Charges: (a.u.)
   Center  Symbol    Alpha    Beta     Spin     Total
       1     O     4.20256  4.20256  0.00000 -0.40511
       2     C     2.81458  2.81458  0.00000  0.37084
       3     C     3.08645  3.08645  0.00000 -0.17289
       4     O     4.14279  4.14279  0.00000 -0.28559
       5     C     3.08637  3.08637  0.00000 -0.17274
       6     H     0.44355  0.44355  0.00000  0.11289
       7     H     0.43613  0.43613  0.00000  0.12775
       8     C     3.08878  3.08878  0.00000 -0.17756
       9     H     0.44550  0.44550  0.00000  0.10900
      10     H     0.45067  0.45067  0.00000  0.09866
      11     C     3.14936  3.14936  0.00000 -0.29872
      12     H     0.45398  0.45398  0.00000  0.09204
      13     H     0.45309  0.45309  0.00000  0.09382
      14     H     0.45444  0.45444  0.00000  0.09112
      15     H     0.44740  0.44740  0.00000  0.10520
      16     H     0.45433  0.45433  0.00000  0.09134
      17     C     3.03642  3.03642  0.00000 -0.07283
      18     H     0.45344  0.45344  0.00000  0.09312
      19     H     0.44669  0.44669  0.00000  0.10662
      20     H     0.45348  0.45348  0.00000  0.09304

   Total alpha = 32.00000, Total beta = 32.00000, Total charge = -0.00000

*** Psi4 exiting successfully. Buy a developer a beer!
