  ==> Input File <==

--------------------------------------------------------------------------
set {
	reference rhf
	basis cc-pvtz
}

set_num_threads( 4 )
memory 2 gb

molecule MOL {
0 1

H	 2.190573	 -0.629143	 -0.208718
O	 1.355408	 -0.529451	 0.208662
C	 0.700177	 0.619554	 -0.266242
C	 -0.713111	 0.588314	 0.266177
H	 0.678680	 0.627133	 -1.351786
H	 1.199747	 1.521489	 0.077736
O	 -1.421673	 -0.521378	 -0.196983
H	 -1.244794	 1.469161	 -0.069059
H	 -0.685100	 0.604721	 1.352683
H	 -2.291123	 -0.492671	 0.162542

	symmetry c1
}
set optking {
	frozen_dihedral = ("
		10 7 4 3
	")
}

ee = optimize('scf')
oeprop('DIPOLE', 'QUADRUPOLE', 'MULLIKEN_CHARGES')
f=open( 'psi4out.xyz', 'w' )
f.write( "10  " )
f.write( str(ee) + "\n" )
f.write( MOL.save_string_xyz() )
f.close()
--------------------------------------------------------------------------

    Molecular point group: c1
  Charge       = 0
  Multiplicity = 1
  Basis Set: CC-PVTZ
  Basis Set:
  @DF-RHF Final Energy:  -229.02219787970932
    Total Energy =                       -229.0221978797094380
    Molecular point group: c1
  Basis Set: CC-PVTZ
  Basis Set:
  Basis Set: CC-PVTZ
  Basis Set:
  @DF-RHF Final Energy:  -229.02380182777577
    Total Energy =                       -229.0238018277758840
  Basis Set: CC-PVTZ
  Basis Set:
  Basis Set: CC-PVTZ
  Basis Set:
  @DF-RHF Final Energy:  -229.02406144805039
    Total Energy =                       -229.0240614480504746
  Basis Set: CC-PVTZ
  Basis Set:
  Basis Set: CC-PVTZ
  Basis Set:
  @DF-RHF Final Energy:  -229.02407734185181
    Total Energy =                       -229.0240773418518074
  Basis Set: CC-PVTZ
  Basis Set:
  Basis Set: CC-PVTZ
  Basis Set:
  @DF-RHF Final Energy:  -229.02408105422217
    Total Energy =                       -229.0240810542222221
  Basis Set: CC-PVTZ
  Basis Set:
  Basis Set: CC-PVTZ
  Basis Set:
  @DF-RHF Final Energy:  -229.02408232269605
    Total Energy =                       -229.0240823226960458
  Basis Set: CC-PVTZ
  Basis Set:
  Charge       = 0
  Multiplicity = 1
  Basis Set: CC-PVTZ
  Basis Set:

    Orbital Energies (a.u.)
    -----------------------

    Doubly Occupied:

       1A    -20.546177     2A    -20.545663     3A    -11.268525
       4A    -11.267845     5A     -1.375123     6A     -1.355302
       7A     -1.003945     8A     -0.831484     9A     -0.716620
      10A     -0.711830    11A     -0.613203    12A     -0.606800
      13A     -0.590568    14A     -0.528570    15A     -0.475269
      16A     -0.446762    17A     -0.441298

  @DF-RHF Final Energy:  -229.02408253553165

   => Energetics <=

    Nuclear Repulsion Energy =            133.5016089801588919
    One-Electron Energy =                -578.4014190703358054
    Two-Electron Energy =                 215.8757275546450956
    DFT Exchange-Correlation Energy =       0.0000000000000000
    Empirical Dispersion Energy =           0.0000000000000000
    PCM Polarization Energy =               0.0000000000000000
    EFP Energy =                            0.0000000000000000
    Total Energy =                       -229.0240825355318179
    Molecular point group: c1
  Basis Set: CC-PVTZ
  Basis Set:

  -Total Gradient:
     Atom            X                  Y                   Z
    ------   -----------------  -----------------  -----------------
       1       -0.000004414805     0.000008484707    -0.000000159107
       2       -0.000013648610    -0.000012739280     0.000015514776
       3       -0.000111271491     0.000264075397    -0.000356260547
       4        0.000140510775    -0.000215754130     0.000361511534
       5       -0.000002844690     0.000001876457    -0.000001318072
       6       -0.000010267568    -0.000008690907    -0.000002811065
       7        0.000214001978    -0.000438603752     0.000508140917
       8        0.000001221770    -0.000013560081    -0.000000298007
       9       -0.000003371983    -0.000002896107    -0.000001541641
      10       -0.000209915379     0.000417807696    -0.000522778789

  **** Optimization is complete! (in 7 steps) ****
    Final optimized geometry and variables:
    Molecular point group: c1

    Geometry (in Angstrom), charge = 0, multiplicity = 1:

    H            2.218980579868    -0.638559416290    -0.202498313648
    O            1.423291560188    -0.501624123773     0.276682806166
    C            0.699317968118     0.557974509924    -0.280804406158
    C           -0.700090867397     0.556886084516     0.281037872234
    H            0.641260059384     0.469064771512    -1.361327198742
    H            1.167739820048     1.510104860957    -0.041020740721
    O           -1.417692382147    -0.511291408509    -0.268285880224
    H           -1.170374834875     1.505594699758     0.031556952127
    H           -0.645273598709     0.477701099134     1.362900341778
    H           -2.291992265155    -0.522655567265     0.074343810438

  Mulliken Charges: (a.u.)
   Center  Symbol    Alpha    Beta     Spin     Total
       1     H     0.39449  0.39449  0.00000  0.21102
       2     O     4.19554  4.19554  0.00000 -0.39108
       3     C     2.96194  2.96194  0.00000  0.07612
       4     C     2.96076  2.96076  0.00000  0.07848
       5     H     0.47066  0.47066  0.00000  0.05869
       6     H     0.47765  0.47765  0.00000  0.04469
       7     O     4.19411  4.19411  0.00000 -0.38823
       8     H     0.47827  0.47827  0.00000  0.04345
       9     H     0.47082  0.47082  0.00000  0.05836
      10     H     0.39575  0.39575  0.00000  0.20849

   Total alpha = 17.00000, Total beta = 17.00000, Total charge =  0.00000
