                              Psi4 1.0.54 Driver

  ==> Input File <==

--------------------------------------------------------------------------
set {
	reference rhf
	basis cc-pvtz
}

set_num_threads( 4 )
memory 2 gb

molecule MOL {
0 1

H	 -0.000105	 1.988529	 0.748933
O	 -0.000098	 1.879786	 -0.188206
C	 -0.000014	 0.545691	 -0.532416
C	 -1.286000	 -0.125171	 -0.046657
C	 1.286016	 -0.125031	 -0.046584
H	 0.000021	 0.481103	 -1.610604
F	 -2.063820	 -0.365243	 -1.073410
F	 -1.055894	 -1.263184	 0.558065
F	 -1.948233	 0.652969	 0.782391
F	 2.317750	 0.468717	 -0.594166
F	 1.336617	 -1.393765	 -0.365123
F	 1.414467	 -0.024806	 1.259108

	symmetry c1
}
set optking {
	frozen_dihedral = ("
		7 4 3 6
	")
}

ee,wfn = optimize('scf', return_wfn=True)
oeprop( wfn, 'DIPOLE', 'QUADRUPOLE', 'MULLIKEN_CHARGES')
f=open( 'psi4out.xyz', 'w' )
f.write( "12  " )
f.write( str(ee) + "\n" )
f.write( MOL.save_string_xyz() )
f.close()
--------------------------------------------------------------------------

    Molecular point group: c1
  Charge       = 0
  Multiplicity = 1
  Basis Set: CC-PVTZ
  Basis Set:
  @DF-RHF Final Energy:  -786.58302194964403
    Total Energy =                       -786.5830219496444897
    Molecular point group: c1
  Basis Set: CC-PVTZ
  Basis Set:
  Basis Set: CC-PVTZ
  Basis Set:
  @DF-RHF Final Energy:  -786.58360754184196
    Total Energy =                       -786.5836075418412747
  Basis Set: CC-PVTZ
  Basis Set:
  Basis Set: CC-PVTZ
  Basis Set:
  @DF-RHF Final Energy:  -786.58412413762358
    Total Energy =                       -786.5841241376231210
  Basis Set: CC-PVTZ
  Basis Set:
  Basis Set: CC-PVTZ
  Basis Set:
  @DF-RHF Final Energy:  -786.58415422226130
    Total Energy =                       -786.5841542222613043
  Basis Set: CC-PVTZ
  Basis Set:
  Basis Set: CC-PVTZ
  Basis Set:
  @DF-RHF Final Energy:  -786.58418116724192
    Total Energy =                       -786.5841811672419226
  Basis Set: CC-PVTZ
  Basis Set:
  Basis Set: CC-PVTZ
  Basis Set:
  @DF-RHF Final Energy:  -786.58418506698024
    Total Energy =                       -786.5841850669806945
  Basis Set: CC-PVTZ
  Basis Set:
  Charge       = 0
  Multiplicity = 1
  Basis Set: CC-PVTZ
  Basis Set:

    Orbital Energies (a.u.)
    -----------------------

    Doubly Occupied:

       1A    -26.360713     2A    -26.356875     3A    -26.356005
       4A    -26.355981     5A    -26.355304     6A    -26.351846
       7A    -20.608105     8A    -11.523053     9A    -11.517300
      10A    -11.351755    11A     -1.772595    12A     -1.765559
      13A     -1.667184    14A     -1.664044    15A     -1.663515
      16A     -1.658902    17A     -1.438032    18A     -1.100075
      19A     -1.001167    20A     -0.944054    21A     -0.872808
      22A     -0.865948    23A     -0.858414    24A     -0.853667
      25A     -0.841650    26A     -0.820638    27A     -0.740574
      28A     -0.737897    29A     -0.734008    30A     -0.730236
      31A     -0.694803    32A     -0.691971    33A     -0.688009
      34A     -0.684072    35A     -0.675093    36A     -0.668687
      37A     -0.662866    38A     -0.653880    39A     -0.623113
      40A     -0.552773    41A     -0.508929

  @DF-RHF Final Energy:  -786.58418546855739

   => Energetics <=

    Nuclear Repulsion Energy =            669.7010940869544129
    One-Electron Energy =               -2426.6263606573875222
    Two-Electron Energy =                 970.3410811018759432
    DFT Exchange-Correlation Energy =       0.0000000000000000
    Empirical Dispersion Energy =           0.0000000000000000
    PCM Polarization Energy =               0.0000000000000000
    EFP Energy =                            0.0000000000000000
    Total Energy =                       -786.5841854685570524
    Molecular point group: c1
  Basis Set: CC-PVTZ
  Basis Set:

  -Total Gradient:
     Atom            X                  Y                   Z
    ------   -----------------  -----------------  -----------------
       1        0.000000518605     0.000017735431     0.000002414559
       2        0.000019578035    -0.000010467181     0.000015683147
       3        0.002072453104    -0.003995605762     0.000075777710
       4       -0.001732143914     0.003662845668     0.000446437051
       5       -0.000022649152    -0.000010004578    -0.000082680360
       6       -0.001470270030     0.002747071644    -0.000144939380
       7        0.001075786654    -0.002369424239    -0.000332360757
       8        0.000028206976    -0.000070274220    -0.000008169513
       9        0.000012675792     0.000008926279    -0.000047988890
      10        0.000003368737     0.000002175101     0.000013587138
      11        0.000002921365     0.000027699454     0.000029925217
      12        0.000009553834    -0.000010677602     0.000032314082

  **** Optimization is complete! (in 7 steps) ****
    Final optimized geometry and variables:
    Molecular point group: c1

    Geometry (in Angstrom), charge = 0, multiplicity = 1:

    H           -0.059894779954     2.040857230916     0.713962798466
    O            0.048883880547     1.901774899484    -0.211872466026
    C            0.016646751756     0.561939534452    -0.530167456636
    C           -1.292236876666    -0.112963349670    -0.041744140261
    C            1.287635529870    -0.129905848936    -0.041505668976
    H            0.014272747280     0.506280281239    -1.607337942792
    F           -2.086024566453    -0.345669497549    -1.060860409842
    F           -1.084988575755    -1.261141464944     0.557895614177
    F           -1.931594542928     0.658816883203     0.804152228875
    F            2.336151158670     0.498199588169    -0.511593970357
    F            1.352201437027    -1.373620046122    -0.448352540543
    F            1.367911229998    -0.114360952825     1.271981930733

  Mulliken Charges: (a.u.)
   Center  Symbol    Alpha    Beta     Spin     Total
       1     H     0.38152  0.38152  0.00000  0.23696
       2     O     4.18539  4.18539  0.00000 -0.37077
       3     C     3.02297  3.02297  0.00000 -0.04593
       4     C     2.67327  2.67327  0.00000  0.65346
       5     C     2.67837  2.67837  0.00000  0.64326
       6     H     0.42741  0.42741  0.00000  0.14519
       7     F     4.60457  4.60457  0.00000 -0.20914
       8     F     4.60196  4.60196  0.00000 -0.20393
       9     F     4.60644  4.60644  0.00000 -0.21288
      10     F     4.60110  4.60110  0.00000 -0.20219
      11     F     4.60517  4.60517  0.00000 -0.21033
      12     F     4.61184  4.61184  0.00000 -0.22369

   Total alpha = 41.00000, Total beta = 41.00000, Total charge = -0.00000

*** Psi4 exiting successfully. Buy a developer a beer!
