                              Psi4 1.0.54 Driver

  ==> Input File <==

--------------------------------------------------------------------------
set {
	reference rhf
	basis cc-pvtz
}

set_num_threads( 4 )
memory 2 gb

molecule MOL {
0 1

O	 0.074770	 1.259872	 0.000487
C	 0.029490	 0.077183	 0.000078
C	 -1.232113	 -0.748027	 0.000015
O	 1.106773	 -0.690081	 -0.000204
C	 -2.501422	 0.088592	 -0.000052
H	 -1.188777	 -1.400384	 -0.865133
H	 -1.188857	 -1.400312	 0.865225
H	 -2.548170	 0.725504	 -0.873205
H	 -3.371613	 -0.556398	 -0.000040
H	 -2.548215	 0.725571	 0.873047
C	 1.004551	 -1.952379	 0.627328
H	 0.757769	 -1.839578	 1.672607
H	 1.971389	 -2.416903	 0.521182
H	 0.246710	 -2.555304	 0.149411

	symmetry c1
}
set optking {
	frozen_dihedral = ("
		11 4 2 3
	")
}

ee,wfn = optimize('scf', return_wfn=True)
oeprop( wfn, 'DIPOLE', 'QUADRUPOLE', 'MULLIKEN_CHARGES')
f=open( 'psi4out.xyz', 'w' )
f.write( "14  " )
f.write( str(ee) + "\n" )
f.write( MOL.save_string_xyz() )
f.close()
--------------------------------------------------------------------------

    Molecular point group: c1
  Charge       = 0
  Multiplicity = 1
  Basis Set: CC-PVTZ
  Basis Set:
  @DF-RHF Final Energy:  -305.96347368647594
    Total Energy =                       -305.9634736864757087
    Molecular point group: c1
  Basis Set: CC-PVTZ
  Basis Set:
  Basis Set: CC-PVTZ
  Basis Set:
  @DF-RHF Final Energy:  -305.95497170376427
    Total Energy =                       -305.9549717037643859
  Basis Set: CC-PVTZ
  Basis Set:
  Basis Set: CC-PVTZ
  Basis Set:
  @DF-RHF Final Energy:  -305.97026473226083
    Total Energy =                       -305.9702647322607163
  Basis Set: CC-PVTZ
  Basis Set:
  Basis Set: CC-PVTZ
  Basis Set:
  @DF-RHF Final Energy:  -305.97067980650058
    Total Energy =                       -305.9706798065006410
  Basis Set: CC-PVTZ
  Basis Set:
  @DF-RHF Final Energy:  -305.97186288067485
    Total Energy =                       -305.9718628806747347
  Basis Set: CC-PVTZ
  Basis Set:
  @DF-RHF Final Energy:  -305.97208369373209
    Total Energy =                       -305.9720836937323156
  Basis Set: CC-PVTZ
  Basis Set:
  Basis Set: CC-PVTZ
  Basis Set:
  @DF-RHF Final Energy:  -305.97211496464115
    Total Energy =                       -305.9721149646412641
  Basis Set: CC-PVTZ
  Basis Set:
  Basis Set: CC-PVTZ
  Basis Set:
  @DF-RHF Final Energy:  -305.97211738466649
    Total Energy =                       -305.9721173846666034
  Basis Set: CC-PVTZ
  Basis Set:
  Charge       = 0
  Multiplicity = 1
  Basis Set: CC-PVTZ
  Basis Set:

    Orbital Energies (a.u.)
    -----------------------

    Doubly Occupied:

       1A    -20.592729     2A    -20.532343     3A    -11.367019
       4A    -11.293733     5A    -11.246344     6A    -11.218992
       7A     -1.465858     8A     -1.369527     9A     -1.064072
      10A     -0.985769    11A     -0.899914    12A     -0.769335
      13A     -0.706591    14A     -0.688688    15A     -0.676186
      16A     -0.627376    17A     -0.608677    18A     -0.560422
      19A     -0.552219    20A     -0.526885    21A     -0.512757
      22A     -0.501152    23A     -0.454595    24A     -0.436817

  @DF-RHF Final Energy:  -305.97211773939540

   => Energetics <=

    Nuclear Repulsion Energy =            247.9436264012554716
    One-Electron Energy =                -908.5154851279860395
    Two-Electron Energy =                 354.5997409873349397
    DFT Exchange-Correlation Energy =       0.0000000000000000
    Empirical Dispersion Energy =           0.0000000000000000
    PCM Polarization Energy =               0.0000000000000000
    EFP Energy =                            0.0000000000000000
    Total Energy =                       -305.9721177393956850
    Molecular point group: c1
  Basis Set: CC-PVTZ
  Basis Set:

  -Total Gradient:
     Atom            X                  Y                   Z
    ------   -----------------  -----------------  -----------------
       1       -0.000011448514     0.000027471069     0.000000369081
       2        0.000544697073     0.000352994847     0.004548121342
       3       -0.000064550856     0.000088584720    -0.002236662418
       4       -0.001225649615    -0.001427566497    -0.004518566704
       5        0.000004900760     0.000005241505     0.000014419908
       6       -0.000004239468     0.000003549759     0.000015177716
       7        0.000003677172    -0.000005460831     0.000022066356
       8        0.000002178124     0.000001930334    -0.000006376265
       9        0.000001662076    -0.000002999123    -0.000001810036
      10       -0.000000592981    -0.000000587496    -0.000002921954
      11        0.000759266761     0.000929970506     0.002189691804
      12       -0.000007373617    -0.000002626769    -0.000023428862
      13       -0.000011875571     0.000008096510    -0.000009352121
      14        0.000009348659     0.000021401464     0.000009272154

  **** Optimization is complete! (in 9 steps) ****
    Final optimized geometry and variables:
    Molecular point group: c1

    Geometry (in Angstrom), charge = 0, multiplicity = 1:

    O            0.323969720840     1.543593096279    -0.084808503913
    C            0.232637890653     0.369430649129    -0.060699106177
    C           -1.091662505111    -0.363734175427    -0.058298469674
    O            1.340110455280    -0.373015596746    -0.122336552101
    C           -2.285464355149     0.576599298819    -0.118418064704
    H           -1.089598015160    -1.041668533882    -0.905635063985
    H           -1.147667290472    -0.988529023494     0.826530045251
    H           -2.255169863520     1.185120617516    -1.011508624030
    H           -3.206263243468     0.005971434512    -0.120779543415
    H           -2.296407105826     1.243648276541     0.732434250057
    C            1.402037911910    -1.670614364791     0.414712990199
    H            1.142727601571    -1.673212900805     1.465855434054
    H            2.426272514420    -1.988381175482     0.307528135821
    H            0.763011647908    -2.362440048222    -0.117931441623

  Mulliken Charges: (a.u.)
   Center  Symbol    Alpha    Beta     Spin     Total
       1     O     4.17640  4.17640  0.00000 -0.35281
       2     C     2.80649  2.80649  0.00000  0.38702
       3     C     3.12099  3.12099  0.00000 -0.24198
       4     O     4.13353  4.13353  0.00000 -0.26706
       5     C     3.13921  3.13921  0.00000 -0.27842
       6     H     0.43831  0.43831  0.00000  0.12339
       7     H     0.44369  0.44369  0.00000  0.11261
       8     H     0.44510  0.44510  0.00000  0.10981
       9     H     0.45137  0.45137  0.00000  0.09726
      10     H     0.44614  0.44614  0.00000  0.10771
      11     C     3.04566  3.04566  0.00000 -0.09132
      12     H     0.45831  0.45831  0.00000  0.08338
      13     H     0.43417  0.43417  0.00000  0.13165
      14     H     0.46062  0.46062  0.00000  0.07875

   Total alpha = 24.00000, Total beta = 24.00000, Total charge = -0.00000

*** Psi4 exiting successfully. Buy a developer a beer!
