                              Psi4 1.0.54 Driver

  ==> Input File <==

--------------------------------------------------------------------------
set {
	reference rhf
	basis cc-pvtz
}

set_num_threads( 4 )
memory 2 gb

molecule MOL {
0 1

H	 -1.835082	 1.385983	 0.000069
C	 -1.300516	 0.441153	 -0.000028
O	 -0.006604	 0.654344	 -0.000106
O	 -1.828920	 -0.612308	 0.000113
C	 0.804152	 -0.191257	 0.810730
C	 2.239448	 0.247683	 0.643523
H	 0.661224	 -1.216004	 0.498605
H	 0.478211	 -0.107460	 1.837718
H	 2.550850	 0.162164	 -0.389766
H	 2.884466	 -0.377533	 1.249255
H	 2.366915	 1.276296	 0.956056

	symmetry c1
}
set optking {
	frozen_dihedral = ("
		5 3 2 4
	")
}

ee,wfn = optimize('scf', return_wfn=True)
oeprop( wfn, 'DIPOLE', 'QUADRUPOLE', 'MULLIKEN_CHARGES')
f=open( 'psi4out.xyz', 'w' )
f.write( "11  " )
f.write( str(ee) + "\n" )
f.write( MOL.save_string_xyz() )
f.close()
--------------------------------------------------------------------------

    Molecular point group: c1
  Charge       = 0
  Multiplicity = 1
  Basis Set: CC-PVTZ
  Basis Set:
  @DF-RHF Final Energy:  -266.92335232464336
    Total Energy =                       -266.9233523246433606
    Molecular point group: c1
  Basis Set: CC-PVTZ
  Basis Set:
  Basis Set: CC-PVTZ
  Basis Set:
  @DF-RHF Final Energy:  -266.91500696911390
    Total Energy =                       -266.9150069691142448
  Basis Set: CC-PVTZ
  Basis Set:
  Basis Set: CC-PVTZ
  Basis Set:
  @DF-RHF Final Energy:  -266.92266551202192
    Total Energy =                       -266.9226655120221494
  Basis Set: CC-PVTZ
  Basis Set:
  Basis Set: CC-PVTZ
  Basis Set:
  @DF-RHF Final Energy:  -266.92403624987639
    Total Energy =                       -266.9240362498763943
  Basis Set: CC-PVTZ
  Basis Set:
  Basis Set: CC-PVTZ
  Basis Set:
  @DF-RHF Final Energy:  -266.92404821411480
    Total Energy =                       -266.9240482141147481
  Basis Set: CC-PVTZ
  Basis Set:
  Basis Set: CC-PVTZ
  Basis Set:
  @DF-RHF Final Energy:  -266.92405264981159
    Total Energy =                       -266.9240526498115855
  Basis Set: CC-PVTZ
  Basis Set:
  Charge       = 0
  Multiplicity = 1
  Basis Set: CC-PVTZ
  Basis Set:

    Orbital Energies (a.u.)
    -----------------------

    Doubly Occupied:

       1A    -20.597292     2A    -20.550630     3A    -11.371453
       4A    -11.293031     5A    -11.225671     6A     -1.474265
       7A     -1.378596     8A     -1.052500     9A     -0.899758
      10A     -0.810761    11A     -0.741637    12A     -0.690273
      13A     -0.675870    14A     -0.610914    15A     -0.565671
      16A     -0.556659    17A     -0.525064    18A     -0.513631
      19A     -0.466168    20A     -0.453595

  @DF-RHF Final Energy:  -266.92405311236519

   => Energetics <=

    Nuclear Repulsion Energy =            178.7443154847354378
    One-Electron Energy =                -718.4298569795015510
    Two-Electron Energy =                 272.7614883824010121
    DFT Exchange-Correlation Energy =       0.0000000000000000
    Empirical Dispersion Energy =           0.0000000000000000
    PCM Polarization Energy =               0.0000000000000000
    EFP Energy =                            0.0000000000000000
    Total Energy =                       -266.9240531123650726
    Molecular point group: c1
  Basis Set: CC-PVTZ
  Basis Set:

  -Total Gradient:
     Atom            X                  Y                   Z
    ------   -----------------  -----------------  -----------------
       1        0.000056188471    -0.000049813778     0.000000821386
       2       -0.000219912977     0.003302664529     0.018421229856
       3        0.000889097417    -0.007958191915    -0.013924960028
       4       -0.000106795906    -0.000418945621    -0.010205153211
       5       -0.000635026516     0.005088822981     0.005666463644
       6        0.000012789002     0.000010821435     0.000035048758
       7        0.000007210173    -0.000004881510     0.000020669416
       8       -0.000006598905     0.000031066241    -0.000025550017
       9       -0.000018885231    -0.000006418108     0.000009755548
      10        0.000014519576     0.000002921369     0.000003383440
      11        0.000007414895     0.000001954373    -0.000001708795

  **** Optimization is complete! (in 7 steps) ****
    Final optimized geometry and variables:
    Molecular point group: c1

    Geometry (in Angstrom), charge = 0, multiplicity = 1:

    H           -1.820091960461     1.267986875213    -0.432897788811
    C           -1.288584885179     0.329392190466    -0.303090363872
    O            0.017453808716     0.524473025447    -0.325011755042
    O           -1.826718564258    -0.715322485994    -0.252664268531
    C            0.831271370078    -0.294752900827     0.511684717108
    C            2.260498637127     0.169863801656     0.366727650298
    H            0.720000959033    -1.328838639851     0.220179567875
    H            0.485803547730    -0.190638475330     1.532381824272
    H            2.592985381813     0.066588693283    -0.658190818289
    H            2.905072932419    -0.428978992629     0.999151155227
    H            2.360357428057     1.207816700907     0.657253228945

  Mulliken Charges: (a.u.)
   Center  Symbol    Alpha    Beta     Spin     Total
       1     H     0.45443  0.45443  0.00000  0.09113
       2     C     2.84159  2.84159  0.00000  0.31682
       3     O     4.15172  4.15172  0.00000 -0.30343
       4     O     4.18448  4.18448  0.00000 -0.36897
       5     C     2.97160  2.97160  0.00000  0.05681
       6     C     3.13366  3.13366  0.00000 -0.26732
       7     H     0.44783  0.44783  0.00000  0.10433
       8     H     0.46048  0.46048  0.00000  0.07904
       9     H     0.44852  0.44852  0.00000  0.10297
      10     H     0.45487  0.45487  0.00000  0.09026
      11     H     0.45082  0.45082  0.00000  0.09837

   Total alpha = 20.00000, Total beta = 20.00000, Total charge = -0.00000

*** Psi4 exiting successfully. Buy a developer a beer!
