  ==> Input File <==

--------------------------------------------------------------------------
set {
	reference rhf
	basis 6-31G*
}

set_num_threads( 4 )
memory 2 gb

molecule MOL {
0 1

O	 -2.821601	 1.309235	 -0.001213
C	 -2.668563	 0.129746	 -0.000350
C	 -3.801572	 -0.864014	 -0.000442
O	 -1.481751	 -0.454642	 0.000584
H	 -4.417280	 -0.689587	 -0.874708
H	 -3.443784	 -1.883046	 -0.000565
H	 -4.417179	 -0.689832	 0.873954
C	 -0.334255	 0.388708	 0.000906
C	 0.891947	 -0.504646	 0.000751
H	 -0.365390	 1.025305	 -0.873475
H	 -0.365484	 1.024911	 0.875569
C	 2.191998	 0.301789	 0.000897
H	 0.855148	 -1.151283	 -0.871571
H	 0.855132	 -1.151660	 0.872805
C	 2.291675	 1.271386	 1.179995
H	 3.041859	 -0.378130	 0.023991
H	 2.273528	 0.860646	 -0.929755
C	 3.590783	 2.075863	 1.180835
H	 2.210745	 0.714534	 2.110824
H	 1.444400	 1.953055	 1.157147
H	 4.456745	 1.422458	 1.237277
H	 3.632172	 2.753426	 2.027848
H	 3.684484	 2.670531	 0.276622

	symmetry c1
}
set optking {
	frozen_dihedral = ("
		16 12 9 13
	")
}

ee = optimize('scf')
oeprop('DIPOLE', 'QUADRUPOLE', 'MULLIKEN_CHARGES')
f=open( 'psi4out.xyz', 'w' )
f.write( "23  " )
f.write( str(ee) + "\n" )
f.write( MOL.save_string_xyz() )
f.close()
--------------------------------------------------------------------------

    Molecular point group: c1
  Charge       = 0
  Multiplicity = 1
  Basis Set: 6-31G*
  Basis Set:
  @DF-RHF Final Energy:  -422.97633867546159
    Total Energy =                       -422.9763386754611929
    Molecular point group: c1
  Basis Set: 6-31G*
  Basis Set:
  Basis Set: 6-31G*
  Basis Set:
  @DF-RHF Final Energy:  -422.97703731026598
    Total Energy =                       -422.9770373102663825
  Basis Set: 6-31G*
  Basis Set:
  Basis Set: 6-31G*
  Basis Set:
  @DF-RHF Final Energy:  -422.97763874951318
    Total Energy =                       -422.9776387495129484
  Basis Set: 6-31G*
  Basis Set:
  Basis Set: 6-31G*
  Basis Set:
  @DF-RHF Final Energy:  -422.97762752118888
    Total Energy =                       -422.9776275211887651
  Basis Set: 6-31G*
  Basis Set:
  Basis Set: 6-31G*
  Basis Set:
  @DF-RHF Final Energy:  -422.97750720645706
    Total Energy =                       -422.9775072064572896
  Basis Set: 6-31G*
  Basis Set:
  Basis Set: 6-31G*
  Basis Set:
  @DF-RHF Final Energy:  -422.97769670065730
    Total Energy =                       -422.9776967006574750
  Basis Set: 6-31G*
  Basis Set:
  Basis Set: 6-31G*
  Basis Set:
  @DF-RHF Final Energy:  -422.97769814905052
    Total Energy =                       -422.9776981490504113
  Basis Set: 6-31G*
  Basis Set:
  Charge       = 0
  Multiplicity = 1
  Basis Set: 6-31G*
  Basis Set:

    Orbital Energies (a.u.)
    -----------------------

    Doubly Occupied:

       1A    -20.602824     2A    -20.540434     3A    -11.373975
       4A    -11.280856     5A    -11.232304     6A    -11.224554
       7A    -11.223882     8A    -11.221791     9A    -11.213075
      10A     -1.467767    11A     -1.360582    12A     -1.094040
      13A     -1.040301    14A     -1.002544    15A     -0.931447
      16A     -0.850437    17A     -0.790212    18A     -0.780008
      19A     -0.689575    20A     -0.684400    21A     -0.670139
      22A     -0.638151    23A     -0.611489    24A     -0.587408
      25A     -0.578165    26A     -0.572826    27A     -0.562876
      28A     -0.529057    29A     -0.527216    30A     -0.510425
      31A     -0.495194    32A     -0.475526    33A     -0.468606
      34A     -0.461304    35A     -0.449855    36A     -0.435650

  @DF-RHF Final Energy:  -422.97769910311774

   => Energetics <=

    Nuclear Repulsion Energy =            456.1487052677656493
    One-Electron Energy =               -1479.8950227688658288
    Two-Electron Energy =                 600.7686183979826637
    DFT Exchange-Correlation Energy =       0.0000000000000000
    Empirical Dispersion Energy =           0.0000000000000000
    PCM Polarization Energy =               0.0000000000000000
    EFP Energy =                            0.0000000000000000
    Total Energy =                       -422.9776991031175157
    Molecular point group: c1
  Basis Set: 6-31G*
  Basis Set:

  -Total Gradient:
     Atom            X                  Y                   Z
    ------   -----------------  -----------------  -----------------
       1       -0.000002780713    -0.000003133853    -0.000031709117
       2       -0.000002776980     0.000001868929     0.000050500112
       3        0.000002478182     0.000002244724    -0.000008830410
       4        0.000001918213     0.000000539218    -0.000047778499
       5       -0.000001039271    -0.000001354382    -0.000000468704
       6        0.000000606004     0.000000294356    -0.000000874412
       7        0.000001263090     0.000001828279    -0.000000129758
       8        0.000000060503    -0.000003169191     0.000116714222
       9        0.000911449074    -0.001362721073     0.001282482529
      10       -0.000009220231    -0.000002596775    -0.000018590728
      11        0.000013823519     0.000000782882    -0.000019828235
      12       -0.000214042294     0.000183678379    -0.002064836270
      13       -0.000726634694     0.001103918646    -0.000805780798
      14       -0.000008157876     0.000011815820    -0.000001925355
      15        0.000006941150    -0.000002157797     0.000011185136
      16        0.000035005799     0.000058880981     0.001537047326
      17       -0.000004431614    -0.000007500206    -0.000004098205
      18       -0.000008157886     0.000009041111     0.000002811699
      19       -0.000006554650     0.000003012822     0.000008960149
      20        0.000010928996     0.000003905118    -0.000002605977
      21       -0.000006184715    -0.000002741616    -0.000002876144
      22        0.000003331736    -0.000000691998     0.000001113275
      23        0.000002174670     0.000004255631    -0.000000481837

  **** Optimization is complete! (in 8 steps) ****
    Final optimized geometry and variables:
    Molecular point group: c1

    Geometry (in Angstrom), charge = 0, multiplicity = 1:

    O           -2.645942162437     0.843848255493    -0.224406260181
    C           -2.451236849347    -0.328263203830    -0.279554025325
    C           -3.548094727368    -1.358171247651    -0.366138538571
    O           -1.245248392329    -0.871659069711    -0.272298909102
    H           -4.143800749919    -1.158722127235    -1.248867439212
    H           -3.154801134614    -2.363174274764    -0.407796574455
    H           -4.194709483965    -1.251104847209     0.496598481386
    C           -0.128358821681     0.009208209197    -0.190311103360
    C            1.122892579599    -0.852348579393    -0.189048230162
    H           -0.147463995894     0.680985401060    -1.039169524448
    H           -0.222551732412     0.603872771133     0.706509079485
    C            2.425093855971    -0.045736598400    -0.249867268321
    H            1.070407665264    -1.508180841262    -1.052972610905
    H            1.115219952318    -1.485801368535     0.693529987160
    C            2.628039502411     0.944189716041     0.902359557613
    H            3.253984759393    -0.749303122545    -0.243406169396
    H            2.479748270633     0.487344839612    -1.197104953910
    C            4.004751362917     1.607050896673     0.866642905608
    H            2.501952288171     0.424062878087     1.849959409582
    H            1.864769119286     1.717055215769     0.873059031747
    H            4.797720332491     0.868596156318     0.943149492725
    H            4.124350099639     2.307903496949     1.686728510647
    H            4.151781092924     2.154450605628    -0.060110412427

  Mulliken Charges: (a.u.)
   Center  Symbol    Alpha    Beta     Spin     Total
       1     O     4.28408  4.28408  0.00000 -0.56817
       2     C     2.61535  2.61535  0.00000  0.76931
       3     C     3.28778  3.28778  0.00000 -0.57556
       4     O     4.31289  4.31289  0.00000 -0.62578
       5     H     0.39752  0.39752  0.00000  0.20495
       6     H     0.39988  0.39988  0.00000  0.20025
       7     H     0.39754  0.39754  0.00000  0.20491
       8     C     2.99823  2.99823  0.00000  0.00354
       9     C     3.16526  3.16526  0.00000 -0.33052
      10     H     0.41156  0.41156  0.00000  0.17687
      11     H     0.40834  0.40834  0.00000  0.18332
      12     C     3.16004  3.16004  0.00000 -0.32008
      13     H     0.41196  0.41196  0.00000  0.17609
      14     H     0.41486  0.41486  0.00000  0.17027
      15     C     3.15725  3.15725  0.00000 -0.31450
      16     H     0.41763  0.41763  0.00000  0.16473
      17     H     0.42050  0.42050  0.00000  0.15900
      18     C     3.23936  3.23936  0.00000 -0.47873
      19     H     0.42151  0.42151  0.00000  0.15698
      20     H     0.41924  0.41924  0.00000  0.16153
      21     H     0.42115  0.42115  0.00000  0.15771
      22     H     0.41746  0.41746  0.00000  0.16508
      23     H     0.42061  0.42061  0.00000  0.15878

   Total alpha = 36.00000, Total beta = 36.00000, Total charge =  0.00000
