                              Psi4 1.0.54 Driver

  ==> Input File <==

--------------------------------------------------------------------------
set {
	reference rhf
	basis cc-pvtz
}

set_num_threads( 4 )
memory 2 gb

molecule MOL {
0 1

H	 -2.816458	 -0.841657	 -0.064679
N	 -1.878861	 -0.711874	 0.250184
C	 -1.341419	 0.551458	 -0.220231
H	 -1.333674	 -1.468530	 -0.105118
C	 0.082190	 0.731516	 0.254705
H	 -1.357065	 0.652078	 -1.304747
H	 -1.939897	 1.357530	 0.189797
O	 0.881195	 -0.248324	 -0.336237
H	 0.440901	 1.722476	 -0.020063
H	 0.119896	 0.643586	 1.338114
C	 1.519765	 -1.091264	 0.564263
H	 2.106415	 -1.799918	 -0.002339
H	 2.183622	 -0.537759	 1.225035
H	 0.804064	 -1.637139	 1.174472

	symmetry c1
}
set optking {
	frozen_dihedral = ("
		11 8 5 3
	")
}

ee,wfn = optimize('scf', return_wfn=True)
oeprop( wfn, 'DIPOLE', 'QUADRUPOLE', 'MULLIKEN_CHARGES')
f=open( 'psi4out.xyz', 'w' )
f.write( "14  " )
f.write( str(ee) + "\n" )
f.write( MOL.save_string_xyz() )
f.close()
--------------------------------------------------------------------------

    Molecular point group: c1
  Charge       = 0
  Multiplicity = 1
  Basis Set: CC-PVTZ
  Basis Set:
  @DF-RHF Final Energy:  -248.22160230853754
    Total Energy =                       -248.2216023085377401
    Molecular point group: c1
  Basis Set: CC-PVTZ
  Basis Set:
  Basis Set: CC-PVTZ
  Basis Set:
  @DF-RHF Final Energy:  -248.22193681672459
    Total Energy =                       -248.2219368167245079
  Basis Set: CC-PVTZ
  Basis Set:
  Basis Set: CC-PVTZ
  Basis Set:
  @DF-RHF Final Energy:  -248.22241513960145
    Total Energy =                       -248.2224151396015372
  Basis Set: CC-PVTZ
  Basis Set:
  Basis Set: CC-PVTZ
  Basis Set:
  @DF-RHF Final Energy:  -248.22243498146594
    Total Energy =                       -248.2224349814659945
  Basis Set: CC-PVTZ
  Basis Set:
  Basis Set: CC-PVTZ
  Basis Set:
  @DF-RHF Final Energy:  -248.22243677660634
    Total Energy =                       -248.2224367766065143
  Basis Set: CC-PVTZ
  Basis Set:
  Charge       = 0
  Multiplicity = 1
  Basis Set: CC-PVTZ
  Basis Set:

    Orbital Energies (a.u.)
    -----------------------

    Doubly Occupied:

       1A    -20.545493     2A    -15.528366     3A    -11.262473
       4A    -11.260574     5A    -11.240247     6A     -1.377035
       7A     -1.178810     8A     -1.000140     9A     -0.907635
      10A     -0.813994    11A     -0.687451    12A     -0.669762
      13A     -0.643753    14A     -0.617739    15A     -0.601691
      16A     -0.539943    17A     -0.531852    18A     -0.505571
      19A     -0.470342    20A     -0.416182    21A     -0.384430

  @DF-RHF Final Energy:  -248.22243688258493

   => Energetics <=

    Nuclear Repulsion Energy =            196.3651874428732071
    One-Electron Energy =                -726.8082786046185220
    Two-Electron Energy =                 282.2206542791603852
    DFT Exchange-Correlation Energy =       0.0000000000000000
    Empirical Dispersion Energy =           0.0000000000000000
    PCM Polarization Energy =               0.0000000000000000
    EFP Energy =                            0.0000000000000000
    Total Energy =                       -248.2224368825849297
    Molecular point group: c1
  Basis Set: CC-PVTZ
  Basis Set:

  -Total Gradient:
     Atom            X                  Y                   Z
    ------   -----------------  -----------------  -----------------
       1        0.000016140957     0.000003492188     0.000001994451
       2       -0.000015219009     0.000004135621    -0.000010860639
       3       -0.000209101598    -0.000756261757     0.000815534550
       4        0.000000350560     0.000004053609     0.000002960331
       5       -0.000123717779     0.000657694002    -0.001169060558
       6        0.000000738036    -0.000005509057     0.000004155621
       7       -0.000001060300     0.000006293560     0.000005743613
       8        0.001326305452     0.000866138405     0.000460326586
       9        0.000001884718     0.000005980882    -0.000006550818
      10       -0.000015221660     0.000000225377     0.000005972113
      11       -0.000981761152    -0.000790389982    -0.000111960490
      12        0.000004154867    -0.000005838298    -0.000000121048
      13        0.000002273880     0.000004661978     0.000004324988
      14       -0.000005766968     0.000005323473    -0.000002458702

  **** Optimization is complete! (in 6 steps) ****
    Final optimized geometry and variables:
    Molecular point group: c1

    Geometry (in Angstrom), charge = 0, multiplicity = 1:

    H           -2.717378560786    -0.596713431513    -0.161944972809
    N           -1.745944947620    -0.544304302345     0.058647280135
    C           -1.212159951970     0.769586895149    -0.255076471648
    H           -1.282019647293    -1.240139418861    -0.486199365205
    C            0.218931898771     0.895474284585     0.225101540721
    H           -1.245487096921     1.001522448881    -1.318814565413
    H           -1.807652605437     1.517940340416     0.257125282661
    O            1.040292856962    -0.038653510853    -0.420572776763
    H            0.591215985765     1.892276415300     0.010004872376
    H            0.248215953350     0.748896789347     1.299701610732
    C            1.692920620663    -0.953812995326     0.401777541978
    H            2.255257354786    -1.621281536736    -0.235954766724
    H            2.385046666782    -0.459157027126     1.079011092422
    H            0.990250507266    -1.535840966317     0.990010134919

  Mulliken Charges: (a.u.)
   Center  Symbol    Alpha    Beta     Spin     Total
       1     H     0.42954  0.42954  0.00000  0.14092
       2     N     3.69599  3.69599  0.00000 -0.39198
       3     C     3.02483  3.02483  0.00000 -0.04965
       4     H     0.42238  0.42238  0.00000  0.15523
       5     C     2.97132  2.97132  0.00000  0.05736
       6     H     0.46512  0.46512  0.00000  0.06977
       7     H     0.45828  0.45828  0.00000  0.08344
       8     O     4.18987  4.18987  0.00000 -0.37974
       9     H     0.45595  0.45595  0.00000  0.08810
      10     H     0.46828  0.46828  0.00000  0.06345
      11     C     3.03695  3.03695  0.00000 -0.07390
      12     H     0.45011  0.45011  0.00000  0.09978
      13     H     0.46600  0.46600  0.00000  0.06800
      14     H     0.46539  0.46539  0.00000  0.06922

   Total alpha = 21.00000, Total beta = 21.00000, Total charge =  0.00000

*** Psi4 exiting successfully. Buy a developer a beer!
