                              Psi4 1.0.54 Driver

  ==> Input File <==

--------------------------------------------------------------------------
set {
	reference rhf
	basis cc-pvtz
}

set_num_threads( 4 )
memory 2 gb

molecule MOL {
0 1

O	 -2.071633	 -1.227563	 -0.223463
C	 -1.652164	 -0.152425	 0.058082
C	 -0.327811	 0.006324	 0.778296
C	 -2.402515	 1.108629	 -0.298924
C	 0.843231	 -0.001575	 -0.211665
H	 -0.319484	 0.928173	 1.350354
H	 -0.227804	 -0.823091	 1.466705
C	 2.197693	 0.138030	 0.476937
H	 0.722944	 0.805202	 -0.930230
H	 0.813976	 -0.926978	 -0.776588
C	 3.368287	 0.075120	 -0.498212
H	 2.230439	 1.078170	 1.020617
H	 2.302864	 -0.648110	 1.218868
H	 3.309919	 0.871482	 -1.232674
H	 3.380176	 -0.867732	 -1.034176
H	 4.314712	 0.172912	 0.020552
H	 -3.240910	 0.874416	 -0.936711
H	 -1.747554	 1.818823	 -0.790984
H	 -2.760419	 1.579708	 0.610998

	symmetry c1
}
set optking {
	frozen_dihedral = ("
		11 8 5 9
	")
}

ee,wfn = optimize('scf', return_wfn=True)
oeprop( wfn, 'DIPOLE', 'QUADRUPOLE', 'MULLIKEN_CHARGES')
f=open( 'psi4out.xyz', 'w' )
f.write( "19  " )
f.write( str(ee) + "\n" )
f.write( MOL.save_string_xyz() )
f.close()
--------------------------------------------------------------------------

    Molecular point group: c1
  Charge       = 0
  Multiplicity = 1
  Basis Set: CC-PVTZ
  Basis Set:
  @DF-RHF Final Energy:  -309.17735069095420
    Total Energy =                       -309.1773506909541425
    Molecular point group: c1
  Basis Set: CC-PVTZ
  Basis Set:
  Basis Set: CC-PVTZ
  Basis Set:
  @DF-RHF Final Energy:  -309.17734551951622
    Total Energy =                       -309.1773455195165070
  Basis Set: CC-PVTZ
  Basis Set:
  Basis Set: CC-PVTZ
  Basis Set:
  @DF-RHF Final Energy:  -309.17735154238409
    Total Energy =                       -309.1773515423840308
  Basis Set: CC-PVTZ
  Basis Set:
  Basis Set: CC-PVTZ
  Basis Set:
  @DF-RHF Final Energy:  -309.17735257285659
    Total Energy =                       -309.1773525728565346
  Basis Set: CC-PVTZ
  Basis Set:
  Basis Set: CC-PVTZ
  Basis Set:
  @DF-RHF Final Energy:  -309.17734370795625
    Total Energy =                       -309.1773437079561972
  Basis Set: CC-PVTZ
  Basis Set:
  Charge       = 0
  Multiplicity = 1
  Basis Set: CC-PVTZ
  Basis Set:

    Orbital Energies (a.u.)
    -----------------------

    Doubly Occupied:

       1A    -20.536943     2A    -11.319486     3A    -11.228836
       4A    -11.227871     5A    -11.227042     6A    -11.223077
       7A    -11.213171     8A     -1.397076     9A     -1.092979
      10A     -1.030533    11A     -0.984717    12A     -0.890967
      13A     -0.807368    14A     -0.734600    15A     -0.665090
      16A     -0.648237    17A     -0.625045    18A     -0.615134
      19A     -0.583002    20A     -0.575051    21A     -0.553556
      22A     -0.538096    23A     -0.514484    24A     -0.501077
      25A     -0.482981    26A     -0.476948    27A     -0.470275
      28A     -0.399245

  @DF-RHF Final Energy:  -309.17735273848052

   => Energetics <=

    Nuclear Repulsion Energy =            301.8613539004045379
    One-Electron Energy =               -1016.9516424214104973
    Two-Electron Energy =                 405.9129357825253805
    DFT Exchange-Correlation Energy =       0.0000000000000000
    Empirical Dispersion Energy =           0.0000000000000000
    PCM Polarization Energy =               0.0000000000000000
    EFP Energy =                            0.0000000000000000
    Total Energy =                       -309.1773527384805789
    Molecular point group: c1
  Basis Set: CC-PVTZ
  Basis Set:

  -Total Gradient:
     Atom            X                  Y                   Z
    ------   -----------------  -----------------  -----------------
       1        0.000001804877     0.000004320513    -0.000003613500
       2        0.000000885861     0.000002176740    -0.000005763747
       3        0.000006901431     0.000001900720    -0.000001037545
       4       -0.000016663684    -0.000007492942     0.000012258784
       5        0.000195290903    -0.000368297532    -0.000311360988
       6        0.000001550239    -0.000002114265    -0.000000256596
       7       -0.000001671286     0.000000109036     0.000003263978
       8       -0.000051469346     0.000422670750     0.000014995169
       9       -0.000157662778     0.000212312130     0.000262686100
      10       -0.000000072541     0.000003120726     0.000002493361
      11        0.000014487003    -0.000269721203     0.000031267255
      12       -0.000000082944    -0.000001650616    -0.000001805686
      13        0.000000714418     0.000000288686     0.000001703237
      14       -0.000000178032    -0.000000385784     0.000001251640
      15       -0.000002002500     0.000002329801     0.000002510161
      16       -0.000001780332    -0.000000562059    -0.000000686764
      17        0.000001442656     0.000001418259    -0.000001250444
      18        0.000005134889    -0.000002851780    -0.000003588174
      19        0.000003371150     0.000002428818    -0.000003066241

  **** Optimization is complete! (in 6 steps) ****
    Final optimized geometry and variables:
    Molecular point group: c1

    Geometry (in Angstrom), charge = 0, multiplicity = 1:

    O           -2.075589565967    -1.219626225760    -0.222552971451
    C           -1.652628607885    -0.145486060915     0.057638348347
    C           -0.327855250024     0.009901662701     0.777679747932
    C           -2.399168828270     1.117414866730    -0.300868313871
    C            0.843070632694     0.000590061047    -0.212677330340
    H           -0.317612843502     0.931339386083     1.350446575268
    H           -0.229390957369    -0.820230397319     1.465374649574
    C            2.197128751917     0.144155959555     0.475994879576
    H            0.720907811979     0.806947392702    -0.931377101503
    H            0.814454297198    -0.925986075126    -0.775554447433
    C            3.367995754431     0.084239213116    -0.499019875523
    H            2.226635698843     1.083581516904     1.020964380684
    H            2.305084520810    -0.642700643439     1.216834930087
    H            3.305399814680     0.877305841611    -1.236751961345
    H            3.384781021603    -0.860671095603    -1.031101164630
    H            4.313891789334     0.189284873998     0.019287652006
    H           -3.237078765385     0.885149964223    -0.940000771235
    H           -1.741834996576     1.826222271818    -0.791698757355
    H           -2.757632225321     1.589135093883     0.608518395794

  Mulliken Charges: (a.u.)
   Center  Symbol    Alpha    Beta     Spin     Total
       1     O     4.17774  4.17774  0.00000 -0.35547
       2     C     2.85809  2.85809  0.00000  0.28382
       3     C     3.09811  3.09811  0.00000 -0.19621
       4     C     3.15512  3.15512  0.00000 -0.31024
       5     C     3.09729  3.09729  0.00000 -0.19458
       6     H     0.44951  0.44951  0.00000  0.10097
       7     H     0.43906  0.43906  0.00000  0.12188
       8     C     3.08581  3.08581  0.00000 -0.17161
       9     H     0.45280  0.45280  0.00000  0.09440
      10     H     0.44124  0.44124  0.00000  0.11751
      11     C     3.14929  3.14929  0.00000 -0.29857
      12     H     0.45387  0.45387  0.00000  0.09226
      13     H     0.45161  0.45161  0.00000  0.09679
      14     H     0.45515  0.45515  0.00000  0.08969
      15     H     0.45271  0.45271  0.00000  0.09458
      16     H     0.44736  0.44736  0.00000  0.10528
      17     H     0.43602  0.43602  0.00000  0.12797
      18     H     0.45090  0.45090  0.00000  0.09821
      19     H     0.44833  0.44833  0.00000  0.10334

   Total alpha = 28.00000, Total beta = 28.00000, Total charge =  0.00000

*** Psi4 exiting successfully. Buy a developer a beer!
