  ==> Input File <==

--------------------------------------------------------------------------
set {
	reference rhf
	basis 6-31G*
}

set_num_threads( 4 )
memory 2 gb

molecule MOL {
0 1

H	 3.059819	 -0.034728	 -0.789111
N	 2.434251	 -0.367735	 -0.081097
C	 1.267428	 0.496480	 0.024474
H	 2.947433	 -0.371570	 0.780032
C	 -0.016086	 -0.325158	 -0.029487
H	 1.288818	 1.183521	 -0.816092
H	 1.267576	 1.109062	 0.929528
C	 -1.282277	 0.529072	 0.046735
H	 -0.012495	 -0.908639	 -0.945788
H	 -0.015903	 -1.041248	 0.791956
C	 -2.563920	 -0.301775	 -0.006060
H	 -1.284084	 1.244622	 -0.773004
H	 -1.271387	 1.115393	 0.963286
H	 -2.621848	 -0.873522	 -0.927727
H	 -3.445135	 0.329952	 0.047812
H	 -2.609542	 -1.004582	 0.821105

	symmetry c1
}
set optking {
	frozen_dihedral = ("
		1 2 3 6
	")
}

ee = optimize('scf')
oeprop('DIPOLE', 'QUADRUPOLE', 'MULLIKEN_CHARGES')
f=open( 'psi4out.xyz', 'w' )
f.write( "16  " )
f.write( str(ee) + "\n" )
f.write( MOL.save_string_xyz() )
f.close()
--------------------------------------------------------------------------

    Molecular point group: c1
  Charge       = 0
  Multiplicity = 1
  Basis Set: 6-31G*
  Basis Set:
  @DF-RHF Final Energy:  -212.31345014224482
    Total Energy =                       -212.3134501422449034
    Molecular point group: c1
  Basis Set: 6-31G*
  Basis Set:
  Basis Set: 6-31G*
  Basis Set:
  @DF-RHF Final Energy:  -212.31390507555395
    Total Energy =                       -212.3139050755540325
  Basis Set: 6-31G*
  Basis Set:
  Basis Set: 6-31G*
  Basis Set:
  @DF-RHF Final Energy:  -212.31406336447719
    Total Energy =                       -212.3140633644771356
  Basis Set: 6-31G*
  Basis Set:
  Basis Set: 6-31G*
  Basis Set:
  @DF-RHF Final Energy:  -212.31406629421784
    Total Energy =                       -212.3140662942177528
  Basis Set: 6-31G*
  Basis Set:
  Basis Set: 6-31G*
  Basis Set:
  @DF-RHF Final Energy:  -212.31406789327801
    Total Energy =                       -212.3140678932781498
  Basis Set: 6-31G*
  Basis Set:
  Charge       = 0
  Multiplicity = 1
  Basis Set: 6-31G*
  Basis Set:

    Orbital Energies (a.u.)
    -----------------------

    Doubly Occupied:

       1A    -15.530221     2A    -11.240494     3A    -11.211835
       4A    -11.205579     5A    -11.202919     6A     -1.172519
       7A     -1.056517     8A     -0.957202     9A     -0.842255
      10A     -0.786727    11A     -0.675063    12A     -0.622735
      13A     -0.609558    14A     -0.576547    15A     -0.551571
      16A     -0.532109    17A     -0.488228    18A     -0.474617
      19A     -0.464624    20A     -0.458022    21A     -0.375183

  @DF-RHF Final Energy:  -212.31406821100722

   => Energetics <=

    Nuclear Repulsion Energy =            185.8206517184559061
    One-Electron Energy =                -654.2003882902200758
    Two-Electron Energy =                 256.0656683607570017
    DFT Exchange-Correlation Energy =       0.0000000000000000
    Empirical Dispersion Energy =           0.0000000000000000
    PCM Polarization Energy =               0.0000000000000000
    EFP Energy =                            0.0000000000000000
    Total Energy =                       -212.3140682110071680
    Molecular point group: c1
  Basis Set: 6-31G*
  Basis Set:

  -Total Gradient:
     Atom            X                  Y                   Z
    ------   -----------------  -----------------  -----------------
       1       -0.000833990379    -0.001011478717    -0.001260184382
       2        0.001238097310     0.001546338096     0.001791132389
       3       -0.001238575270    -0.001613163891    -0.001446594364
       4       -0.000005807647    -0.000009016146     0.000000454778
       5        0.000025854366     0.000024296173     0.000004500002
       6        0.000835855591     0.001058544166     0.000916365591
       7       -0.000003391106     0.000020207064     0.000018421402
       8       -0.000008246240    -0.000011852721    -0.000030059045
       9       -0.000007809657    -0.000001583748     0.000003077369
      10        0.000002986346    -0.000001742851     0.000001538947
      11       -0.000009929717     0.000006764152     0.000012202461
      12       -0.000000454063     0.000001021156    -0.000005613570
      13        0.000003586303    -0.000006823981    -0.000008480250
      14        0.000000057959     0.000006317496    -0.000002595304
      15        0.000000311846    -0.000002648256     0.000006559148
      16        0.000001454359    -0.000005177991    -0.000000725174

  **** Optimization is complete! (in 6 steps) ****
    Final optimized geometry and variables:
    Molecular point group: c1

    Geometry (in Angstrom), charge = 0, multiplicity = 1:

    H            3.098914119253    -0.031356075407    -0.744593174910
    N            2.446097664326    -0.360298727929    -0.063997194715
    C            1.261007294877     0.490333824607     0.013788848828
    H            2.920886026880    -0.425342770143     0.812646571092
    C           -0.023201210329    -0.332740811758    -0.027608956823
    H            1.269969568081     1.196897858239    -0.811768372438
    H            1.270121840153     1.096571228276     0.919086104494
    C           -1.289734801635     0.520151386885     0.054920676201
    H           -0.026960868026    -0.920248990996    -0.941975267011
    H           -0.005666475994    -1.047107268569     0.792814416137
    C           -2.571888365404    -0.310813702064     0.013463675595
    H           -1.299462625362     1.235666480492    -0.765419351472
    H           -1.273266734390     1.108646640639     0.970495224468
    H           -2.637131679132    -0.883493903147    -0.907236821994
    H           -3.453359216075     0.320196287441     0.074257422077
    H           -2.609641195524    -1.013293715683     0.841205585927

  Mulliken Charges: (a.u.)
   Center  Symbol    Alpha    Beta     Spin     Total
       1     H     0.33042  0.33042  0.00000  0.33915
       2     N     3.92879  3.92879  0.00000 -0.85758
       3     C     3.06639  3.06639  0.00000 -0.13278
       4     H     0.33123  0.33123  0.00000  0.33754
       5     C     3.13846  3.13846  0.00000 -0.27693
       6     H     0.42457  0.42457  0.00000  0.15086
       7     H     0.42856  0.42856  0.00000  0.14289
       8     C     3.15769  3.15769  0.00000 -0.31538
       9     H     0.41939  0.41939  0.00000  0.16122
      10     H     0.42356  0.42356  0.00000  0.15288
      11     C     3.23794  3.23794  0.00000 -0.47588
      12     H     0.42470  0.42470  0.00000  0.15059
      13     H     0.42492  0.42492  0.00000  0.15015
      14     H     0.42121  0.42121  0.00000  0.15758
      15     H     0.42054  0.42054  0.00000  0.15892
      16     H     0.42162  0.42162  0.00000  0.15677

   Total alpha = 21.00000, Total beta = 21.00000, Total charge =  0.00000
