  ==> Input File <==

--------------------------------------------------------------------------
set {
	reference rhf
	basis cc-pvtz
}

set_num_threads( 4 )
memory 2 gb

molecule MOL {
0 1

H	 -2.266619	 1.169943	 0.000098
O	 -1.438073	 1.611259	 0.000041
C	 -0.408657	 0.734701	 0.000005
C	 -0.684558	 -0.552654	 0.421911
C	 0.871837	 1.095979	 -0.402394
H	 -1.685110	 -0.792043	 0.724431
C	 0.318027	 -1.498772	 0.447467
C	 1.859555	 0.125078	 -0.366461
C	 1.171295	 2.501247	 -0.862556
H	 0.096429	 -2.496172	 0.776203
C	 1.598860	 -1.164330	 0.052444
H	 2.854456	 0.388466	 -0.674304
H	 0.971165	 3.231716	 -0.083658
H	 2.212065	 2.599792	 -1.135556
H	 0.581757	 2.774531	 -1.733237
H	 2.383778	 -1.895066	 0.069693

	symmetry c1
}
set optking {
	frozen_dihedral = ("
		4 3 2 1
	")
}

ee = optimize('scf')
oeprop('DIPOLE', 'QUADRUPOLE', 'MULLIKEN_CHARGES')
f=open( 'psi4out.xyz', 'w' )
f.write( "16  " )
f.write( str(ee) + "\n" )
f.write( MOL.save_string_xyz() )
f.close()
--------------------------------------------------------------------------

    Molecular point group: c1
  Charge       = 0
  Multiplicity = 1
  Basis Set: CC-PVTZ
  Basis Set:
  @DF-RHF Final Energy:  -344.71754287485317
    Total Energy =                       -344.7175428748532795
    Molecular point group: c1
  Basis Set: CC-PVTZ
  Basis Set:
  Basis Set: CC-PVTZ
  Basis Set:
  @DF-RHF Final Energy:  -344.71965938330027
    Total Energy =                       -344.7196593833004954
  Basis Set: CC-PVTZ
  Basis Set:
  Basis Set: CC-PVTZ
  Basis Set:
  @DF-RHF Final Energy:  -344.71985135231262
    Total Energy =                       -344.7198513523130714
  Basis Set: CC-PVTZ
  Basis Set:
  Basis Set: CC-PVTZ
  Basis Set:
  @DF-RHF Final Energy:  -344.71986848954270
    Total Energy =                       -344.7198684895427618
  Basis Set: CC-PVTZ
  Basis Set:
  Basis Set: CC-PVTZ
  Basis Set:
  @DF-RHF Final Energy:  -344.71987290142954
    Total Energy =                       -344.7198729014294258
  Basis Set: CC-PVTZ
  Basis Set:
  Charge       = 0
  Multiplicity = 1
  Basis Set: CC-PVTZ
  Basis Set:

    Orbital Energies (a.u.)
    -----------------------

    Doubly Occupied:

       1A    -20.581872     2A    -11.290698     3A    -11.229024
       4A    -11.228814     5A    -11.225911     6A    -11.223638
       7A    -11.217291     8A    -11.212975     9A     -1.411629
      10A     -1.152907    11A     -1.047467    12A     -1.006286
      13A     -0.932072    14A     -0.847647    15A     -0.802633
      16A     -0.735471    17A     -0.675302    18A     -0.654020
      19A     -0.611425    20A     -0.599423    21A     -0.579019
      22A     -0.561620    23A     -0.549065    24A     -0.541597
      25A     -0.502327    26A     -0.484263    27A     -0.477095
      28A     -0.333721    29A     -0.309644

  @DF-RHF Final Energy:  -344.71987299186168

   => Energetics <=

    Nuclear Repulsion Energy =            350.9635008909621661
    One-Electron Energy =               -1163.3170381073134649
    Two-Electron Energy =                 467.6336642244893369
    DFT Exchange-Correlation Energy =       0.0000000000000000
    Empirical Dispersion Energy =           0.0000000000000000
    PCM Polarization Energy =               0.0000000000000000
    EFP Energy =                            0.0000000000000000
    Total Energy =                       -344.7198729918619051
    Molecular point group: c1
  Basis Set: CC-PVTZ
  Basis Set:

  -Total Gradient:
     Atom            X                  Y                   Z
    ------   -----------------  -----------------  -----------------
       1        0.000008371111    -0.000040713043    -0.001775405140
       2        0.000143230725     0.000253402210     0.002841336104
       3       -0.000446062044    -0.000560130961    -0.002251230086
       4        0.000298767952     0.000355728387     0.001228364266
       5       -0.000016534951    -0.000006313507    -0.000036450468
       6        0.000001175131    -0.000003211984    -0.000002345380
       7       -0.000009449646    -0.000014354257    -0.000004715849
       8       -0.000000391580    -0.000004687727    -0.000003086599
       9        0.000013507140     0.000005068614     0.000005189988
      10        0.000005735548     0.000000712496    -0.000000727119
      11        0.000010516658     0.000019292044    -0.000003680803
      12        0.000000519562     0.000005130455     0.000001601827
      13       -0.000002053840    -0.000002498353    -0.000001216537
      14       -0.000001890828     0.000000347501     0.000000219033
      15       -0.000001940304    -0.000002132186    -0.000000077629
      16       -0.000003500634    -0.000005639688     0.000002224392

  **** Optimization is complete! (in 6 steps) ****
    Final optimized geometry and variables:
    Molecular point group: c1

    Geometry (in Angstrom), charge = 0, multiplicity = 1:

    H           -2.595525119323     0.863745622005     0.077557027140
    O           -1.738318173149     1.248992314130     0.070307307307
    C           -0.780171745319     0.291397580330     0.092698354966
    C           -1.048841894105    -0.991976548232     0.522292310615
    C            0.501816780138     0.662958477229    -0.302140693140
    H           -2.043642773801    -1.250500016086     0.837537860113
    C           -0.040616508755    -1.939193319770     0.549187464540
    C            1.490859517442    -0.300389605952    -0.258069344394
    C            0.778771737296     2.071988892737    -0.756227447707
    H           -0.258870915886    -2.936513238115     0.880113944237
    C            1.234502060628    -1.596310043856     0.159577623494
    H            2.486215481173    -0.032945006145    -0.560575220739
    H            0.560370210822     2.786219238581     0.028630104251
    H            1.816817829600     2.183590933488    -1.039006880030
    H            0.161947136913     2.336310897345    -1.606623815216
    H            2.024263398427    -2.321878432843     0.179401624743

  Mulliken Charges: (a.u.)
   Center  Symbol    Alpha    Beta     Spin     Total
       1     H     0.38823  0.38823  0.00000  0.22353
       2     O     4.17483  4.17483  0.00000 -0.34967
       3     C     2.86602  2.86602  0.00000  0.26796
       4     C     3.13121  3.13121  0.00000 -0.26242
       5     C     2.99606  2.99606  0.00000  0.00787
       6     H     0.43513  0.43513  0.00000  0.12975
       7     C     3.07239  3.07239  0.00000 -0.14478
       8     C     3.08302  3.08302  0.00000 -0.16604
       9     C     3.14276  3.14276  0.00000 -0.28552
      10     H     0.42262  0.42262  0.00000  0.15476
      11     C     3.08989  3.08989  0.00000 -0.17979
      12     H     0.42513  0.42513  0.00000  0.14974
      13     H     0.44617  0.44617  0.00000  0.10765
      14     H     0.45416  0.45416  0.00000  0.09168
      15     H     0.44751  0.44751  0.00000  0.10498
      16     H     0.42486  0.42486  0.00000  0.15028

   Total alpha = 29.00000, Total beta = 29.00000, Total charge =  0.00000
