  ==> Input File <==

--------------------------------------------------------------------------
set {
	reference rhf
	basis 6-31G*
}

set_num_threads( 4 )
memory 2 gb

molecule MOL {
0 1

O	 -2.821601	 1.309235	 -0.001213
C	 -2.668563	 0.129746	 -0.000350
C	 -3.801572	 -0.864014	 -0.000442
O	 -1.481751	 -0.454642	 0.000584
H	 -4.417280	 -0.689587	 -0.874708
H	 -3.443784	 -1.883046	 -0.000565
H	 -4.417179	 -0.689832	 0.873954
C	 -0.334255	 0.388708	 0.000906
C	 0.891947	 -0.504646	 0.000751
H	 -0.365390	 1.025305	 -0.873475
H	 -0.365484	 1.024911	 0.875569
C	 2.191998	 0.301789	 0.000897
H	 0.855148	 -1.151283	 -0.871571
H	 0.855132	 -1.151660	 0.872805
C	 3.421479	 -0.549812	 0.322583
H	 2.327712	 0.773325	 -0.970865
H	 2.117944	 1.111163	 0.725129
C	 4.720105	 0.255442	 0.321395
H	 3.497202	 -1.358904	 -0.400404
H	 3.288561	 -1.019936	 1.294378
H	 4.898374	 0.710851	 -0.648573
H	 5.572971	 -0.375062	 0.552307
H	 4.688307	 1.052129	 1.059155

	symmetry c1
}
set optking {
	frozen_dihedral = ("
		16 12 9 13
	")
}

ee = optimize('scf')
oeprop('DIPOLE', 'QUADRUPOLE', 'MULLIKEN_CHARGES')
f=open( 'psi4out.xyz', 'w' )
f.write( "23  " )
f.write( str(ee) + "\n" )
f.write( MOL.save_string_xyz() )
f.close()
--------------------------------------------------------------------------

    Molecular point group: c1
  Charge       = 0
  Multiplicity = 1
  Basis Set: 6-31G*
  Basis Set:
  @DF-RHF Final Energy:  -422.97894756007287
    Total Energy =                       -422.9789475600730384
    Molecular point group: c1
  Basis Set: 6-31G*
  Basis Set:
  Basis Set: 6-31G*
  Basis Set:
  @DF-RHF Final Energy:  -422.97899707417082
    Total Energy =                       -422.9789970741703655
  Basis Set: 6-31G*
  Basis Set:
  Basis Set: 6-31G*
  Basis Set:
  @DF-RHF Final Energy:  -422.97901414870063
    Total Energy =                       -422.9790141487010260
  Basis Set: 6-31G*
  Basis Set:
  Basis Set: 6-31G*
  Basis Set:
  @DF-RHF Final Energy:  -422.97898717141487
    Total Energy =                       -422.9789871714151559
  Basis Set: 6-31G*
  Basis Set:
  Basis Set: 6-31G*
  Basis Set:
  @DF-RHF Final Energy:  -422.97903756740175
    Total Energy =                       -422.9790375674016332
  Basis Set: 6-31G*
  Basis Set:
  Charge       = 0
  Multiplicity = 1
  Basis Set: 6-31G*
  Basis Set:

    Orbital Energies (a.u.)
    -----------------------

    Doubly Occupied:

       1A    -20.602940     2A    -20.540503     3A    -11.374057
       4A    -11.281387     5A    -11.232366     6A    -11.224492
       7A    -11.223880     8A    -11.221605     9A    -11.212912
      10A     -1.467910    11A     -1.360700    12A     -1.094116
      13A     -1.042194    14A     -1.003375    15A     -0.930750
      16A     -0.841637    17A     -0.802474    18A     -0.774467
      19A     -0.692136    20A     -0.684985    21A     -0.668029
      22A     -0.646470    23A     -0.606601    24A     -0.588013
      25A     -0.581916    26A     -0.567329    27A     -0.558432
      28A     -0.536976    29A     -0.523796    30A     -0.504375
      31A     -0.491625    32A     -0.477932    33A     -0.471239
      34A     -0.464979    35A     -0.451194    36A     -0.435237

  @DF-RHF Final Energy:  -422.97903765535551

   => Energetics <=

    Nuclear Repulsion Energy =            449.6607268189885076
    One-Electron Energy =               -1466.9134757017907305
    Two-Electron Energy =                 594.2737112274465971
    DFT Exchange-Correlation Energy =       0.0000000000000000
    Empirical Dispersion Energy =           0.0000000000000000
    PCM Polarization Energy =               0.0000000000000000
    EFP Energy =                            0.0000000000000000
    Total Energy =                       -422.9790376553556825
    Molecular point group: c1
  Basis Set: 6-31G*
  Basis Set:

  -Total Gradient:
     Atom            X                  Y                   Z
    ------   -----------------  -----------------  -----------------
       1        0.000003246222    -0.000001104186     0.000014659486
       2       -0.000000311436    -0.000000419056    -0.000041519205
       3        0.000000646560    -0.000000876203     0.000019664040
       4       -0.000012090228    -0.000008564009     0.000004534272
       5        0.000003584467     0.000001138137    -0.000001744171
       6        0.000000196013     0.000000105788     0.000000198410
       7       -0.000002975568    -0.000000596438    -0.000001529345
       8       -0.000002445621    -0.000008242949     0.000016195638
       9        0.001469183861    -0.002321712548     0.001224406701
      10       -0.000001122838     0.000003645966    -0.000006750498
      11        0.000016757556    -0.000001202092    -0.000006346780
      12       -0.001547366092     0.002488766183     0.000634720979
      13       -0.001002736186     0.001557544628    -0.001114359967
      14        0.000000648014    -0.000008467574    -0.000008501748
      15       -0.000001530114    -0.000001170801    -0.000054810561
      16        0.001096023171    -0.001734472791    -0.000676186928
      17       -0.000010692352     0.000018739610    -0.000004604651
      18        0.000001523184     0.000012703229     0.000017038707
      19       -0.000006722276    -0.000010154617    -0.000005464928
      20       -0.000006118932     0.000015487351    -0.000006999376
      21        0.000004969711    -0.000009248779    -0.000003331231
      22       -0.000001709729     0.000000602071     0.000010015901
      23       -0.000000957377     0.000007499082    -0.000009284746

  **** Optimization is complete! (in 6 steps) ****
    Final optimized geometry and variables:
    Molecular point group: c1

    Geometry (in Angstrom), charge = 0, multiplicity = 1:

    O           -2.819280947903     1.300870955805    -0.079996408131
    C           -2.665608416845     0.121481703627    -0.087604303980
    C           -3.797932556664    -0.872545037748    -0.119989972250
    O           -1.478794431175    -0.462568122829    -0.068100643000
    H           -4.396404952703    -0.689520124686    -1.004402433924
    H           -3.439732224543    -1.891432265578    -0.123242147638
    H           -4.430718328488    -0.707313450092     0.743818953852
    C           -0.331742406575     0.380852110602    -0.035951108487
    C            0.895323730576    -0.512309753027    -0.017590170466
    H           -0.344126806568     1.025284789365    -0.905263454021
    H           -0.381770601459     1.009290267340     0.843313038654
    C            2.192932346146     0.300470809041    -0.034508635752
    H            0.855022271935    -1.162579592313    -0.886625142753
    H            0.855452304857    -1.146533691265     0.863241484316
    C            3.430173735986    -0.552541245156     0.255858875423
    H            2.312947543767     0.765352587307    -1.010933971893
    H            2.136800220075     1.107514340330     0.693635261030
    C            4.731724738860     0.245412194887     0.192860282960
    H            3.474832864521    -1.374430811827    -0.455474116328
    H            3.330897544339    -1.005315763301     1.239723477094
    H            4.879924878922     0.677602854299    -0.792666158281
    H            5.588923877207    -0.384120929714     0.409959410041
    H            4.728138863759     1.059032104566     0.912686059514

  Mulliken Charges: (a.u.)
   Center  Symbol    Alpha    Beta     Spin     Total
       1     O     4.28390  4.28390  0.00000 -0.56779
       2     C     2.61533  2.61533  0.00000  0.76934
       3     C     3.28774  3.28774  0.00000 -0.57548
       4     O     4.31277  4.31277  0.00000 -0.62554
       5     H     0.39751  0.39751  0.00000  0.20497
       6     H     0.39988  0.39988  0.00000  0.20025
       7     H     0.39751  0.39751  0.00000  0.20499
       8     C     2.99627  2.99627  0.00000  0.00746
       9     C     3.16468  3.16468  0.00000 -0.32935
      10     H     0.41076  0.41076  0.00000  0.17847
      11     H     0.41062  0.41062  0.00000  0.17877
      12     C     3.16025  3.16025  0.00000 -0.32049
      13     H     0.41354  0.41354  0.00000  0.17292
      14     H     0.41422  0.41422  0.00000  0.17157
      15     C     3.15174  3.15174  0.00000 -0.30348
      16     H     0.41988  0.41988  0.00000  0.16024
      17     H     0.42083  0.42083  0.00000  0.15834
      18     C     3.23993  3.23993  0.00000 -0.47985
      19     H     0.42143  0.42143  0.00000  0.15713
      20     H     0.42144  0.42144  0.00000  0.15712
      21     H     0.42094  0.42094  0.00000  0.15811
      22     H     0.41799  0.41799  0.00000  0.16402
      23     H     0.42085  0.42085  0.00000  0.15829

   Total alpha = 36.00000, Total beta = 36.00000, Total charge = -0.00000
