                              Psi4 1.0.54 Driver

  ==> Input File <==

--------------------------------------------------------------------------
set {
	reference rhf
	basis cc-pvtz
}

set_num_threads( 4 )
memory 2 gb

molecule MOL {
0 1

O	 1.630397	 3.289097	 1.796767
C	 0.941337	 3.136788	 2.751811
C	 -0.329783	 2.313123	 2.711031
C	 1.291442	 3.761108	 4.083680
C	 -0.644335	 1.705796	 1.351237
H	 -0.241708	 1.537543	 3.468517
H	 -1.144357	 2.951387	 3.045835
C	 -1.931704	 0.886197	 1.358423
H	 0.186724	 1.083786	 1.038892
H	 -0.716588	 2.498929	 0.615810
C	 -2.258482	 0.271340	 0.000669
H	 -1.852972	 0.094222	 2.099943
H	 -2.760448	 1.515900	 1.674523
C	 -3.544441	 -0.550271	 -0.000253
H	 -1.430754	 -0.358481	 -0.316041
H	 -2.338161	 1.062282	 -0.741078
C	 -4.804551	 0.308747	 0.000556
H	 -3.553737	 -1.201524	 -0.870151
H	 -3.553831	 -1.203282	 0.868313
H	 -4.842050	 0.949078	 -0.874436
H	 -5.698404	 -0.304480	 -0.000254
H	 -4.842277	 0.947103	 0.876982
H	 1.402662	 2.991711	 4.839792
H	 2.210398	 4.319859	 3.995874
H	 0.493563	 4.419514	 4.409154

	symmetry c1
}
set optking {
	frozen_dihedral = ("
		15 11 14 18
	")
}

ee,wfn = optimize('scf', return_wfn=True)
oeprop( wfn, 'DIPOLE', 'QUADRUPOLE', 'MULLIKEN_CHARGES')
f=open( 'psi4out.xyz', 'w' )
f.write( "25  " )
f.write( str(ee) + "\n" )
f.write( MOL.save_string_xyz() )
f.close()
--------------------------------------------------------------------------

    Molecular point group: c1
  Charge       = 0
  Multiplicity = 1
  Basis Set: CC-PVTZ
  Basis Set:
  @DF-RHF Final Energy:  -387.27241373407759
    Total Energy =                       -387.2724137340783273
    Molecular point group: c1
  Basis Set: CC-PVTZ
  Basis Set:
  Basis Set: CC-PVTZ
  Basis Set:
  @DF-RHF Final Energy:  -387.27260999875398
    Total Energy =                       -387.2726099987539783
  Basis Set: CC-PVTZ
  Basis Set:
  Basis Set: CC-PVTZ
  Basis Set:
  @DF-RHF Final Energy:  -387.27263958851336
    Total Energy =                       -387.2726395885130160
  Basis Set: CC-PVTZ
  Basis Set:
  Basis Set: CC-PVTZ
  Basis Set:
  @DF-RHF Final Energy:  -387.27241819326383
    Total Energy =                       -387.2724181932644569
  Basis Set: CC-PVTZ
  Basis Set:
  Basis Set: CC-PVTZ
  Basis Set:
  @DF-RHF Final Energy:  -387.27264415184572
    Total Energy =                       -387.2726441518458387
  Basis Set: CC-PVTZ
  Basis Set:
  Charge       = 0
  Multiplicity = 1
  Basis Set: CC-PVTZ
  Basis Set:

    Orbital Energies (a.u.)
    -----------------------

    Doubly Occupied:

       1A    -20.538871     2A    -11.320502     3A    -11.230178
       4A    -11.226583     5A    -11.215133     6A    -11.214510
       7A    -11.213822     8A    -11.211712     9A    -11.207122
      10A     -1.398909    11A     -1.095058    12A     -1.056982
      13A     -1.014796    14A     -0.968552    15A     -0.895704
      16A     -0.822753    17A     -0.782339    18A     -0.730712
      19A     -0.659407    20A     -0.655318    21A     -0.627505
      22A     -0.620750    23A     -0.611535    24A     -0.590270
      25A     -0.568412    26A     -0.557793    27A     -0.540797
      28A     -0.522207    29A     -0.516582    30A     -0.495526
      31A     -0.489343    32A     -0.477896    33A     -0.462705
      34A     -0.456584    35A     -0.452371    36A     -0.401472

  @DF-RHF Final Energy:  -387.27264495284044

   => Energetics <=

    Nuclear Repulsion Energy =            442.7533117070513526
    One-Electron Energy =               -1402.3504969573236849
    Two-Electron Energy =                 572.3245402974314402
    DFT Exchange-Correlation Energy =       0.0000000000000000
    Empirical Dispersion Energy =           0.0000000000000000
    PCM Polarization Energy =               0.0000000000000000
    EFP Energy =                            0.0000000000000000
    Total Energy =                       -387.2726449528408921
    Molecular point group: c1
  Basis Set: CC-PVTZ
  Basis Set:

  -Total Gradient:
     Atom            X                  Y                   Z
    ------   -----------------  -----------------  -----------------
       1        0.000012246453    -0.000004104034    -0.000025164108
       2       -0.000052758786    -0.000009230679     0.000041416943
       3        0.000032181284     0.000015754951     0.000009528589
       4       -0.000002206006    -0.000003898461     0.000010062455
       5        0.000005926741    -0.000007660868    -0.000017904184
       6        0.000008805883     0.000005434344     0.000001193046
       7        0.000007185625     0.000004051741    -0.000000403773
       8       -0.000005463918     0.000003154807     0.000008937703
       9        0.000003119218     0.000003417688    -0.000002947843
      10       -0.000001501369    -0.000001826230     0.000001538680
      11        0.000465201143    -0.000778115624     0.002071997088
      12       -0.000006699360    -0.000003558525    -0.000001959733
      13        0.000009201019    -0.000006376137    -0.000009906400
      14       -0.000950194121     0.001516062269    -0.001389828796
      15       -0.000241170643     0.000439392581    -0.001530954295
      16       -0.000003647726     0.000000786960     0.000000023801
      17       -0.000010310385     0.000009253626     0.000002890843
      18        0.000720210939    -0.001147119961     0.000869363894
      19       -0.000004203841     0.000002263557     0.000000871071
      20        0.000010553247    -0.000005903965     0.000006994976
      21        0.000009552287     0.000001490301     0.000000966066
      22        0.000003216669    -0.000021205390    -0.000023622865
      23        0.000001613561     0.000003867032    -0.000006164600
      24       -0.000014817770    -0.000014121942    -0.000011863803
      25        0.000003959858    -0.000001808040    -0.000005064749

  **** Optimization is complete! (in 6 steps) ****
    Final optimized geometry and variables:
    Molecular point group: c1

    Geometry (in Angstrom), charge = 0, multiplicity = 1:

    O            2.721714543032     1.591051408171     0.231570328484
    C            2.033777534681     1.448391608780     1.188858098938
    C            0.754921226694     0.636496623476     1.154258380266
    C            2.393011224430     2.073974817755     2.517748122890
    C            0.432027080740     0.026224818307    -0.202260295019
    H            0.837506084307    -0.136496174939     1.914978053773
    H           -0.052792411976     1.283998548413     1.488004840762
    C           -0.862918821600    -0.781740714754    -0.189082823008
    H            1.256809229893    -0.604535909237    -0.513755026854
    H            0.365338272147     0.816859538412    -0.940904032986
    C           -1.186046750179    -1.405736625245    -1.544700405690
    H           -0.789772421523    -1.571180816529     0.555812150259
    H           -1.681096931283    -0.140619916090     0.126737326486
    C           -2.473721039456    -2.233277423778    -1.574409809068
    H           -0.355654890407    -2.034717517845    -1.851984064474
    H           -1.251556118261    -0.619925462604    -2.293893130223
    C           -3.756361790831    -1.406214473352    -1.582975775549
    H           -2.457763175587    -2.873685251383    -2.450526935442
    H           -2.484871180217    -2.905653103966    -0.720109057480
    H           -3.789075000381    -0.749978458091    -2.446425133767
    H           -4.629839766173    -2.047018636832    -1.622437056552
    H           -3.845429298221    -0.789409670198    -0.696303449211
    H            2.498765741717     1.306101999222     3.276154677798
    H            3.317050057435     2.623631055933     2.425851035756
    H            1.602202371807     2.741089507890     2.842716376371

  Mulliken Charges: (a.u.)
   Center  Symbol    Alpha    Beta     Spin     Total
       1     O     4.17083  4.17083  0.00000 -0.34167
       2     C     2.86217  2.86217  0.00000  0.27565
       3     C     3.11327  3.11327  0.00000 -0.22655
       4     C     3.15128  3.15128  0.00000 -0.30255
       5     C     3.08220  3.08220  0.00000 -0.16441
       6     H     0.44562  0.44562  0.00000  0.10876
       7     H     0.44580  0.44580  0.00000  0.10839
       8     C     3.09191  3.09191  0.00000 -0.18381
       9     H     0.44573  0.44573  0.00000  0.10853
      10     H     0.44587  0.44587  0.00000  0.10826
      11     C     3.09465  3.09465  0.00000 -0.18930
      12     H     0.45599  0.45599  0.00000  0.08802
      13     H     0.45480  0.45480  0.00000  0.09040
      14     C     3.09075  3.09075  0.00000 -0.18151
      15     H     0.44787  0.44787  0.00000  0.10426
      16     H     0.45411  0.45411  0.00000  0.09178
      17     C     3.14975  3.14975  0.00000 -0.29950
      18     H     0.44758  0.44758  0.00000  0.10483
      19     H     0.45648  0.45648  0.00000  0.08705
      20     H     0.45455  0.45455  0.00000  0.09090
      21     H     0.44709  0.44709  0.00000  0.10581
      22     H     0.45556  0.45556  0.00000  0.08887
      23     H     0.45040  0.45040  0.00000  0.09919
      24     H     0.43535  0.43535  0.00000  0.12930
      25     H     0.45037  0.45037  0.00000  0.09927

   Total alpha = 36.00000, Total beta = 36.00000, Total charge = -0.00000

*** Psi4 exiting successfully. Buy a developer a beer!
