  ==> Input File <==

--------------------------------------------------------------------------
set {
	reference rhf
	basis 6-31G*
}

set_num_threads( 4 )
memory 2 gb

molecule MOL {
0 1

O	 0.750580	 1.306280	 -0.054982
C	 0.576249	 0.131685	 -0.000108
C	 -0.766779	 -0.556801	 -0.000461
O	 1.567518	 -0.747576	 0.070236
C	 -1.945214	 0.412366	 0.000161
H	 -0.796911	 -1.211249	 -0.867467
H	 -0.796854	 -1.212390	 0.865687
C	 -3.287791	 -0.317055	 0.000105
H	 -1.876087	 1.060580	 -0.866812
H	 -1.875822	 1.059691	 0.867761
H	 -3.394745	 -0.949193	 -0.877058
H	 -4.111778	 0.388953	 0.000015
H	 -3.394954	 -0.949187	 0.877259
C	 2.885789	 -0.230567	 0.078601
H	 3.081235	 0.326377	 -0.826471
H	 3.538370	 -1.087538	 0.138651
H	 3.035506	 0.414796	 0.932183

	symmetry c1
}
set optking {
	frozen_dihedral = ("
		1 2 3 6
	")
}

ee = optimize('scf')
oeprop('DIPOLE', 'QUADRUPOLE', 'MULLIKEN_CHARGES')
f=open( 'psi4out.xyz', 'w' )
f.write( "17  " )
f.write( str(ee) + "\n" )
f.write( MOL.save_string_xyz() )
f.close()
--------------------------------------------------------------------------

    Molecular point group: c1
  Charge       = 0
  Multiplicity = 1
  Basis Set: 6-31G*
  Basis Set:
  @DF-RHF Final Energy:  -344.90685019268409
    Total Energy =                       -344.9068501926843737
    Molecular point group: c1
  Basis Set: 6-31G*
  Basis Set:
  Basis Set: 6-31G*
  Basis Set:
  @DF-RHF Final Energy:  -344.90680570887224
    Total Energy =                       -344.9068057088720138
  Basis Set: 6-31G*
  Basis Set:
  Basis Set: 6-31G*
  Basis Set:
  @DF-RHF Final Energy:  -344.90685384755574
    Total Energy =                       -344.9068538475556807
  Basis Set: 6-31G*
  Basis Set:
  Charge       = 0
  Multiplicity = 1
  Basis Set: 6-31G*
  Basis Set:

    Orbital Energies (a.u.)
    -----------------------

    Doubly Occupied:

       1A    -20.604067     2A    -20.545878     3A    -11.372711
       4A    -11.281148     5A    -11.236091     6A    -11.221999
       7A    -11.214592     8A     -1.469773     9A     -1.363234
      10A     -1.080634    11A     -1.001505    12A     -0.939823
      13A     -0.827273    14A     -0.767403    15A     -0.700403
      16A     -0.683620    17A     -0.672339    18A     -0.637069
      19A     -0.595208    20A     -0.574803    21A     -0.568970
      22A     -0.527427    23A     -0.521952    24A     -0.498742
      25A     -0.487070    26A     -0.478883    27A     -0.456379
      28A     -0.438259

  @DF-RHF Final Energy:  -344.90685481743998

   => Energetics <=

    Nuclear Repulsion Energy =            312.4760145853238669
    One-Electron Energy =               -1089.2312307846682415
    Two-Electron Energy =                 431.8483613819043967
    DFT Exchange-Correlation Energy =       0.0000000000000000
    Empirical Dispersion Energy =           0.0000000000000000
    PCM Polarization Energy =               0.0000000000000000
    EFP Energy =                            0.0000000000000000
    Total Energy =                       -344.9068548174400348
    Molecular point group: c1
  Basis Set: 6-31G*
  Basis Set:

  -Total Gradient:
     Atom            X                  Y                   Z
    ------   -----------------  -----------------  -----------------
       1        0.000002428653    -0.000005256479    -0.000156796932
       2       -0.000017325201     0.000033183543     0.000202620146
       3        0.000062759704    -0.000126117103     0.000046173835
       4        0.000008885208    -0.000006615242    -0.000038852044
       5        0.000000080719    -0.000001567060    -0.000011522265
       6       -0.000037266527     0.000094388159    -0.000085364623
       7       -0.000012137293     0.000006475655    -0.000012620497
       8       -0.000002177455     0.000002156276     0.000006915173
       9        0.000004174446    -0.000012253371     0.000009988232
      10       -0.000007131921     0.000014238117     0.000010475023
      11        0.000004232189    -0.000000348495     0.000000382906
      12        0.000000781420    -0.000000899615    -0.000002264107
      13       -0.000003846905     0.000000831507    -0.000000083279
      14       -0.000004700274     0.000005342267     0.000069183983
      15       -0.000012147023     0.000001491047    -0.000013595679
      16        0.000000006402    -0.000001947471    -0.000011123712
      17        0.000013383852    -0.000003101732    -0.000013516162

  **** Optimization is complete! (in 4 steps) ****
    Final optimized geometry and variables:
    Molecular point group: c1

    Geometry (in Angstrom), charge = 0, multiplicity = 1:

    O            0.750341499211     1.305982235901    -0.062676716488
    C            0.576321741190     0.131351620952    -0.007512477286
    C           -0.766642639296    -0.557359124453    -0.008070573041
    O            1.568008950548    -0.747884993068     0.056998404600
    C           -1.945056003710     0.411954319836    -0.015357332404
    H           -0.793481267343    -1.211330168700    -0.875946006974
    H           -0.800470771124    -1.212655621122     0.857680993892
    C           -3.287669070768    -0.317341230594    -0.021814594362
    H           -1.870661700540     1.058924534251    -0.882566930599
    H           -1.880884738979     1.060496676698     0.852005117075
    H           -3.389833785463    -0.950329037987    -0.898941663490
    H           -4.111584251599     0.388699766435    -0.027164585537
    H           -3.399678446794    -0.948621997277     0.855320563118
    C            2.886337978607    -0.230904198582     0.056110541635
    H            3.075212947769     0.326544629215    -0.850042645592
    H            3.539374036825    -1.087918622936     0.110907017456
    H            3.042251458951     0.413974848663     0.908912938822

  Mulliken Charges: (a.u.)
   Center  Symbol    Alpha    Beta     Spin     Total
       1     O     4.28583  4.28583  0.00000 -0.57166
       2     C     2.60608  2.60608  0.00000  0.78783
       3     C     3.20602  3.20602  0.00000 -0.41204
       4     O     4.30698  4.30698  0.00000 -0.61397
       5     C     3.15197  3.15197  0.00000 -0.30394
       6     H     0.40087  0.40087  0.00000  0.19826
       7     H     0.40102  0.40102  0.00000  0.19797
       8     C     3.24276  3.24276  0.00000 -0.48553
       9     H     0.41019  0.41019  0.00000  0.17963
      10     H     0.41159  0.41159  0.00000  0.17681
      11     H     0.42134  0.42134  0.00000  0.15733
      12     H     0.41511  0.41511  0.00000  0.16977
      13     H     0.42136  0.42136  0.00000  0.15729
      14     C     3.09250  3.09250  0.00000 -0.18499
      15     H     0.40903  0.40903  0.00000  0.18193
      16     H     0.40837  0.40837  0.00000  0.18327
      17     H     0.40897  0.40897  0.00000  0.18205

   Total alpha = 28.00000, Total beta = 28.00000, Total charge = -0.00000
