                              Psi4 1.0.54 Driver

  ==> Input File <==

--------------------------------------------------------------------------
set {
	reference rhf
	basis cc-pvtz
}

set_num_threads( 4 )
memory 2 gb

molecule MOL {
0 1

O	 1.392056	 0.699884	 0.960232
C	 0.860843	 0.273204	 -0.013120
C	 -0.623368	 -0.117453	 -0.005652
C	 1.658749	 0.101476	 -1.290570
C	 -0.892588	 -1.253841	 -1.002900
C	 -1.473463	 1.100646	 -0.372896
C	 -0.981836	 -0.579025	 1.418506
H	 -0.609333	 -0.970024	 -2.010649
H	 -1.950451	 -1.487353	 -1.013175
H	 -0.360848	 -2.161259	 -0.746463
H	 -1.232203	 1.461623	 -1.364827
H	 -2.524364	 0.834451	 -0.354500
H	 -1.312381	 1.914833	 0.318657
H	 -2.035706	 -0.826342	 1.468082
H	 -0.425078	 -1.458934	 1.716857
H	 -0.788494	 0.205047	 2.140903
H	 1.435496	 0.922392	 -1.962893
H	 2.710163	 0.127554	 -1.049078
H	 1.420995	 -0.817660	 -1.808155

	symmetry c1
}
set optking {
	frozen_dihedral = ("
		1 2 3 5
	")
}

ee,wfn = optimize('scf', return_wfn=True)
oeprop( wfn, 'DIPOLE', 'QUADRUPOLE', 'MULLIKEN_CHARGES')
f=open( 'psi4out.xyz', 'w' )
f.write( "19  " )
f.write( str(ee) + "\n" )
f.write( MOL.save_string_xyz() )
f.close()
--------------------------------------------------------------------------

    Molecular point group: c1
  Charge       = 0
  Multiplicity = 1
  Basis Set: CC-PVTZ
  Basis Set:
  @DF-RHF Final Energy:  -309.17074784274297
    Total Energy =                       -309.1707478427427418
    Molecular point group: c1
  Basis Set: CC-PVTZ
  Basis Set:
  Basis Set: CC-PVTZ
  Basis Set:
  @DF-RHF Final Energy:  -309.17159957156593
    Total Energy =                       -309.1715995715659346
  Basis Set: CC-PVTZ
  Basis Set:
  Basis Set: CC-PVTZ
  Basis Set:
  @DF-RHF Final Energy:  -309.17246503569055
    Total Energy =                       -309.1724650356903226
  Basis Set: CC-PVTZ
  Basis Set:
  Basis Set: CC-PVTZ
  Basis Set:
  @DF-RHF Final Energy:  -309.17332491263119
    Total Energy =                       -309.1733249126309602
  Basis Set: CC-PVTZ
  Basis Set:
  @DF-RHF Final Energy:  -309.17352773377860
    Total Energy =                       -309.1735277337784851
  @DF-RHF Final Energy:  -309.17377057911182
    Total Energy =                       -309.1737705791115900
  @DF-RHF Final Energy:  -309.17360706615199
    Total Energy =                       -309.1736070661520444
  @DF-RHF Final Energy:  -309.17394439779582
    Total Energy =                       -309.1739443977955943
  Basis Set: CC-PVTZ
  Basis Set:
  @DF-RHF Final Energy:  -309.17383633315660
    Total Energy =                       -309.1738363331565438
  Basis Set: CC-PVTZ
  Basis Set:
  Basis Set: CC-PVTZ
  Basis Set:
  @DF-RHF Final Energy:  -309.17401147144847
    Total Energy =                       -309.1740114714486367
  Basis Set: CC-PVTZ
  Basis Set:
  Basis Set: CC-PVTZ
  Basis Set:
  @DF-RHF Final Energy:  -309.17401275830093
    Total Energy =                       -309.1740127583008189
  Basis Set: CC-PVTZ
  Basis Set:
  Charge       = 0
  Multiplicity = 1
  Basis Set: CC-PVTZ
  Basis Set:

    Orbital Energies (a.u.)
    -----------------------

    Doubly Occupied:

       1A    -20.536976     2A    -11.318025     3A    -11.245663
       4A    -11.225558     5A    -11.221414     6A    -11.220954
       7A    -11.207758     8A     -1.398298     9A     -1.110505
      10A     -1.003811    11A     -0.946519    12A     -0.936968
      13A     -0.835240    14A     -0.705547    15A     -0.666836
      16A     -0.634224    17A     -0.622629    18A     -0.595666
      19A     -0.590661    20A     -0.568213    21A     -0.547587
      22A     -0.546641    23A     -0.525403    24A     -0.514231
      25A     -0.502943    26A     -0.473304    27A     -0.465907
      28A     -0.394229

  @DF-RHF Final Energy:  -309.17401323898520

   => Energetics <=

    Nuclear Repulsion Energy =            326.9419696333324623
    One-Electron Energy =               -1067.1085445086748678
    Two-Electron Energy =                 430.9925616363570384
    DFT Exchange-Correlation Energy =       0.0000000000000000
    Empirical Dispersion Energy =           0.0000000000000000
    PCM Polarization Energy =               0.0000000000000000
    EFP Energy =                            0.0000000000000000
    Total Energy =                       -309.1740132389853102
    Molecular point group: c1
  Basis Set: CC-PVTZ
  Basis Set:

  -Total Gradient:
     Atom            X                  Y                   Z
    ------   -----------------  -----------------  -----------------
       1       -0.000303273292     0.000953057660    -0.000281699180
       2        0.000365805119    -0.001099730123     0.000118937693
       3        0.000140781819    -0.000319585398     0.000617146432
       4        0.000059341149    -0.000059605634     0.000017473686
       5       -0.000195929516     0.000445555310    -0.000566896558
       6        0.000045170280    -0.000052534148    -0.000010246818
       7       -0.000041594461    -0.000035391106     0.000018970117
       8       -0.000023575071    -0.000044451613     0.000154921541
       9        0.000186769209     0.000031199737    -0.000024072563
      10       -0.000108187632     0.000144859815    -0.000061064467
      11        0.000039203739     0.000016096240    -0.000053284937
      12       -0.000062485085    -0.000022135800    -0.000010476610
      13       -0.000016913778     0.000031955324     0.000067705680
      14        0.000017992019     0.000005450943     0.000012394893
      15       -0.000008126426     0.000017627659     0.000004855377
      16       -0.000003238769    -0.000011968254    -0.000011980093
      17       -0.000028878198    -0.000022060861     0.000004550870
      18       -0.000036491822    -0.000010093877     0.000010419406
      19       -0.000026369282     0.000031754127    -0.000007654467

  **** Optimization is complete! (in 12 steps) ****
    Final optimized geometry and variables:
    Molecular point group: c1

    Geometry (in Angstrom), charge = 0, multiplicity = 1:

    O            1.383145987164     0.681362018895     1.015831928907
    C            0.867491651500     0.254608785635     0.033946396277
    C           -0.600824041714    -0.197079788523     0.049708511802
    C            1.643424705416     0.202926651970    -1.265504707180
    C           -0.871698365624    -1.322733049445    -0.956714856207
    C           -1.441929525358     1.038025106930    -0.323078179034
    C           -0.974657113752    -0.664098872246     1.459017036105
    H           -0.689052403760    -1.015885463380    -1.978244149797
    H           -1.908657105350    -1.628160592162    -0.889576315561
    H           -0.261218749041    -2.195326487467    -0.752641965708
    H           -1.196283928089     1.411549045580    -1.311028811890
    H           -2.494799807963     0.780638576960    -0.321998915128
    H           -1.287960791061     1.838670860653     0.389315058540
    H           -2.022275129135    -0.941577552243     1.489902281791
    H           -0.389452671290    -1.527908422315     1.752291755830
    H           -0.801204947144     0.113595963893     2.187427849743
    H            1.084421326541     0.644969256807    -2.080582438873
    H            2.576430548972     0.728405382558    -1.134202401678
    H            1.848427364078    -0.826600857018    -1.534558216643

  Mulliken Charges: (a.u.)
   Center  Symbol    Alpha    Beta     Spin     Total
       1     O     4.17827  4.17827  0.00000 -0.35653
       2     C     2.85008  2.85008  0.00000  0.29984
       3     C     3.00713  3.00713  0.00000 -0.01425
       4     C     3.16455  3.16455  0.00000 -0.32910
       5     C     3.16519  3.16519  0.00000 -0.33038
       6     C     3.15600  3.15600  0.00000 -0.31200
       7     C     3.15168  3.15168  0.00000 -0.30336
       8     H     0.44562  0.44562  0.00000  0.10875
       9     H     0.44259  0.44259  0.00000  0.11482
      10     H     0.44393  0.44393  0.00000  0.11214
      11     H     0.44733  0.44733  0.00000  0.10534
      12     H     0.44674  0.44674  0.00000  0.10653
      13     H     0.43991  0.43991  0.00000  0.12017
      14     H     0.45160  0.45160  0.00000  0.09680
      15     H     0.44887  0.44887  0.00000  0.10226
      16     H     0.43629  0.43629  0.00000  0.12743
      17     H     0.44638  0.44638  0.00000  0.10723
      18     H     0.43174  0.43174  0.00000  0.13651
      19     H     0.44610  0.44610  0.00000  0.10780

   Total alpha = 28.00000, Total beta = 28.00000, Total charge = -0.00000

*** Psi4 exiting successfully. Buy a developer a beer!
