  ==> Input File <==

--------------------------------------------------------------------------
set {
	reference rhf
	basis 6-31G*
}

set_num_threads( 4 )
memory 2 gb

molecule MOL {
0 1

O	 1.712526	 1.529354	 0.440046
C	 1.304218	 0.811881	 1.295403
C	 -0.011336	 0.072666	 1.268093
O	 1.974256	 0.559481	 2.412756
C	 -0.823008	 0.326187	 0.001381
H	 0.207737	 -0.984580	 1.390372
H	 -0.565893	 0.363940	 2.155980
C	 -2.149452	 -0.435131	 -0.000098
H	 -0.233192	 0.041462	 -0.864203
H	 -1.008612	 1.391141	 -0.097284
C	 -3.368779	 0.488503	 -0.000883
H	 -2.193746	 -1.087250	 -0.871175
H	 -2.195311	 -1.087803	 0.870418
C	 -4.693822	 -0.272754	 -0.001129
H	 -3.325798	 1.139422	 -0.871284
H	 -3.326423	 1.139959	 0.869145
H	 -4.781274	 -0.907928	 -0.878124
H	 -5.538651	 0.408946	 -0.001420
H	 -4.781694	 -0.907783	 0.875984
C	 3.231980	 1.191941	 2.564681
H	 3.904509	 0.895611	 1.772581
H	 3.612712	 0.866033	 3.520036
H	 3.120896	 2.266661	 2.552689

	symmetry c1
}
set optking {
	frozen_dihedral = ("
		9 5 8 12
	")
}

ee = optimize('scf')
oeprop('DIPOLE', 'QUADRUPOLE', 'MULLIKEN_CHARGES')
f=open( 'psi4out.xyz', 'w' )
f.write( "23  " )
f.write( str(ee) + "\n" )
f.write( MOL.save_string_xyz() )
f.close()
--------------------------------------------------------------------------

    Molecular point group: c1
  Charge       = 0
  Multiplicity = 1
  Basis Set: 6-31G*
  Basis Set:
  @DF-RHF Final Energy:  -422.97057249667512
    Total Energy =                       -422.9705724966752314
    Molecular point group: c1
  Basis Set: 6-31G*
  Basis Set:
  Basis Set: 6-31G*
  Basis Set:
  @DF-RHF Final Energy:  -422.97077858765590
    Total Energy =                       -422.9707785876553316
  Basis Set: 6-31G*
  Basis Set:
  Basis Set: 6-31G*
  Basis Set:
  @DF-RHF Final Energy:  -422.97060989946925
    Total Energy =                       -422.9706098994693093
  Basis Set: 6-31G*
  Basis Set:
  Basis Set: 6-31G*
  Basis Set:
  @DF-RHF Final Energy:  -422.97088102464664
    Total Energy =                       -422.9708810246467010
  Basis Set: 6-31G*
  Basis Set:
  Basis Set: 6-31G*
  Basis Set:
  @DF-RHF Final Energy:  -422.97088664376372
    Total Energy =                       -422.9708866437636061
  Basis Set: 6-31G*
  Basis Set:
  Charge       = 0
  Multiplicity = 1
  Basis Set: 6-31G*
  Basis Set:

    Orbital Energies (a.u.)
    -----------------------

    Doubly Occupied:

       1A    -20.603608     2A    -20.545524     3A    -11.372047
       4A    -11.280842     5A    -11.235924     6A    -11.218852
       7A    -11.217854     8A    -11.217222     9A    -11.209916
      10A     -1.469293    11A     -1.362754    12A     -1.091318
      13A     -1.043322    14A     -0.986242    15A     -0.931561
      16A     -0.845720    17A     -0.795194    18A     -0.767404
      19A     -0.700052    20A     -0.682376    21A     -0.672314
      22A     -0.637231    23A     -0.619500    24A     -0.598617
      25A     -0.572952    26A     -0.558947    27A     -0.554895
      28A     -0.528144    29A     -0.521188    30A     -0.499363
      31A     -0.493980    32A     -0.470373    33A     -0.463927
      34A     -0.458657    35A     -0.452150    36A     -0.435367

  @DF-RHF Final Energy:  -422.97088720039790

   => Energetics <=

    Nuclear Repulsion Energy =            453.7950109784319466
    One-Electron Energy =               -1475.3025375112056281
    Two-Electron Energy =                 598.5366393323758984
    DFT Exchange-Correlation Energy =       0.0000000000000000
    Empirical Dispersion Energy =           0.0000000000000000
    PCM Polarization Energy =               0.0000000000000000
    EFP Energy =                            0.0000000000000000
    Total Energy =                       -422.9708872003977831
    Molecular point group: c1
  Basis Set: 6-31G*
  Basis Set:

  -Total Gradient:
     Atom            X                  Y                   Z
    ------   -----------------  -----------------  -----------------
       1        0.000015810422    -0.000012090933    -0.000005812096
       2       -0.000045482133     0.000031003604    -0.000010202452
       3       -0.000017452954    -0.000034952046     0.000074788354
       4       -0.000016075338    -0.000003767913    -0.000014584810
       5        0.000575331754    -0.000903930500     0.000569233504
       6       -0.000005101464    -0.000019818095     0.000009722439
       7        0.000018367383    -0.000008536153     0.000007438617
       8       -0.000561744553     0.000841789917    -0.000682532776
       9       -0.000380622319     0.000636379912    -0.000436496014
      10       -0.000029508269    -0.000002903086    -0.000029795128
      11       -0.000029051524     0.000065445068     0.000049688996
      12        0.000381624630    -0.000603043586     0.000483779582
      13        0.000042439505    -0.000002885556     0.000008839805
      14        0.000045050081    -0.000017601136    -0.000040705508
      15        0.000002321867     0.000023405365     0.000013100327
      16       -0.000008538270     0.000015501006     0.000015400796
      17       -0.000014565729    -0.000017288262    -0.000002119479
      18        0.000017202093     0.000006941622    -0.000008652495
      19        0.000005147256     0.000005989143    -0.000000574864
      20        0.000000398858     0.000000729132    -0.000000725772
      21        0.000002092353    -0.000000033786     0.000000337336
      22        0.000003144752     0.000000279795     0.000000091399
      23       -0.000000788412    -0.000000613515    -0.000000219759

  **** Optimization is complete! (in 6 steps) ****
    Final optimized geometry and variables:
    Molecular point group: c1

    Geometry (in Angstrom), charge = 0, multiplicity = 1:

    O            1.990394683158     1.054088615792    -0.457482522831
    C            1.588321871824     0.325569428090     0.391564607235
    C            0.280111949032    -0.426251153648     0.356591499412
    O            2.257851645347     0.073812134437     1.509381421640
    C           -0.529343526450    -0.177895699086    -0.913544847890
    H            0.507691161370    -1.481643106527     0.478026921602
    H           -0.282351349375    -0.141547018633     1.241931265299
    C           -1.880407685967    -0.927301250442    -0.917510098083
    H            0.065751722871    -0.460228627590    -1.774268525429
    H           -0.696572409635     0.889057080508    -1.016047765028
    C           -3.094842446767     0.004236603691    -0.905039218047
    H           -1.939122627297    -1.576901935547    -1.786628097596
    H           -1.940555143136    -1.589467125225    -0.055841957535
    C           -4.424434954698    -0.747806202211    -0.895361323109
    H           -3.053677720505     0.656938319553    -1.774039756949
    H           -3.039637556048     0.654358324178    -0.033850476787
    H           -4.521648425926    -1.383107444196    -1.771302329095
    H           -5.264895716546    -0.060747722053    -0.890618794295
    H           -4.510649254857    -1.381970640251    -0.017362859888
    C            3.507948624843     0.719425416116     1.669003463430
    H            4.186274159820     0.435258086342     0.877395269931
    H            3.889376338868     0.392178552506     2.623671798984
    H            3.384842692657     1.792891294552     1.662949894120

  Mulliken Charges: (a.u.)
   Center  Symbol    Alpha    Beta     Spin     Total
       1     O     4.28597  4.28597  0.00000 -0.57195
       2     C     2.60582  2.60582  0.00000  0.78835
       3     C     3.20959  3.20959  0.00000 -0.41917
       4     O     4.30730  4.30730  0.00000 -0.61460
       5     C     3.15650  3.15650  0.00000 -0.31301
       6     H     0.40016  0.40016  0.00000  0.19968
       7     H     0.40077  0.40077  0.00000  0.19846
       8     C     3.15731  3.15731  0.00000 -0.31462
       9     H     0.40918  0.40918  0.00000  0.18163
      10     H     0.40861  0.40861  0.00000  0.18278
      11     C     3.15300  3.15300  0.00000 -0.30601
      12     H     0.41856  0.41856  0.00000  0.16287
      13     H     0.42249  0.42249  0.00000  0.15503
      14     C     3.24039  3.24039  0.00000 -0.48077
      15     H     0.42008  0.42008  0.00000  0.15983
      16     H     0.42356  0.42356  0.00000  0.15289
      17     H     0.42117  0.42117  0.00000  0.15766
      18     H     0.41851  0.41851  0.00000  0.16298
      19     H     0.42195  0.42195  0.00000  0.15610
      20     C     3.09246  3.09246  0.00000 -0.18492
      21     H     0.40906  0.40906  0.00000  0.18187
      22     H     0.40846  0.40846  0.00000  0.18308
      23     H     0.40909  0.40909  0.00000  0.18182

   Total alpha = 36.00000, Total beta = 36.00000, Total charge = -0.00000
