                              Psi4 1.0.54 Driver

  ==> Input File <==

--------------------------------------------------------------------------
set {
	reference rhf
	basis cc-pvtz
}

set_num_threads( 4 )
memory 2 gb

molecule MOL {
0 1

H	 3.286109	 -0.472954	 -0.030618
C	 2.230018	 -0.281688	 -0.023353
C	 1.696132	 0.601273	 0.903295
C	 1.411342	 -0.915809	 -0.936139
H	 2.338812	 1.090226	 1.609469
C	 0.341860	 0.849442	 0.916017
H	 1.827108	 -1.598203	 -1.651648
C	 0.051436	 -0.665552	 -0.922126
H	 -0.089488	 1.528388	 1.624273
C	 -0.486398	 0.214248	 0.000000
H	 -0.591543	 -1.155608	 -1.629656
C	 -1.946525	 0.470130	 0.000000
O	 -2.779618	 -0.371226	 0.000000
H	 -2.227127	 1.528393	 0.000000

	symmetry c1
}
set optking {
	frozen_dihedral = ("
		8 10 12 14
	")
}

ee,wfn = optimize('scf', return_wfn=True)
oeprop( wfn, 'DIPOLE', 'QUADRUPOLE', 'MULLIKEN_CHARGES')
f=open( 'psi4out.xyz', 'w' )
f.write( "14  " )
f.write( str(ee) + "\n" )
f.write( MOL.save_string_xyz() )
f.close()
--------------------------------------------------------------------------

    Molecular point group: c1
  Charge       = 0
  Multiplicity = 1
  Basis Set: CC-PVTZ
  Basis Set:
  @DF-RHF Final Energy:  -343.54239964700230
    Total Energy =                       -343.5423996470023553
    Molecular point group: c1
  Basis Set: CC-PVTZ
  Basis Set:
  Basis Set: CC-PVTZ
  Basis Set:
  @DF-RHF Final Energy:  -343.54042200659296
    Total Energy =                       -343.5404220065929621
  Basis Set: CC-PVTZ
  Basis Set:
  Basis Set: CC-PVTZ
  Basis Set:
  @DF-RHF Final Energy:  -343.54290358702542
    Total Energy =                       -343.5429035870255348
  Basis Set: CC-PVTZ
  Basis Set:
  Basis Set: CC-PVTZ
  Basis Set:
  @DF-RHF Final Energy:  -343.54335436813193
    Total Energy =                       -343.5433543681320998
  Basis Set: CC-PVTZ
  Basis Set:
  Basis Set: CC-PVTZ
  Basis Set:
  @DF-RHF Final Energy:  -343.54336498373760
    Total Energy =                       -343.5433649837373764
  Basis Set: CC-PVTZ
  Basis Set:
  Charge       = 0
  Multiplicity = 1
  Basis Set: CC-PVTZ
  Basis Set:

    Orbital Energies (a.u.)
    -----------------------

    Doubly Occupied:

       1A    -20.558104     2A    -11.329727     3A    -11.249707
       4A    -11.248326     5A    -11.246088     6A    -11.245874
       7A    -11.243279     8A    -11.241911     9A     -1.413100
      10A     -1.176080    11A     -1.050564    12A     -1.034887
      13A     -0.891496    14A     -0.846767    15A     -0.796281
      16A     -0.725719    17A     -0.681698    18A     -0.657416
      19A     -0.635009    20A     -0.621717    21A     -0.605531
      22A     -0.549486    23A     -0.531163    24A     -0.512907
      25A     -0.507867    26A     -0.426359    27A     -0.353546
      28A     -0.352340

  @DF-RHF Final Energy:  -343.54336601954685

   => Energetics <=

    Nuclear Repulsion Energy =            323.5355483237736962
    One-Electron Energy =               -1106.6919284711671025
    Two-Electron Energy =                 439.6130141278462702
    DFT Exchange-Correlation Energy =       0.0000000000000000
    Empirical Dispersion Energy =           0.0000000000000000
    PCM Polarization Energy =               0.0000000000000000
    EFP Energy =                            0.0000000000000000
    Total Energy =                       -343.5433660195471361
    Molecular point group: c1
  Basis Set: CC-PVTZ
  Basis Set:

  -Total Gradient:
     Atom            X                  Y                   Z
    ------   -----------------  -----------------  -----------------
       1        0.000002128853     0.000008530714     0.000011659875
       2       -0.000028392043    -0.000129244168    -0.000171654769
       3       -0.000180741607     0.000103134971     0.000081160886
       4        0.000202060299     0.000039748043     0.000088421369
       5        0.000008441271    -0.000008936171    -0.000005223889
       6        0.000179054136    -0.000026039661     0.000076625446
       7       -0.000009780922    -0.000002781852    -0.000006396595
       8        0.000906513266     0.004501269367    -0.003330234065
       9       -0.000007022689     0.000005532884     0.000011278982
      10       -0.001454985377    -0.006452626253     0.002606798516
      11        0.000005136423    -0.000009685131     0.000010284301
      12        0.000168393936     0.001618837939     0.007558209683
      13       -0.000013931584    -0.000040975736    -0.000014085482
      14        0.000223126030     0.000393235053    -0.006916844258

  **** Optimization is complete! (in 6 steps) ****
    Final optimized geometry and variables:
    Molecular point group: c1

    Geometry (in Angstrom), charge = 0, multiplicity = 1:

    H            3.294363715077    -0.468565218143     0.004972648992
    C            2.237948932600    -0.279945801708     0.015952163476
    C            1.701944716426     0.584977349969     0.952200534723
    C            1.417610363068    -0.893934144189    -0.912800147193
    H            2.339515995744     1.066330370709     1.668259185594
    C            0.345004041173     0.840341239619     0.952643012085
    H            1.837246650954    -1.552797153425    -1.648242940664
    C            0.057017421512    -0.659050296508    -0.895614925239
    H           -0.069723369910     1.532511725184     1.662336141689
    C           -0.484795806383     0.195306470040     0.050413501650
    H           -0.589272584088    -1.138937930909    -1.604173241871
    C           -1.940132372045     0.513419102322     0.015648333231
    O           -2.793222123142    -0.290058730042    -0.142938255800
    H           -2.186147058925     1.579588888489     0.060698100809

  Mulliken Charges: (a.u.)
   Center  Symbol    Alpha    Beta     Spin     Total
       1     H     0.42021  0.42021  0.00000  0.15958
       2     C     3.07732  3.07732  0.00000 -0.15463
       3     C     3.06785  3.06785  0.00000 -0.13570
       4     C     3.06691  3.06691  0.00000 -0.13382
       5     H     0.42065  0.42065  0.00000  0.15871
       6     C     3.09517  3.09517  0.00000 -0.19035
       7     H     0.42035  0.42035  0.00000  0.15929
       8     C     3.09267  3.09267  0.00000 -0.18534
       9     H     0.42362  0.42362  0.00000  0.15276
      10     C     2.95584  2.95584  0.00000  0.08831
      11     H     0.41299  0.41299  0.00000  0.17402
      12     C     2.92220  2.92220  0.00000  0.15559
      13     O     4.16560  4.16560  0.00000 -0.33119
      14     H     0.45862  0.45862  0.00000  0.08276

   Total alpha = 28.00000, Total beta = 28.00000, Total charge =  0.00000

*** Psi4 exiting successfully. Buy a developer a beer!
