                              Psi4 1.0.54 Driver

  ==> Input File <==

--------------------------------------------------------------------------
set {
	reference rhf
	basis cc-pvtz
}

set_num_threads( 4 )
memory 2 gb

molecule MOL {
0 1

H	 -3.162190	 0.493205	 -0.000107
C	 -2.363908	 -0.234727	 0.000005
O	 -1.158738	 0.454634	 -0.000087
H	 -2.464314	 -0.863616	 -0.882153
H	 -2.464327	 -0.863359	 0.882345
C	 -0.028611	 -0.359694	 0.000037
C	 0.925807	 0.110794	 -1.078907
H	 -0.314904	 -1.396565	 -0.177655
H	 0.458550	 -0.322989	 0.974701
C	 2.193674	 -0.733427	 -1.143360
H	 0.409913	 0.083424	 -2.032338
H	 1.177252	 1.148438	 -0.889109
H	 1.966324	 -1.772593	 -1.356749
H	 2.856636	 -0.375917	 -1.921620
H	 2.738939	 -0.700224	 -0.205996

	symmetry c1
}
set optking {
	frozen_dihedral = ("
		8 6 3 2
	")
}

ee,wfn = optimize('scf', return_wfn=True)
oeprop( wfn, 'DIPOLE', 'QUADRUPOLE', 'MULLIKEN_CHARGES')
f=open( 'psi4out.xyz', 'w' )
f.write( "15  " )
f.write( str(ee) + "\n" )
f.write( MOL.save_string_xyz() )
f.close()
--------------------------------------------------------------------------

    Molecular point group: c1
  Charge       = 0
  Multiplicity = 1
  Basis Set: CC-PVTZ
  Basis Set:
  @DF-RHF Final Energy:  -232.22446472219866
    Total Energy =                       -232.2244647221984906
    Molecular point group: c1
  Basis Set: CC-PVTZ
  Basis Set:
  Basis Set: CC-PVTZ
  Basis Set:
  @DF-RHF Final Energy:  -231.76577221208333
    Total Energy =                       -231.7657722120833910
  Basis Set: CC-PVTZ
  Basis Set:
  Basis Set: CC-PVTZ
  Basis Set:
  @DF-RHF Final Energy:  -231.93802947035638
    Total Energy =                       -231.9380294703564687
  Basis Set: CC-PVTZ
  Basis Set:
  Basis Set: CC-PVTZ
  Basis Set:
  @DF-RHF Final Energy:  -232.13213469304256
    Total Energy =                       -232.1321346930425307
  Basis Set: CC-PVTZ
  Basis Set:
  @DF-RHF Final Energy:  -232.22350779857186
    Total Energy =                       -232.2235077985718590
  Basis Set: CC-PVTZ
  Basis Set:
  @DF-RHF Final Energy:  -232.22459122184725
    Total Energy =                       -232.2245912218472768
  Basis Set: CC-PVTZ
  Basis Set:
  Basis Set: CC-PVTZ
  Basis Set:
  @DF-RHF Final Energy:  -232.22482711225544
    Total Energy =                       -232.2248271122554115
  Basis Set: CC-PVTZ
  Basis Set:
  Basis Set: CC-PVTZ
  Basis Set:
  @DF-RHF Final Energy:  -232.22483296310449
    Total Energy =                       -232.2248329631043475
  Basis Set: CC-PVTZ
  Basis Set:
  Charge       = 0
  Multiplicity = 1
  Basis Set: CC-PVTZ
  Basis Set:

    Orbital Energies (a.u.)
    -----------------------

    Doubly Occupied:

       1A    -20.544436     2A    -11.264033     3A    -11.262445
       4A    -11.212786     5A    -11.210825     6A     -1.377241
       7A     -1.057784     8A     -0.956860     9A     -0.878586
      10A     -0.809120    11A     -0.672205    12A     -0.654636
      13A     -0.635551    14A     -0.603108    15A     -0.568252
      16A     -0.539533    17A     -0.504834    18A     -0.493083
      19A     -0.481455    20A     -0.463623    21A     -0.408509

  @DF-RHF Final Energy:  -232.22483333901980

   => Energetics <=

    Nuclear Repulsion Energy =            190.0765821483290949
    One-Electron Energy =                -691.4050254227928463
    Two-Electron Energy =                 269.1036099354441831
    DFT Exchange-Correlation Energy =       0.0000000000000000
    Empirical Dispersion Energy =           0.0000000000000000
    PCM Polarization Energy =               0.0000000000000000
    EFP Energy =                            0.0000000000000000
    Total Energy =                       -232.2248333390195967
    Molecular point group: c1
  Basis Set: CC-PVTZ
  Basis Set:

  -Total Gradient:
     Atom            X                  Y                   Z
    ------   -----------------  -----------------  -----------------
       1       -0.000003555709     0.000005658233    -0.000002109070
       2       -0.000158785029    -0.000933033559    -0.001104662027
       3        0.000219998254     0.001579840475     0.002006539257
       4       -0.000001627360     0.000012674467     0.000002095993
       5       -0.000005046121     0.000002848260     0.000004797691
       6       -0.000075774757    -0.001579838902    -0.002436202539
       7       -0.000001366219    -0.000001049111     0.000013466393
       8        0.000035237560     0.000891983901     0.001532885023
       9       -0.000018753652     0.000005988981    -0.000006242748
      10        0.000000405657    -0.000019721452     0.000000710173
      11       -0.000010244461     0.000004223365     0.000004448308
      12        0.000011394874     0.000000007691    -0.000012783667
      13       -0.000005654315     0.000016810588    -0.000011981466
      14        0.000003926931     0.000000455146    -0.000001114844
      15        0.000009844346     0.000013151916     0.000010153524

  **** Optimization is complete! (in 9 steps) ****
    Final optimized geometry and variables:
    Molecular point group: c1

    Geometry (in Angstrom), charge = 0, multiplicity = 1:

    H           -3.051873673013     0.755909617315     0.344453330951
    C           -2.204533943799     0.188225555150     0.701680959088
    O           -1.063652355838     0.714915645109     0.109616781438
    H           -2.348468057268    -0.856235369443     0.434984303502
    H           -2.169881971882     0.264704951628     1.786357080106
    C            0.144010034422     0.089321721082     0.437356292106
    C            0.951650382621    -0.185654794804    -0.817289488019
    H           -0.039623797438    -0.834438548417     0.980862266268
    H            0.706241337156     0.737434239953     1.106242683980
    C            2.312976580205    -0.800769868733    -0.512254191417
    H            0.380042155723    -0.843766363679    -1.463623582639
    H            1.076004848452     0.747604285004    -1.355605233745
    H            2.211723111729    -1.748122668841     0.007237683344
    H            2.868679121551    -0.984087452845    -1.423771556551
    H            2.911042910705    -0.144751171673     0.111492560635

  Mulliken Charges: (a.u.)
   Center  Symbol    Alpha    Beta     Spin     Total
       1     H     0.44950  0.44950  0.00000  0.10100
       2     C     3.03120  3.03120  0.00000 -0.06241
       3     O     4.17823  4.17823  0.00000 -0.35647
       4     H     0.47266  0.47266  0.00000  0.05468
       5     H     0.47043  0.47043  0.00000  0.05914
       6     C     2.96390  2.96390  0.00000  0.07220
       7     C     3.07878  3.07878  0.00000 -0.15756
       8     H     0.47532  0.47532  0.00000  0.04936
       9     H     0.46155  0.46155  0.00000  0.07690
      10     C     3.15541  3.15541  0.00000 -0.31081
      11     H     0.45492  0.45492  0.00000  0.09017
      12     H     0.45034  0.45034  0.00000  0.09931
      13     H     0.45609  0.45609  0.00000  0.08782
      14     H     0.44652  0.44652  0.00000  0.10696
      15     H     0.45515  0.45515  0.00000  0.08970

   Total alpha = 21.00000, Total beta = 21.00000, Total charge = -0.00000

*** Psi4 exiting successfully. Buy a developer a beer!
