                              Psi4 1.0.54 Driver

  ==> Input File <==

--------------------------------------------------------------------------
set {
	reference rhf
	basis cc-pvtz
}

set_num_threads( 4 )
memory 2 gb

molecule MOL {
0 1

O	 2.868453	 1.353349	 -0.000734
C	 2.841259	 0.166180	 -0.000295
C	 1.542794	 -0.614730	 -0.000853
C	 4.113372	 -0.651103	 0.000743
C	 0.288398	 0.247429	 0.000314
H	 1.557171	 -1.273139	 -0.866508
H	 1.557484	 -1.274998	 0.863344
C	 0.579058	 1.706484	 -0.339959
H	 -0.186076	 0.183362	 0.972880
H	 -0.424292	 -0.160972	 -0.707087
C	 -0.670654	 2.582010	 -0.341913
H	 1.296310	 2.108725	 0.372100
H	 1.056616	 1.762857	 -1.315675
C	 -0.388191	 4.042828	 -0.680974
H	 -1.148591	 2.526503	 0.633078
H	 -1.387913	 2.181189	 -1.053959
C	 -1.641752	 4.911376	 -0.680868
H	 0.327775	 4.444652	 0.030974
H	 0.088388	 4.099372	 -1.655957
H	 -2.123032	 4.903527	 0.291423
H	 -1.406649	 5.941049	 -0.924837
H	 -2.364064	 4.555865	 -1.408137
H	 4.145311	 -1.294584	 -0.871587
H	 4.970080	 0.004978	 -0.000091
H	 4.145223	 -1.291980	 0.874988

	symmetry c1
}
set optking {
	frozen_dihedral = ("
		9 5 3 6
	")
}

ee,wfn = optimize('scf', return_wfn=True)
oeprop( wfn, 'DIPOLE', 'QUADRUPOLE', 'MULLIKEN_CHARGES')
f=open( 'psi4out.xyz', 'w' )
f.write( "25  " )
f.write( str(ee) + "\n" )
f.write( MOL.save_string_xyz() )
f.close()
--------------------------------------------------------------------------

    Molecular point group: c1
  Charge       = 0
  Multiplicity = 1
  Basis Set: CC-PVTZ
  Basis Set:
  @DF-RHF Final Energy:  -387.23462612453284
    Total Energy =                       -387.2346261245321557
    Molecular point group: c1
  Basis Set: CC-PVTZ
  Basis Set:
  Basis Set: CC-PVTZ
  Basis Set:
  @DF-RHF Final Energy:  -387.25580522362628
    Total Energy =                       -387.2558052236263393
  Basis Set: CC-PVTZ
  Basis Set:
  Basis Set: CC-PVTZ
  Basis Set:
  @DF-RHF Final Energy:  -387.26058441164275
    Total Energy =                       -387.2605844116426397
  Basis Set: CC-PVTZ
  Basis Set:
  Basis Set: CC-PVTZ
  Basis Set:
  @DF-RHF Final Energy:  -387.26071116783606
    Total Energy =                       -387.2607111678358933
  Basis Set: CC-PVTZ
  Basis Set:
  @DF-RHF Final Energy:  -387.26216718576637
    Total Energy =                       -387.2621671857662022
  @DF-RHF Final Energy:  -387.26287791222683
    Total Energy =                       -387.2628779122268270
  @DF-RHF Final Energy:  -387.26318357495995
    Total Energy =                       -387.2631835749594984
  @DF-RHF Final Energy:  -387.26323910311618
    Total Energy =                       -387.2632391031161205
  @DF-RHF Final Energy:  -387.26328708099334
    Total Energy =                       -387.2632870809931092
  @DF-RHF Final Energy:  -387.26342098603897
    Total Energy =                       -387.2634209860386818
  @DF-RHF Final Energy:  -387.26362413785762
    Total Energy =                       -387.2636241378581872
  @DF-RHF Final Energy:  -387.26401512036574
    Total Energy =                       -387.2640151203661389
  @DF-RHF Final Energy:  -387.26430164345635
    Total Energy =                       -387.2643016434559513
  @DF-RHF Final Energy:  -387.26454900536248
    Total Energy =                       -387.2645490053625963
  @DF-RHF Final Energy:  -387.26479280959171
    Total Energy =                       -387.2647928095916541
  @DF-RHF Final Energy:  -387.26486461593817
    Total Energy =                       -387.2648646159375403
  @DF-RHF Final Energy:  -387.26490920812313
    Total Energy =                       -387.2649092081232993
  @DF-RHF Final Energy:  -387.26493654367545
    Total Energy =                       -387.2649365436753897
  @DF-RHF Final Energy:  -387.26495210469591
    Total Energy =                       -387.2649521046963628
  @DF-RHF Final Energy:  -387.26497242931873
    Total Energy =                       -387.2649724293188456
  Basis Set: CC-PVTZ
  Basis Set:
  @DF-RHF Final Energy:  -387.26497655443558
    Total Energy =                       -387.2649765544356342
  Basis Set: CC-PVTZ
  Basis Set:
  Basis Set: CC-PVTZ
  Basis Set:
  @DF-RHF Final Energy:  -387.26497977650700
    Total Energy =                       -387.2649797765070616
  Basis Set: CC-PVTZ
  Basis Set:
  Basis Set: CC-PVTZ
  Basis Set:
  @DF-RHF Final Energy:  -387.26498080401791
    Total Energy =                       -387.2649808040183643
  Basis Set: CC-PVTZ
  Basis Set:
  Charge       = 0
  Multiplicity = 1
  Basis Set: CC-PVTZ
  Basis Set:

    Orbital Energies (a.u.)
    -----------------------

    Doubly Occupied:

       1A    -20.536626     2A    -11.321596     3A    -11.230219
       4A    -11.227141     5A    -11.222267     6A    -11.210260
       7A    -11.209227     8A    -11.208308     9A    -11.204327
      10A     -1.398146    11A     -1.091074    12A     -1.054630
      13A     -1.013991    14A     -0.969114    15A     -0.891814
      16A     -0.818768    17A     -0.789855    18A     -0.725836
      19A     -0.663280    20A     -0.643368    21A     -0.633721
      22A     -0.620679    23A     -0.599869    24A     -0.585307
      25A     -0.565340    26A     -0.562821    27A     -0.538538
      28A     -0.533270    29A     -0.511415    30A     -0.496412
      31A     -0.486150    32A     -0.468427    33A     -0.462705
      34A     -0.458627    35A     -0.442872    36A     -0.399438

  @DF-RHF Final Energy:  -387.26498090274754

   => Energetics <=

    Nuclear Repulsion Energy =            450.2077067918542070
    One-Electron Energy =               -1417.3544985864473347
    Two-Electron Energy =                 579.8818108918455891
    DFT Exchange-Correlation Energy =       0.0000000000000000
    Empirical Dispersion Energy =           0.0000000000000000
    PCM Polarization Energy =               0.0000000000000000
    EFP Energy =                            0.0000000000000000
    Total Energy =                       -387.2649809027475385
    Molecular point group: c1
  Basis Set: CC-PVTZ
  Basis Set:

  -Total Gradient:
     Atom            X                  Y                   Z
    ------   -----------------  -----------------  -----------------
       1       -0.000006447940    -0.000014033665    -0.000017777368
       2        0.000003466955     0.000051107587     0.000024775560
       3        0.003183084868     0.003435068987    -0.004919658143
       4       -0.000005082881    -0.000002622060    -0.000008180985
       5        0.003779687141     0.005029616688     0.002466864910
       6       -0.003278054721    -0.003670528357     0.003783972243
       7        0.000032481083    -0.000031911659    -0.000020329697
       8        0.000054925910    -0.000008210434    -0.000025637138
       9       -0.003707365895    -0.004815384374    -0.001303102657
      10       -0.000039275117     0.000030460639     0.000018047630
      11       -0.000008302308     0.000001227450     0.000002394501
      12       -0.000014436463    -0.000004956190    -0.000006658650
      13       -0.000001862686     0.000006418220     0.000000570422
      14        0.000005469775     0.000003228316     0.000010291982
      15        0.000000322358     0.000002034865     0.000000885151
      16       -0.000003182177    -0.000000636557     0.000001320136
      17       -0.000002280023    -0.000006145919    -0.000005201521
      18        0.000000212957     0.000001539161     0.000001628147
      19        0.000000831568    -0.000000442313     0.000001896239
      20        0.000002287798     0.000000342822     0.000000114848
      21        0.000002234173    -0.000003232383    -0.000001669345
      22       -0.000003470564     0.000000064472     0.000000458004
      23       -0.000001200133    -0.000002753201    -0.000009937093
      24        0.000006257430     0.000005114197     0.000002647880
      25       -0.000000301107    -0.000005366297     0.000002284943

  **** Optimization is complete! (in 24 steps) ****
    Final optimized geometry and variables:
    Molecular point group: c1

    Geometry (in Angstrom), charge = 0, multiplicity = 1:

    O            2.092451712474    -0.500676146584     1.320097370271
    C            1.858589555167    -1.438104880978     0.629179449901
    C            0.471583809193    -2.046046954613     0.552578074894
    C            2.943581514913    -2.119518470653    -0.169301622382
    C           -0.733489430388    -1.083018937395     0.449311827404
    H            0.419248175076    -2.799616991640    -0.223585435031
    H            0.382375835774    -2.611035620243     1.478162676868
    C           -0.481020711477     0.288441114841    -0.172022287079
    H           -1.204974886270    -0.983858154993     1.419806122778
    H           -1.477376628673    -1.592065275176    -0.157106622669
    C           -1.772861832578     1.073561019226    -0.382389950912
    H            0.191868022226     0.858768886984     0.452789535304
    H            0.018584389529     0.163536647943    -1.131306728734
    C           -1.546142840991     2.455862870652    -0.987962392462
    H           -2.284478801961     1.181911107037     0.571260018483
    H           -2.444144536204     0.507610758916    -1.024515138632
    C           -2.838270335312     3.238991363508    -1.195043125040
    H           -0.879720572347     3.023363764754    -0.344850109455
    H           -1.032947983747     2.350650056127    -1.940106781241
    H           -3.357872048329     3.391980713853    -0.254931269282
    H           -2.642096401022     4.214040830813    -1.626164011743
    H           -3.513142173166     2.712492357448    -1.861998583305
    H            2.723473902870    -2.033216328146    -1.228374180174
    H            3.900341334546    -1.667835123007     0.043153351462
    H            2.973022255573    -3.178150389460     0.065810234187

  Mulliken Charges: (a.u.)
   Center  Symbol    Alpha    Beta     Spin     Total
       1     O     4.17934  4.17934  0.00000 -0.35869
       2     C     2.84853  2.84853  0.00000  0.30295
       3     C     3.12301  3.12301  0.00000 -0.24603
       4     C     3.15276  3.15276  0.00000 -0.30552
       5     C     3.08821  3.08821  0.00000 -0.17642
       6     H     0.44234  0.44234  0.00000  0.11533
       7     H     0.43848  0.43848  0.00000  0.12304
       8     C     3.09860  3.09860  0.00000 -0.19720
       9     H     0.44707  0.44707  0.00000  0.10587
      10     H     0.45157  0.45157  0.00000  0.09686
      11     C     3.08783  3.08783  0.00000 -0.17566
      12     H     0.43386  0.43386  0.00000  0.13228
      13     H     0.45866  0.45866  0.00000  0.08268
      14     C     3.08325  3.08325  0.00000 -0.16650
      15     H     0.45467  0.45467  0.00000  0.09066
      16     H     0.45703  0.45703  0.00000  0.08595
      17     C     3.15106  3.15106  0.00000 -0.30213
      18     H     0.45228  0.45228  0.00000  0.09544
      19     H     0.45574  0.45574  0.00000  0.08851
      20     H     0.45501  0.45501  0.00000  0.08997
      21     H     0.44848  0.44848  0.00000  0.10303
      22     H     0.45613  0.45613  0.00000  0.08773
      23     H     0.44965  0.44965  0.00000  0.10070
      24     H     0.43658  0.43658  0.00000  0.12684
      25     H     0.44985  0.44985  0.00000  0.10030

   Total alpha = 36.00000, Total beta = 36.00000, Total charge = -0.00000

*** Psi4 exiting successfully. Buy a developer a beer!
