                              Psi4 1.0.54 Driver

  ==> Input File <==

--------------------------------------------------------------------------
set {
	reference rhf
	basis cc-pvtz
}

set_num_threads( 4 )
memory 2 gb

molecule MOL {
0 1

H	 2.867672	 -0.456275	 0.875795
C	 2.403497	 -0.020426	 0.000000
N	 0.989899	 -0.304564	 0.000000
H	 2.867672	 -0.456275	 -0.875795
H	 2.620366	 1.051270	 0.000000
C	 0.357164	 0.035172	 -1.257693
C	 0.298797	 0.325550	 1.105849
H	 0.451396	 1.103267	 -1.476872
H	 0.843211	 -0.508302	 -2.059642
C	 -1.112857	 -0.335868	 -1.217569
H	 0.742019	 -0.004865	 2.038109
H	 0.388639	 1.415485	 1.064444
C	 -1.169724	 -0.052952	 1.085244
H	 -1.612853	 -0.002593	 -2.116212
H	 -1.213166	 -1.417144	 -1.147721
O	 -1.757924	 0.273632	 -0.138892
H	 -1.710826	 0.484826	 1.851163
H	 -1.272976	 -1.119588	 1.274256

	symmetry c1
}
set optking {
	frozen_dihedral = ("
		6 3 2 5
	")
}

ee,wfn = optimize('scf', return_wfn=True)
oeprop( wfn, 'DIPOLE', 'QUADRUPOLE', 'MULLIKEN_CHARGES')
f=open( 'psi4out.xyz', 'w' )
f.write( "18  " )
f.write( str(ee) + "\n" )
f.write( MOL.save_string_xyz() )
f.close()
--------------------------------------------------------------------------

    Molecular point group: c1
  Charge       = 0
  Multiplicity = 1
  Basis Set: CC-PVTZ
  Basis Set:
  @DF-RHF Final Energy:  -325.14562293234513
    Total Energy =                       -325.1456229323451907
    Molecular point group: c1
  Basis Set: CC-PVTZ
  Basis Set:
  Basis Set: CC-PVTZ
  Basis Set:
  @DF-RHF Final Energy:  -325.14565157602169
    Total Energy =                       -325.1456515760217485
  Basis Set: CC-PVTZ
  Basis Set:
  Charge       = 0
  Multiplicity = 1
  Basis Set: CC-PVTZ
  Basis Set:

    Orbital Energies (a.u.)
    -----------------------

    Doubly Occupied:

       1A    -20.547647     2A    -15.544059     3A    -11.264423
       4A    -11.264361     5A    -11.242587     6A    -11.242572
       7A    -11.239222     8A     -1.386559     9A     -1.234080
      10A     -1.039363    11A     -0.982208    12A     -0.884311
      13A     -0.869544    14A     -0.774341    15A     -0.685192
      16A     -0.646908    17A     -0.645486    18A     -0.635516
      19A     -0.630839    20A     -0.574226    21A     -0.557339
      22A     -0.540720    23A     -0.527564    24A     -0.501735
      25A     -0.485854    26A     -0.454140    27A     -0.410839
      28A     -0.354608

  @DF-RHF Final Energy:  -325.14565381924109

   => Energetics <=

    Nuclear Repulsion Energy =            341.9336224207420969
    One-Electron Energy =               -1119.8260653408678991
    Two-Electron Energy =                 452.7467891008849392
    DFT Exchange-Correlation Energy =       0.0000000000000000
    Empirical Dispersion Energy =           0.0000000000000000
    PCM Polarization Energy =               0.0000000000000000
    EFP Energy =                            0.0000000000000000
    Total Energy =                       -325.1456538192409198
    Molecular point group: c1
  Basis Set: CC-PVTZ
  Basis Set:

  -Total Gradient:
     Atom            X                  Y                   Z
    ------   -----------------  -----------------  -----------------
       1       -0.000046573579     0.000007266988     0.000007377603
       2        0.000169609282    -0.000351348706    -0.002272033121
       3       -0.000325962196     0.001373591571     0.001001642815
       4       -0.000019691892    -0.000031386018     0.000009301965
       5       -0.000014977403    -0.000011483337     0.001625091578
       6        0.000170010200    -0.000968826199    -0.000513005150
       7       -0.000051260366     0.000102537874     0.000026720874
       8        0.000022374618     0.000004964324     0.000010415728
       9        0.000006349322    -0.000020901433     0.000048083104
      10        0.000071779267    -0.000068616038     0.000100912452
      11        0.000023440112    -0.000025653308    -0.000022408102
      12       -0.000007088673    -0.000018254843     0.000010076959
      13        0.000026380599     0.000006466306    -0.000030438354
      14        0.000022835457     0.000011642428     0.000006689648
      15       -0.000027936527    -0.000019292996    -0.000002242216
      16       -0.000020644499     0.000004467025    -0.000005318479
      17        0.000001372904     0.000002408516     0.000007843900
      18       -0.000000016633     0.000002417848    -0.000008711205

  **** Optimization is complete! (in 3 steps) ****
    Final optimized geometry and variables:
    Molecular point group: c1

    Geometry (in Angstrom), charge = 0, multiplicity = 1:

    H            2.857480766853    -0.449210528833     0.947158341514
    C            2.403794611067    -0.020718245515     0.061456407215
    N            0.988312099254    -0.293845224374     0.056515621561
    H            2.871651613798    -0.471114200263    -0.804287454227
    H            2.629812206168     1.049083311861     0.059210637944
    C            0.353930609355     0.043647892697    -1.200416120225
    C            0.299693730089     0.326507614237     1.168018363508
    H            0.445245418756     1.111414993101    -1.423448515871
    H            0.838398084324    -0.501807293119    -2.001791781496
    C           -1.115503510282    -0.329960518800    -1.155261082003
    H            0.746533470343    -0.009703000687     2.096792555445
    H            0.388234776595     1.416876834858     1.134250109126
    C           -1.168463977591    -0.053589614428     1.148438073924
    H           -1.619083141804     0.003080468327    -2.052055039354
    H           -1.213178348597    -1.411636312163    -1.086255041789
    O           -1.758407358383     0.276752812918    -0.073759160971
    H           -1.708943419174     0.480771347602     1.917286039600
    H           -1.270259147201    -1.121059003595     1.333747732865

  Mulliken Charges: (a.u.)
   Center  Symbol    Alpha    Beta     Spin     Total
       1     H     0.45122  0.45122  0.00000  0.09755
       2     C     3.09482  3.09482  0.00000 -0.18963
       3     N     3.61699  3.61699  0.00000 -0.23399
       4     H     0.45201  0.45201  0.00000  0.09598
       5     H     0.46934  0.46934  0.00000  0.06131
       6     C     3.04014  3.04014  0.00000 -0.08028
       7     C     3.04116  3.04116  0.00000 -0.08231
       8     H     0.46942  0.46942  0.00000  0.06115
       9     H     0.45391  0.45391  0.00000  0.09217
      10     C     2.98366  2.98366  0.00000  0.03267
      11     H     0.45417  0.45417  0.00000  0.09165
      12     H     0.46853  0.46853  0.00000  0.06293
      13     C     2.98336  2.98336  0.00000  0.03328
      14     H     0.44975  0.44975  0.00000  0.10050
      15     H     0.46765  0.46765  0.00000  0.06470
      16     O     4.18647  4.18647  0.00000 -0.37293
      17     H     0.44979  0.44979  0.00000  0.10043
      18     H     0.46759  0.46759  0.00000  0.06482

   Total alpha = 28.00000, Total beta = 28.00000, Total charge =  0.00000

*** Psi4 exiting successfully. Buy a developer a beer!
