                              Psi4 1.0.54 Driver

  ==> Input File <==

--------------------------------------------------------------------------
set {
	reference rhf
	basis cc-pvtz
}

set_num_threads( 4 )
memory 2 gb

molecule MOL {
0 1

H	 -3.941973	 0.934228	 -0.390224
C	 -3.240162	 0.342701	 0.161016
C	 -2.105997	 -0.000418	 -0.398703
H	 -3.485368	 0.047206	 1.162193
O	 -1.189946	 -0.765863	 0.237511
H	 -1.846458	 0.297311	 -1.398265
C	 0.026572	 -0.995256	 -0.379403
C	 1.057223	 0.049888	 -0.004615
H	 -0.054361	 -1.010670	 -1.459674
H	 0.397526	 -1.952058	 -0.044198
F	 2.217563	 -0.264521	 -0.544836
F	 0.724642	 1.246009	 -0.440723
F	 1.226423	 0.132252	 1.292707

	symmetry c1
}
set optking {
	frozen_dihedral = ("
		11 8 7 9
	")
}

ee,wfn = optimize('scf', return_wfn=True)
oeprop( wfn, 'DIPOLE', 'QUADRUPOLE', 'MULLIKEN_CHARGES')
f=open( 'psi4out.xyz', 'w' )
f.write( "13  " )
f.write( str(ee) + "\n" )
f.write( MOL.save_string_xyz() )
f.close()
--------------------------------------------------------------------------

    Molecular point group: c1
  Charge       = 0
  Multiplicity = 1
  Basis Set: CC-PVTZ
  Basis Set:
  @DF-RHF Final Energy:  -527.74204812096366
    Total Energy =                       -527.7420481209637728
    Molecular point group: c1
  Basis Set: CC-PVTZ
  Basis Set:
  Basis Set: CC-PVTZ
  Basis Set:
  @DF-RHF Final Energy:  -527.74205096946878
    Total Energy =                       -527.7420509694690054
  Basis Set: CC-PVTZ
  Basis Set:
  Charge       = 0
  Multiplicity = 1
  Basis Set: CC-PVTZ
  Basis Set:

    Orbital Energies (a.u.)
    -----------------------

    Doubly Occupied:

       1A    -26.341815     2A    -26.340758     3A    -26.337865
       4A    -20.604022     5A    -11.497840     6A    -11.320205
       7A    -11.298713     8A    -11.213898     9A     -1.750467
      10A     -1.647045    11A     -1.645299    12A     -1.444637
      13A     -1.088204    14A     -1.020661    15A     -0.932271
      16A     -0.843848    17A     -0.839688    18A     -0.827047
      19A     -0.798518    20A     -0.728704    21A     -0.719178
      22A     -0.703894    23A     -0.681899    24A     -0.668107
      25A     -0.661663    26A     -0.650918    27A     -0.640781
      28A     -0.588097    29A     -0.566418    30A     -0.528934
      31A     -0.518566    32A     -0.356668

  @DF-RHF Final Energy:  -527.74205185764481

   => Energetics <=

    Nuclear Repulsion Energy =            413.5268041076090526
    One-Electron Energy =               -1550.9244497066697477
    Two-Electron Energy =                 609.6555937414161690
    DFT Exchange-Correlation Energy =       0.0000000000000000
    Empirical Dispersion Energy =           0.0000000000000000
    PCM Polarization Energy =               0.0000000000000000
    EFP Energy =                            0.0000000000000000
    Total Energy =                       -527.7420518576445829
    Molecular point group: c1
  Basis Set: CC-PVTZ
  Basis Set:

  -Total Gradient:
     Atom            X                  Y                   Z
    ------   -----------------  -----------------  -----------------
       1       -0.000005903230    -0.000008790521    -0.000003504119
       2        0.000007473067    -0.000006197566     0.000001408883
       3       -0.000063627970     0.000040295062    -0.000004604740
       4       -0.000001353464    -0.000002878191    -0.000000182621
       5        0.000086513486    -0.000015837647    -0.000054042427
       6        0.000002995254    -0.000012629643    -0.000003769145
       7        0.000586268420    -0.000683574614     0.000173474709
       8       -0.000270019162     0.000477233703    -0.000553917772
       9       -0.000515456500     0.000488549967     0.000008224366
      10        0.000021268106     0.000002945440     0.000005161277
      11        0.000142450708    -0.000314534028     0.000413186022
      12        0.000033368936     0.000027625378    -0.000000884427
      13       -0.000023977649     0.000007792657     0.000019449993

  **** Optimization is complete! (in 3 steps) ****
    Final optimized geometry and variables:
    Molecular point group: c1

    Geometry (in Angstrom), charge = 0, multiplicity = 1:

    H           -3.939956672162     0.939988605822    -0.384334211594
    C           -3.238466641133     0.347183429544     0.165961641541
    C           -2.105843968964     0.001729339482    -0.395569180046
    H           -3.482693045215     0.052212308682     1.167540820630
    O           -1.190213930924    -0.765324820548     0.239097755171
    H           -1.847540036155     0.299034247009    -1.395621494033
    C            0.025455640019    -0.996431637926    -0.379219466102
    C            1.056817244997     0.049095967219    -0.006728016575
    H           -0.060180559310    -1.008810907081    -1.459236632387
    H            0.395926541092    -1.953453380480    -0.044599808236
    F            2.214852569275    -0.262697158183    -0.553271854572
    F            0.720564523755     1.246519148295    -0.436883232685
    F            1.232626823727     0.127139005650     1.289923602930

  Mulliken Charges: (a.u.)
   Center  Symbol    Alpha    Beta     Spin     Total
       1     H     0.42514  0.42514  0.00000  0.14972
       2     C     3.19743  3.19743  0.00000 -0.39485
       3     C     2.95905  2.95905  0.00000  0.08190
       4     H     0.42471  0.42471  0.00000  0.15058
       5     O     4.14438  4.14438  0.00000 -0.28877
       6     H     0.43449  0.43449  0.00000  0.13102
       7     C     3.01884  3.01884  0.00000 -0.03767
       8     C     2.67573  2.67573  0.00000  0.64854
       9     H     0.45537  0.45537  0.00000  0.08925
      10     H     0.43502  0.43502  0.00000  0.12995
      11     F     4.61253  4.61253  0.00000 -0.22506
      12     F     4.61065  4.61065  0.00000 -0.22129
      13     F     4.60666  4.60666  0.00000 -0.21331

   Total alpha = 32.00000, Total beta = 32.00000, Total charge = -0.00000

*** Psi4 exiting successfully. Buy a developer a beer!
