  ==> Input File <==

--------------------------------------------------------------------------
set {
	reference rhf
	basis cc-pvtz
}

set_num_threads( 4 )
memory 2 gb

molecule MOL {
0 1

O	 -2.440701	 -0.934798	 -0.415053
C	 -1.922978	 0.063265	 -0.045005
C	 -2.632749	 1.372204	 0.158357
O	 -0.637375	 0.157174	 0.243149
H	 -2.187724	 2.129143	 -0.474664
H	 -3.677681	 1.257276	 -0.079438
H	 -2.516788	 1.693160	 1.185542
C	 0.162530	 -1.009518	 0.097799
C	 1.587210	 -0.664190	 0.477086
H	 0.096803	 -1.356267	 -0.924704
H	 -0.233803	 -1.785900	 0.736810
C	 2.256770	 0.342732	 -0.454344
H	 2.154716	 -1.590834	 0.479041
H	 1.598751	 -0.289614	 1.496104
C	 3.265921	 1.230110	 0.266622
H	 2.755775	 -0.192388	 -1.257922
H	 1.498290	 0.961099	 -0.920363
H	 3.728593	 1.931681	 -0.417570
H	 4.055996	 0.640071	 0.719421
H	 2.789532	 1.803106	 1.055130

	symmetry c1
}
set optking {
	frozen_dihedral = ("
		16 12 9 8
	")
}

ee = optimize('scf')
oeprop('DIPOLE', 'QUADRUPOLE', 'MULLIKEN_CHARGES')
f=open( 'psi4out.xyz', 'w' )
f.write( "20  " )
f.write( str(ee) + "\n" )
f.write( MOL.save_string_xyz() )
f.close()
--------------------------------------------------------------------------

    Molecular point group: c1
  Charge       = 0
  Multiplicity = 1
  Basis Set: CC-PVTZ
  Basis Set:
  @DF-RHF Final Energy:  -384.08452378672723
    Total Energy =                       -384.0845237867270043
    Molecular point group: c1
  Basis Set: CC-PVTZ
  Basis Set:
  Basis Set: CC-PVTZ
  Basis Set:
  @DF-RHF Final Energy:  -384.08475332717569
    Total Energy =                       -384.0847533271758039
  Basis Set: CC-PVTZ
  Basis Set:
  Basis Set: CC-PVTZ
  Basis Set:
  @DF-RHF Final Energy:  -384.08462429008915
    Total Energy =                       -384.0846242900890957
  Basis Set: CC-PVTZ
  Basis Set:
  Basis Set: CC-PVTZ
  Basis Set:
  @DF-RHF Final Energy:  -384.08480474529375
    Total Energy =                       -384.0848047452934679
  Basis Set: CC-PVTZ
  Basis Set:
  Charge       = 0
  Multiplicity = 1
  Basis Set: CC-PVTZ
  Basis Set:

    Orbital Energies (a.u.)
    -----------------------

    Doubly Occupied:

       1A    -20.594792     2A    -20.532940     3A    -11.366999
       4A    -11.280295     5A    -11.231951     6A    -11.223264
       7A    -11.218840     8A    -11.210992     9A     -1.471458
      10A     -1.365638    11A     -1.085864    12A     -1.029093
      13A     -0.982167    14A     -0.880957    15A     -0.811084
      16A     -0.778453    17A     -0.693236    18A     -0.686350
      19A     -0.670242    20A     -0.629571    21A     -0.604772
      22A     -0.594046    23A     -0.574854    24A     -0.552721
      25A     -0.539142    26A     -0.536199    27A     -0.514725
      28A     -0.482414    29A     -0.474829    30A     -0.472538
      31A     -0.451795    32A     -0.442282

  @DF-RHF Final Energy:  -384.08480489951967

   => Energetics <=

    Nuclear Repulsion Energy =            387.1202789901533379
    One-Electron Energy =               -1290.4411634500570472
    Two-Electron Energy =                 519.2360795603838142
    DFT Exchange-Correlation Energy =       0.0000000000000000
    Empirical Dispersion Energy =           0.0000000000000000
    PCM Polarization Energy =               0.0000000000000000
    EFP Energy =                            0.0000000000000000
    Total Energy =                       -384.0848048995198951
    Molecular point group: c1
  Basis Set: CC-PVTZ
  Basis Set:

  -Total Gradient:
     Atom            X                  Y                   Z
    ------   -----------------  -----------------  -----------------
       1        0.000005727250    -0.000008454985     0.000001040371
       2        0.000032438639     0.000021485610    -0.000062913329
       3       -0.000005349534    -0.000002571334     0.000020310688
       4        0.000066507153     0.000014524033    -0.000097064041
       5        0.000003448726    -0.000007343313     0.000003346604
       6        0.000001046058    -0.000002855557     0.000003184801
       7       -0.000004806338     0.000006601225     0.000005529228
       8       -0.001096849538     0.002159786576     0.001906794630
       9        0.002171750543    -0.003115460884    -0.001923336389
      10       -0.000029214964     0.000037487566    -0.000040418231
      11        0.000040559458    -0.000026023539    -0.000038279759
      12       -0.004422628411     0.001061223374    -0.001982303827
      13        0.000011462270     0.000018234322    -0.000027789057
      14        0.000004056466     0.000017307299    -0.000001957754
      15       -0.000017925491    -0.000009790869     0.000011748574
      16        0.003275734106    -0.000166826178     0.002192183013
      17       -0.000058201465    -0.000021150643     0.000018193046
      18        0.000008090357     0.000001348175    -0.000003178661
      19        0.000001961118     0.000008207312     0.000010338985
      20        0.000012193589     0.000014271813     0.000004571108

  **** Optimization is complete! (in 5 steps) ****
    Final optimized geometry and variables:
    Molecular point group: c1

    Geometry (in Angstrom), charge = 0, multiplicity = 1:

    O           -2.379261457440    -1.005691121585    -0.490896027007
    C           -1.869384386882    -0.015359303335    -0.090826604370
    C           -2.584914146600     1.286987067471     0.131861046795
    O           -0.587905716789     0.074600272327     0.217088068219
    H           -2.133525072681     2.058526008723    -0.478572839400
    H           -3.626361331427     1.174989726383    -0.122078123979
    H           -2.483019713351     1.585380703798     1.167242816706
    C            0.216274847393    -1.087005617132     0.058996783671
    C            1.637227925932    -0.730696029834     0.444525764303
    H            0.149888468905    -1.423884230447    -0.967037859935
    H           -0.175189324821    -1.871823284428     0.690616686247
    C            2.310418163919     0.277308713294    -0.496202179255
    H            2.216147261797    -1.647177152697     0.487698485745
    H            1.614178021132    -0.332080116295     1.453831258775
    C            3.341677912507     1.148122731744     0.217012334059
    H            2.817125696099    -0.259989574448    -1.291814690112
    H            1.562809972420     0.911649717965    -0.955666228831
    H            3.837357004108     1.816487358589    -0.477577861853
    H            4.105283865192     0.541073288216     0.692742677357
    H            2.875091299486     1.753575163429     0.986465546580

  Mulliken Charges: (a.u.)
   Center  Symbol    Alpha    Beta     Spin     Total
       1     O     4.19698  4.19698  0.00000 -0.39397
       2     C     2.80888  2.80888  0.00000  0.38224
       3     C     3.13810  3.13810  0.00000 -0.27620
       4     O     4.15319  4.15319  0.00000 -0.30639
       5     H     0.44626  0.44626  0.00000  0.10748
       6     H     0.43784  0.43784  0.00000  0.12433
       7     H     0.44567  0.44567  0.00000  0.10866
       8     C     2.99326  2.99326  0.00000  0.01348
       9     C     3.08625  3.08625  0.00000 -0.17250
      10     H     0.45073  0.45073  0.00000  0.09855
      11     H     0.44447  0.44447  0.00000  0.11106
      12     C     3.08586  3.08586  0.00000 -0.17171
      13     H     0.44845  0.44845  0.00000  0.10310
      14     H     0.45415  0.45415  0.00000  0.09170
      15     C     3.14896  3.14896  0.00000 -0.29792
      16     H     0.45283  0.45283  0.00000  0.09434
      17     H     0.45038  0.45038  0.00000  0.09925
      18     H     0.44866  0.44866  0.00000  0.10268
      19     H     0.45501  0.45501  0.00000  0.08999
      20     H     0.45409  0.45409  0.00000  0.09182

   Total alpha = 32.00000, Total beta = 32.00000, Total charge = -0.00000
