  ==> Input File <==

--------------------------------------------------------------------------
set {
	reference rhf
	basis cc-pvtz
}

set_num_threads( 4 )
memory 2 gb

molecule MOL {
0 1

H	 -3.162190	 0.493205	 -0.000107
C	 -2.363908	 -0.234727	 0.000005
O	 -1.158738	 0.454634	 -0.000087
H	 -2.464314	 -0.863616	 -0.882153
H	 -2.464327	 -0.863359	 0.882345
C	 -0.028611	 -0.359694	 0.000037
C	 -0.459923	 -1.812166	 -0.026190
H	 0.574069	 -0.162683	 0.886942
H	 0.593041	 -0.136622	 -0.867390
C	 0.724973	 -2.771525	 -0.027643
H	 -1.091938	 -2.000414	 0.834650
H	 -1.073066	 -1.974564	 -0.905756
H	 1.339301	 -2.642440	 0.857244
H	 0.388556	 -3.800841	 -0.046431
H	 1.358127	 -2.616623	 -0.894932

	symmetry c1
}
set optking {
	frozen_dihedral = ("
		8 6 3 2
	")
}

ee = optimize('scf')
oeprop('DIPOLE', 'QUADRUPOLE', 'MULLIKEN_CHARGES')
f=open( 'psi4out.xyz', 'w' )
f.write( "15  " )
f.write( str(ee) + "\n" )
f.write( MOL.save_string_xyz() )
f.close()
--------------------------------------------------------------------------

    Molecular point group: c1
  Charge       = 0
  Multiplicity = 1
  Basis Set: CC-PVTZ
  Basis Set:
  @DF-RHF Final Energy:  -232.19955382208479
    Total Energy =                       -232.1995538220846811
    Molecular point group: c1
  Basis Set: CC-PVTZ
  Basis Set:
  Basis Set: CC-PVTZ
  Basis Set:
  @DF-RHF Final Energy:  -232.20456090076465
    Total Energy =                       -232.2045609007646476
  Basis Set: CC-PVTZ
  Basis Set:
  Basis Set: CC-PVTZ
  Basis Set:
  @DF-RHF Final Energy:  -232.21230256164074
    Total Energy =                       -232.2123025616406835
  Basis Set: CC-PVTZ
  Basis Set:
  Basis Set: CC-PVTZ
  Basis Set:
  @DF-RHF Final Energy:  -232.21553908826891
    Total Energy =                       -232.2155390882687129
  Basis Set: CC-PVTZ
  Basis Set:
  @DF-RHF Final Energy:  -232.21608955937214
    Total Energy =                       -232.2160895593721079
  Basis Set: CC-PVTZ
  Basis Set:
  @DF-RHF Final Energy:  -232.21694143083587
    Total Energy =                       -232.2169414308359592
  Basis Set: CC-PVTZ
  Basis Set:
  Basis Set: CC-PVTZ
  Basis Set:
  @DF-RHF Final Energy:  -232.21710480597685
    Total Energy =                       -232.2171048059767600
  Basis Set: CC-PVTZ
  Basis Set:
  Basis Set: CC-PVTZ
  Basis Set:
  @DF-RHF Final Energy:  -232.21711950202348
    Total Energy =                       -232.2171195020234222
  Basis Set: CC-PVTZ
  Basis Set:
  Charge       = 0
  Multiplicity = 1
  Basis Set: CC-PVTZ
  Basis Set:

    Orbital Energies (a.u.)
    -----------------------

    Doubly Occupied:

       1A    -20.539834     2A    -11.264128     3A    -11.259944
       4A    -11.220942     5A    -11.215346     6A     -1.368925
       7A     -1.060622     8A     -0.962947     9A     -0.886316
      10A     -0.797035    11A     -0.673079    12A     -0.660492
      13A     -0.626327    14A     -0.607279    15A     -0.554057
      16A     -0.548088    17A     -0.523405    18A     -0.500552
      19A     -0.493212    20A     -0.443987    21A     -0.402885

  @DF-RHF Final Energy:  -232.21712029058247

   => Energetics <=

    Nuclear Repulsion Energy =            192.1588989909908207
    One-Electron Energy =                -695.5332293847786787
    Two-Electron Energy =                 271.1572101032053865
    DFT Exchange-Correlation Energy =       0.0000000000000000
    Empirical Dispersion Energy =           0.0000000000000000
    PCM Polarization Energy =               0.0000000000000000
    EFP Energy =                            0.0000000000000000
    Total Energy =                       -232.2171202905824998
    Molecular point group: c1
  Basis Set: CC-PVTZ
  Basis Set:

  -Total Gradient:
     Atom            X                  Y                   Z
    ------   -----------------  -----------------  -----------------
       1        0.000027875842     0.000003621795    -0.000001391475
       2       -0.000005027580    -0.000066379329    -0.000710530068
       3        0.000142169149     0.000209805055     0.000999721437
       4       -0.000005977296     0.000002547801    -0.000004507086
       5       -0.000023200037     0.000011787357    -0.000009380109
       6       -0.000577866554    -0.000708136455     0.000156502792
       7        0.000018892695    -0.000021731746     0.000029305738
       8        0.000435388985     0.000568438281    -0.000436340592
       9       -0.000014587214     0.000021309917    -0.000006146520
      10       -0.000016125176    -0.000013422645    -0.000011355979
      11        0.000007276481    -0.000002004638    -0.000009365896
      12       -0.000000584692     0.000002524001     0.000006183561
      13       -0.000003394457    -0.000001338693    -0.000000890410
      14        0.000010543292    -0.000006061367    -0.000003494167
      15        0.000004616562    -0.000000959330     0.000001688776

  **** Optimization is complete! (in 9 steps) ****
    Final optimized geometry and variables:
    Molecular point group: c1

    Geometry (in Angstrom), charge = 0, multiplicity = 1:

    H           -2.451347354404     1.788771021300     0.003865570737
    C           -1.817694392322     0.913579539170     0.025353998605
    O           -0.506630288403     1.375088859932    -0.000265683628
    H           -2.061384669835     0.298615608347    -0.835095880943
    H           -2.045629381663     0.353827894193     0.927548550104
    C            0.579729217255     0.483501184839     0.010813538089
    C            0.274455717286    -1.008270991152    -0.026532579130
    H            1.168811638970     0.700973818838     0.897225174921
    H            1.199824412981     0.731326474352    -0.845273711490
    C            1.565649614004    -1.821599114617    -0.011796281753
    H           -0.335023705079    -1.290988064702     0.824152436185
    H           -0.291381070347    -1.253045114831    -0.918305075922
    H            2.144489002061    -1.624289510935     0.883874360442
    H            1.353619695603    -2.883348211038    -0.040737915244
    H            2.189032077481    -1.585524291614    -0.867302399961

  Mulliken Charges: (a.u.)
   Center  Symbol    Alpha    Beta     Spin     Total
       1     H     0.44152  0.44152  0.00000  0.11695
       2     C     3.03632  3.03632  0.00000 -0.07265
       3     O     4.18213  4.18213  0.00000 -0.36425
       4     H     0.47073  0.47073  0.00000  0.05853
       5     H     0.47122  0.47122  0.00000  0.05756
       6     C     2.95550  2.95550  0.00000  0.08899
       7     C     3.10527  3.10527  0.00000 -0.21053
       8     H     0.46604  0.46604  0.00000  0.06793
       9     H     0.46480  0.46480  0.00000  0.07041
      10     C     3.15236  3.15236  0.00000 -0.30471
      11     H     0.45036  0.45036  0.00000  0.09928
      12     H     0.45023  0.45023  0.00000  0.09955
      13     H     0.45367  0.45367  0.00000  0.09265
      14     H     0.44627  0.44627  0.00000  0.10746
      15     H     0.45358  0.45358  0.00000  0.09283

   Total alpha = 21.00000, Total beta = 21.00000, Total charge = -0.00000
