  ==> Input File <==

--------------------------------------------------------------------------
set {
	reference rhf
	basis 6-31G*
}

set_num_threads( 4 )
memory 2 gb

molecule MOL {
0 1

H	 3.950492	 4.044692	 -1.648489
C	 3.041285	 3.855725	 -2.210768
C	 2.192655	 2.775200	 -1.541836
H	 2.495187	 4.791782	 -2.280872
H	 3.329244	 3.563888	 -3.217103
C	 0.904840	 2.478989	 -2.313591
H	 1.945725	 3.087377	 -0.532295
H	 2.777978	 1.861164	 -1.454505
C	 0.043011	 1.388168	 -1.677489
H	 0.316928	 3.385759	 -2.401748
H	 1.159875	 2.167283	 -3.323956
C	 -0.639711	 1.804081	 -0.382827
H	 -0.749029	 1.097516	 -2.365940
H	 0.625004	 0.486219	 -1.501567
C	 -1.181045	 0.701995	 0.511084
O	 -0.765366	 2.953280	 -0.082894
C	 -2.285934	 -0.139295	 -0.145128
H	 -1.556299	 1.178084	 1.408992
H	 -0.355995	 0.052473	 0.797611
C	 -3.651768	 0.085446	 0.506485
H	 -2.346596	 0.110469	 -1.202272
H	 -2.034737	 -1.195320	 -0.088721
C	 -4.759797	 -0.746382	 -0.137905
H	 -3.908762	 1.140117	 0.445781
H	 -3.588286	 -0.154158	 1.565709
H	 -4.868882	 -0.505166	 -1.191300
H	 -4.548009	 -1.809175	 -0.062213
H	 -5.715422	 -0.564821	 0.343442

	symmetry c1
}
set optking {
	frozen_dihedral = ("
		12 15 17 21
	")
}

ee = optimize('scf')
oeprop('DIPOLE', 'QUADRUPOLE', 'MULLIKEN_CHARGES')
f=open( 'psi4out.xyz', 'w' )
f.write( "28  " )
f.write( str(ee) + "\n" )
f.write( MOL.save_string_xyz() )
f.close()
--------------------------------------------------------------------------

    Molecular point group: c1
  Charge       = 0
  Multiplicity = 1
  Basis Set: 6-31G*
  Basis Set:
  @DF-RHF Final Energy:  -426.16330763754058
    Total Energy =                       -426.1633076375409246
    Molecular point group: c1
  Basis Set: 6-31G*
  Basis Set:
  Basis Set: 6-31G*
  Basis Set:
  @DF-RHF Final Energy:  -426.16245259249104
    Total Energy =                       -426.1624525924908085
  Basis Set: 6-31G*
  Basis Set:
  Basis Set: 6-31G*
  Basis Set:
  @DF-RHF Final Energy:  -426.16157320315108
    Total Energy =                       -426.1615732031505104
  Basis Set: 6-31G*
  Basis Set:
  Basis Set: 6-31G*
  Basis Set:
  @DF-RHF Final Energy:  -426.16385246801065
    Total Energy =                       -426.1638524680104183
  Basis Set: 6-31G*
  Basis Set:
  @DF-RHF Final Energy:  -426.16400994384526
    Total Energy =                       -426.1640099438458265
  @DF-RHF Final Energy:  -426.16419171205541
    Total Energy =                       -426.1641917120557537
  @DF-RHF Final Energy:  -426.16439055362400
    Total Energy =                       -426.1643905536243437
  @DF-RHF Final Energy:  -426.16447293189105
    Total Energy =                       -426.1644729318916234
  @DF-RHF Final Energy:  -426.16462416641878
    Total Energy =                       -426.1646241664185482
  Basis Set: 6-31G*
  Basis Set:
  @DF-RHF Final Energy:  -426.16468311880055
    Total Energy =                       -426.1646831188002125
  Basis Set: 6-31G*
  Basis Set:
  Basis Set: 6-31G*
  Basis Set:
  @DF-RHF Final Energy:  -426.16469406882140
    Total Energy =                       -426.1646940688212908
  Basis Set: 6-31G*
  Basis Set:
  Basis Set: 6-31G*
  Basis Set:
  @DF-RHF Final Energy:  -426.16469680761838
    Total Energy =                       -426.1646968076183839
  Basis Set: 6-31G*
  Basis Set:
  Charge       = 0
  Multiplicity = 1
  Basis Set: 6-31G*
  Basis Set:

    Orbital Energies (a.u.)
    -----------------------

    Doubly Occupied:

       1A    -20.547631     2A    -11.322553     3A    -11.231233
       4A    -11.231006     5A    -11.228206     6A    -11.220344
       7A    -11.216356     8A    -11.212000     9A    -11.209949
      10A    -11.204457    11A     -1.393114    12A     -1.090629
      13A     -1.076301    14A     -1.021405    15A     -0.988765
      16A     -0.908036    17A     -0.869399    18A     -0.806778
      19A     -0.797115    20A     -0.726360    21A     -0.671156
      22A     -0.643017    23A     -0.624981    24A     -0.616513
      25A     -0.606898    26A     -0.584758    27A     -0.579233
      28A     -0.571645    29A     -0.536283    30A     -0.533526
      31A     -0.528015    32A     -0.511063    33A     -0.497773
      34A     -0.478208    35A     -0.476451    36A     -0.470792
      37A     -0.464925    38A     -0.462461    39A     -0.455159
      40A     -0.391657

  @DF-RHF Final Energy:  -426.16469739548461

   => Energetics <=

    Nuclear Repulsion Energy =            534.0266212693165926
    One-Electron Energy =               -1636.3703409067165921
    Two-Electron Energy =                 676.1790222419155043
    DFT Exchange-Correlation Energy =       0.0000000000000000
    Empirical Dispersion Energy =           0.0000000000000000
    PCM Polarization Energy =               0.0000000000000000
    EFP Energy =                            0.0000000000000000
    Total Energy =                       -426.1646973954844952
    Molecular point group: c1
  Basis Set: 6-31G*
  Basis Set:

  -Total Gradient:
     Atom            X                  Y                   Z
    ------   -----------------  -----------------  -----------------
       1       -0.000002362527    -0.000000358609     0.000000483611
       2       -0.000000465419    -0.000004027753    -0.000006475739
       3       -0.000004187036     0.000001883928     0.000019054290
       4       -0.000000198424     0.000003705577    -0.000002133407
       5        0.000000408901     0.000001145300     0.000000370862
       6        0.000001056997    -0.000010409959     0.000008729485
       7        0.000002274793    -0.000004325882    -0.000010873704
       8        0.000002037794    -0.000000813076     0.000002233282
       9       -0.000034212882    -0.000003658132    -0.000028505203
      10       -0.000010406344     0.000008922946    -0.000002903518
      11       -0.000006792817    -0.000003060309     0.000000875325
      12        0.000672024257    -0.000863996509    -0.000778866571
      13        0.000011806598     0.000007994575     0.000010272676
      14        0.000015345989    -0.000001826762     0.000014448304
      15       -0.001159711920     0.001522601376     0.001225122718
      16        0.000035287270    -0.000007030825     0.000011183945
      17        0.001379195215    -0.002095358964    -0.001260577951
      18       -0.000004672823    -0.000002707327     0.000002058668
      19        0.000013447419     0.000006799049     0.000012747509
      20       -0.000003814015     0.000008627954    -0.000012345990
      21       -0.000901173886     0.001441428906     0.000800480012
      22       -0.000007233833    -0.000003185713    -0.000008727955
      23       -0.000000862082    -0.000009382597     0.000004324085
      24       -0.000000183736     0.000004828831     0.000000914704
      25        0.000004777085     0.000003731748    -0.000001467273
      26        0.000001244763     0.000000499883     0.000001963940
      27       -0.000002147318    -0.000000869224    -0.000002439293
      28       -0.000000482026    -0.000001158435     0.000000053185

  **** Optimization is complete! (in 13 steps) ****
    Final optimized geometry and variables:
    Molecular point group: c1

    Geometry (in Angstrom), charge = 0, multiplicity = 1:

    H            4.127419227299     3.304626756113    -0.987615342013
    C            3.392121097908     2.741472770632    -1.553952549229
    C            2.834732538949     1.579613253295    -0.732680474556
    H            2.602084507546     3.428025188471    -1.843850530353
    H            3.873714830735     2.388154143198    -2.461869768506
    C            1.802610766843     0.756790690092    -1.507435570174
    H            2.382610115608     1.963090898518     0.174885731832
    H            3.653880229374     0.929997043379    -0.428039671665
    C            1.232558838599    -0.421183690979    -0.718183566600
    H            0.987785290508     1.400449387801    -1.822518113438
    H            2.266036691058     0.370000145769    -2.412310172714
    C            0.237639432518    -0.046090453111     0.365893992926
    H            0.726204680837    -1.118841822773    -1.384434271931
    H            2.031034333149    -0.997994140748    -0.253908076753
    C           -0.391346176585    -1.190675919107     1.140403449711
    O           -0.082817151270     1.084784001764     0.579073552465
    C           -1.722303747705    -1.645649933489     0.482539984932
    H           -0.573733618259    -0.841045693695     2.149308319990
    H            0.302410061285    -2.022759621545     1.199142738027
    C           -2.948724664409    -1.294586521919     1.328617409444
    H           -1.839048161236    -1.172536246603    -0.489522670744
    H           -1.697931118521    -2.716121630631     0.303830517254
    C           -4.262100319316    -1.712285765006     0.670015119252
    H           -2.953571463323    -0.223447207326     1.511264799148
    H           -2.861466775159    -1.774001552375     2.301131568985
    H           -4.394723442233    -1.218944505794    -0.288676463541
    H           -4.292556535156    -2.784624012177     0.497266253457
    H           -5.111711290731    -1.454032162530     1.294089454798

  Mulliken Charges: (a.u.)
   Center  Symbol    Alpha    Beta     Spin     Total
       1     H     0.41940  0.41940  0.00000  0.16120
       2     C     3.24034  3.24034  0.00000 -0.48068
       3     C     3.15605  3.15605  0.00000 -0.31210
       4     H     0.41890  0.41890  0.00000  0.16221
       5     H     0.42422  0.42422  0.00000  0.15157
       6     C     3.14866  3.14866  0.00000 -0.29731
       7     H     0.40611  0.40611  0.00000  0.18779
       8     H     0.42824  0.42824  0.00000  0.14352
       9     C     3.21289  3.21289  0.00000 -0.42578
      10     H     0.40997  0.40997  0.00000  0.18005
      11     H     0.42209  0.42209  0.00000  0.15583
      12     C     2.73885  2.73885  0.00000  0.52231
      13     H     0.40628  0.40628  0.00000  0.18744
      14     H     0.40892  0.40892  0.00000  0.18216
      15     C     3.20088  3.20088  0.00000 -0.40177
      16     O     4.26697  4.26697  0.00000 -0.53394
      17     C     3.15886  3.15886  0.00000 -0.31772
      18     H     0.39896  0.39896  0.00000  0.20208
      19     H     0.41330  0.41330  0.00000  0.17339
      20     C     3.15464  3.15464  0.00000 -0.30927
      21     H     0.41584  0.41584  0.00000  0.16832
      22     H     0.41655  0.41655  0.00000  0.16690
      23     C     3.24156  3.24156  0.00000 -0.48311
      24     H     0.41049  0.41049  0.00000  0.17902
      25     H     0.42182  0.42182  0.00000  0.15636
      26     H     0.42001  0.42001  0.00000  0.15999
      27     H     0.42228  0.42228  0.00000  0.15545
      28     H     0.41695  0.41695  0.00000  0.16610

   Total alpha = 40.00000, Total beta = 40.00000, Total charge = -0.00000
