  ==> Input File <==

--------------------------------------------------------------------------
set {
	reference rhf
	basis cc-pvtz
}

set_num_threads( 4 )
memory 2 gb

molecule MOL {
0 1

H	 3.292904	 -0.434182	 0.037559
C	 2.235200	 -0.252117	 0.028647
C	 1.495681	 -0.542549	 -1.108056
C	 1.619082	 0.269603	 1.148345
H	 1.981654	 -0.947808	 -1.974306
C	 0.138586	 -0.310490	 -1.123661
H	 2.193627	 0.493242	 2.026046
C	 0.256065	 0.502115	 1.131155
H	 -0.449931	 -0.528392	 -1.992466
C	 -0.486398	 0.214248	 0.000000
H	 -0.229905	 0.907988	 1.999069
C	 -1.946525	 0.470130	 0.000000
O	 -2.779618	 -0.371226	 0.000000
H	 -2.227127	 1.528393	 0.000000

	symmetry c1
}
set optking {
	frozen_dihedral = ("
		8 10 12 14
	")
}

ee = optimize('scf')
oeprop('DIPOLE', 'QUADRUPOLE', 'MULLIKEN_CHARGES')
f=open( 'psi4out.xyz', 'w' )
f.write( "14  " )
f.write( str(ee) + "\n" )
f.write( MOL.save_string_xyz() )
f.close()
--------------------------------------------------------------------------

    Molecular point group: c1
  Charge       = 0
  Multiplicity = 1
  Basis Set: CC-PVTZ
  Basis Set:
  @DF-RHF Final Energy:  -343.53833220162608
    Total Energy =                       -343.5383322016260763
    Molecular point group: c1
  Basis Set: CC-PVTZ
  Basis Set:
  Basis Set: CC-PVTZ
  Basis Set:
  @DF-RHF Final Energy:  -343.53705099146350
    Total Energy =                       -343.5370509914637296
  Basis Set: CC-PVTZ
  Basis Set:
  Basis Set: CC-PVTZ
  Basis Set:
  @DF-RHF Final Energy:  -343.53887242980602
    Total Energy =                       -343.5388724298061334
  Basis Set: CC-PVTZ
  Basis Set:
  Basis Set: CC-PVTZ
  Basis Set:
  @DF-RHF Final Energy:  -343.53895454336032
    Total Energy =                       -343.5389545433604326
  Basis Set: CC-PVTZ
  Basis Set:
  Basis Set: CC-PVTZ
  Basis Set:
  @DF-RHF Final Energy:  -343.53895592779173
    Total Energy =                       -343.5389559277921308
  Basis Set: CC-PVTZ
  Basis Set:
  Charge       = 0
  Multiplicity = 1
  Basis Set: CC-PVTZ
  Basis Set:

    Orbital Energies (a.u.)
    -----------------------

    Doubly Occupied:

       1A    -20.562379     2A    -11.332016     3A    -11.250246
       4A    -11.246840     5A    -11.244912     6A    -11.243109
       7A    -11.242058     8A    -11.241071     9A     -1.416876
      10A     -1.174765    11A     -1.049071    12A     -1.033470
      13A     -0.890369    14A     -0.845206    15A     -0.797919
      16A     -0.725500    17A     -0.681000    18A     -0.657175
      19A     -0.642922    20A     -0.620748    21A     -0.604238
      22A     -0.542722    23A     -0.531532    24A     -0.516342
      25A     -0.506296    26A     -0.426336    27A     -0.352171
      28A     -0.351407

  @DF-RHF Final Energy:  -343.53895625158697

   => Energetics <=

    Nuclear Repulsion Energy =            323.4541692332485923
    One-Electron Energy =               -1106.5288538489724033
    Two-Electron Energy =                 439.5357283641368440
    DFT Exchange-Correlation Energy =       0.0000000000000000
    Empirical Dispersion Energy =           0.0000000000000000
    PCM Polarization Energy =               0.0000000000000000
    EFP Energy =                            0.0000000000000000
    Total Energy =                       -343.5389562515869102
    Molecular point group: c1
  Basis Set: CC-PVTZ
  Basis Set:

  -Total Gradient:
     Atom            X                  Y                   Z
    ------   -----------------  -----------------  -----------------
       1        0.000000484045    -0.000012048757    -0.000005079889
       2       -0.000000903007     0.000040572453     0.000075704349
       3       -0.000064648395     0.000006296329    -0.000042395319
       4        0.000090862720    -0.000031270725    -0.000036490004
       5        0.000008605943    -0.000003622481     0.000007812848
       6        0.000074003941    -0.000020902146    -0.000043621183
       7       -0.000004000391     0.000001548712    -0.000001489770
       8       -0.000727682763    -0.004287769509     0.001407816911
       9       -0.000001258484     0.000010356913     0.000012178192
      10        0.000897289511     0.006324155635    -0.003843253564
      11        0.000000780699     0.000002264948    -0.000001686934
      12       -0.000291095824    -0.002166513462     0.008043282503
      13        0.000010508241     0.000017196285    -0.000000451762
      14        0.000007053760     0.000119735804    -0.005572326379

  **** Optimization is complete! (in 6 steps) ****
    Final optimized geometry and variables:
    Molecular point group: c1

    Geometry (in Angstrom), charge = 0, multiplicity = 1:

    H            3.290550273438    -0.452355127033     0.033204761806
    C            2.235610052634    -0.256130880442     0.025369959737
    C            1.488717197690    -0.536039083140    -1.103796920391
    C            1.622319442092     0.270589485127     1.146238994158
    H            1.962318276214    -0.951645421688    -1.972261871929
    C            0.128620016984    -0.295244189474    -1.112074076470
    H            2.197412829328     0.476834662135     2.028228369525
    C            0.265469917571     0.530713406678     1.132897333950
    H           -0.457890572666    -0.536127448380    -1.977602226054
    C           -0.482427927062     0.255339459369     0.001397885878
    H           -0.208152511122     0.944221561123     2.004060925918
    C           -1.963002287729     0.475364901367     0.006383954759
    O           -2.755281099237    -0.396582210391    -0.081603509932
    H           -2.292576702181     1.519425375829     0.031454693194

  Mulliken Charges: (a.u.)
   Center  Symbol    Alpha    Beta     Spin     Total
       1     H     0.42073  0.42073  0.00000  0.15854
       2     C     3.08150  3.08150  0.00000 -0.16301
       3     C     3.06355  3.06355  0.00000 -0.12710
       4     C     3.06593  3.06593  0.00000 -0.13185
       5     H     0.42104  0.42104  0.00000  0.15792
       6     C     3.09390  3.09390  0.00000 -0.18780
       7     H     0.42092  0.42092  0.00000  0.15815
       8     C     3.09543  3.09543  0.00000 -0.19087
       9     H     0.41869  0.41869  0.00000  0.16261
      10     C     2.94768  2.94768  0.00000  0.10464
      11     H     0.42448  0.42448  0.00000  0.15105
      12     C     2.93232  2.93232  0.00000  0.13536
      13     O     4.15726  4.15726  0.00000 -0.31451
      14     H     0.45657  0.45657  0.00000  0.08687

   Total alpha = 28.00000, Total beta = 28.00000, Total charge = -0.00000
