  ==> Input File <==

--------------------------------------------------------------------------
set {
	reference rhf
	basis 6-31G*
}

set_num_threads( 4 )
memory 2 gb

molecule MOL {
0 1

H	 -0.944757	 -0.000069	 1.678017
O	 -0.042387	 -0.000390	 1.388199
C	 -0.001487	 0.000018	 -0.026623
C	 1.432387	 -0.250835	 -0.497491
C	 -0.947765	 -1.074062	 -0.566581
C	 -0.470591	 1.390913	 -0.438659
H	 1.505843	 -0.215100	 -1.579723
H	 1.779116	 -1.230006	 -0.175141
H	 2.099975	 0.495527	 -0.081213
H	 -0.969701	 -1.073328	 -1.651757
H	 -0.633273	 -2.063772	 -0.243315
H	 -1.954548	 -0.905445	 -0.200749
H	 -0.474920	 1.495737	 -1.518815
H	 0.184815	 2.146473	 -0.020256
H	 -1.473578	 1.572582	 -0.069325

	symmetry c1
}
set optking {
	frozen_dihedral = ("
		4 3 2 1
	")
}

ee = optimize('scf')
oeprop('DIPOLE', 'QUADRUPOLE', 'MULLIKEN_CHARGES')
f=open( 'psi4out.xyz', 'w' )
f.write( "15  " )
f.write( str(ee) + "\n" )
f.write( MOL.save_string_xyz() )
f.close()
--------------------------------------------------------------------------

    Molecular point group: c1
  Charge       = 0
  Multiplicity = 1
  Basis Set: 6-31G*
  Basis Set:
  @DF-RHF Final Energy:  -232.15100719257077
    Total Energy =                       -232.1510071925708303
    Molecular point group: c1
  Basis Set: 6-31G*
  Basis Set:
  Basis Set: 6-31G*
  Basis Set:
  @DF-RHF Final Energy:  -232.15280255472248
    Total Energy =                       -232.1528025547223706
  Basis Set: 6-31G*
  Basis Set:
  Basis Set: 6-31G*
  Basis Set:
  @DF-RHF Final Energy:  -232.15319015635467
    Total Energy =                       -232.1531901563545262
  Basis Set: 6-31G*
  Basis Set:
  Basis Set: 6-31G*
  Basis Set:
  @DF-RHF Final Energy:  -232.15316793763154
    Total Energy =                       -232.1531679376316220
  Basis Set: 6-31G*
  Basis Set:
  Basis Set: 6-31G*
  Basis Set:
  @DF-RHF Final Energy:  -232.15320025893510
    Total Energy =                       -232.1532002589349872
  Basis Set: 6-31G*
  Basis Set:
  Charge       = 0
  Multiplicity = 1
  Basis Set: 6-31G*
  Basis Set:

    Orbital Energies (a.u.)
    -----------------------

    Doubly Occupied:

       1A    -20.549010     2A    -11.281799     3A    -11.212910
       4A    -11.209312     5A    -11.205164     6A     -1.360583
       7A     -1.063313     8A     -0.941909     9A     -0.938912
      10A     -0.775603    11A     -0.670163    12A     -0.622514
      13A     -0.621145    14A     -0.574697    15A     -0.556804
      16A     -0.531518    17A     -0.516814    18A     -0.508954
      19A     -0.502988    20A     -0.457124    21A     -0.425150

  @DF-RHF Final Energy:  -232.15319986107482

   => Energetics <=

    Nuclear Repulsion Energy =            200.3624954337971644
    One-Electron Energy =                -711.9786148414334548
    Two-Electron Energy =                 279.4629195465612952
    DFT Exchange-Correlation Energy =       0.0000000000000000
    Empirical Dispersion Energy =           0.0000000000000000
    PCM Polarization Energy =               0.0000000000000000
    EFP Energy =                            0.0000000000000000
    Total Energy =                       -232.1531998610749952
    Molecular point group: c1
  Basis Set: 6-31G*
  Basis Set:

  -Total Gradient:
     Atom            X                  Y                   Z
    ------   -----------------  -----------------  -----------------
       1       -0.000009580691    -0.001075873707    -0.000083827483
       2       -0.000003609243     0.001190864240     0.000046792851
       3        0.000100811795     0.000593441162     0.000081811107
       4       -0.000129171198    -0.000626952160    -0.000087096948
       5        0.000024662118    -0.000001481471     0.000003084829
       6        0.000015659417    -0.000028449132     0.000042001612
       7        0.000013575819     0.000039302181     0.000018859664
       8       -0.000071182232    -0.000032298097    -0.000015858400
       9        0.000028153589    -0.000011614700     0.000029610696
      10       -0.000007162348    -0.000011205636    -0.000002891069
      11        0.000003990426    -0.000015834625    -0.000007440277
      12        0.000027232001     0.000011436630     0.000019847928
      13        0.000014676956     0.000009356649    -0.000040491632
      14       -0.000036628076    -0.000007492090     0.000001498105
      15        0.000028571668    -0.000033199241    -0.000005900984

  **** Optimization is complete! (in 6 steps) ****
    Final optimized geometry and variables:
    Molecular point group: c1

    Geometry (in Angstrom), charge = 0, multiplicity = 1:

    H           -0.851818592517    -0.060179560248     1.726701926816
    O            0.033036920383    -0.060329700346     1.387470693027
    C           -0.002323314901     0.004110610493    -0.026272799987
    C            1.431333575274    -0.256441871076    -0.475141159644
    C           -0.940353984890    -1.076655731873    -0.567509940266
    C           -0.467083904885     1.395271098104    -0.460182041404
    H            1.516297422375    -0.205454321737    -1.555863103870
    H            1.753658564334    -1.238346060693    -0.147534571286
    H            2.098968210032     0.479746582258    -0.041445030776
    H           -0.956077946803    -1.079010717933    -1.652563873352
    H           -0.623547972088    -2.056018312596    -0.225575886471
    H           -1.959540278756    -0.912004198819    -0.224380497178
    H           -0.470240238354     1.493708991099    -1.541364629518
    H            0.186999964836     2.154307530385    -0.045848460706
    H           -1.475877554844     1.591492702549    -0.105490152378

  Mulliken Charges: (a.u.)
   Center  Symbol    Alpha    Beta     Spin     Total
       1     H     0.28369  0.28369  0.00000  0.43262
       2     O     4.37624  4.37624  0.00000 -0.75247
       3     C     2.85304  2.85304  0.00000  0.29393
       4     C     3.23359  3.23359  0.00000 -0.46718
       5     C     3.24529  3.24529  0.00000 -0.49057
       6     C     3.23787  3.23787  0.00000 -0.47574
       7     H     0.42412  0.42412  0.00000  0.15176
       8     H     0.41404  0.41404  0.00000  0.17191
       9     H     0.41292  0.41292  0.00000  0.17417
      10     H     0.41938  0.41938  0.00000  0.16124
      11     H     0.41223  0.41223  0.00000  0.17555
      12     H     0.42647  0.42647  0.00000  0.14705
      13     H     0.42244  0.42244  0.00000  0.15513
      14     H     0.41237  0.41237  0.00000  0.17526
      15     H     0.42632  0.42632  0.00000  0.14735

   Total alpha = 21.00000, Total beta = 21.00000, Total charge = -0.00000
