  ==> Input File <==

--------------------------------------------------------------------------
set {
	reference rhf
	basis 6-31G*
}

set_num_threads( 4 )
memory 2 gb

molecule MOL {
0 1

H	 -2.499100	 -0.730091	 -0.745082
O	 -2.347518	 -0.290803	 0.079804
C	 -1.184022	 0.487508	 -0.006784
C	 0.062599	 -0.378592	 0.031606
H	 -1.176523	 1.099369	 -0.904519
H	 -1.187323	 1.153111	 0.844927
O	 1.171513	 0.459272	 -0.058250
H	 0.050699	 -1.089204	 -0.797170
H	 0.078739	 -0.954914	 0.954740
C	 1.267408	 1.401515	 0.962595
H	 1.348869	 0.924829	 1.937666
H	 2.158156	 1.987563	 0.783657
H	 0.404750	 2.064459	 0.973485

	symmetry c1
}
set optking {
	frozen_dihedral = ("
		10 7 4 8
	")
}

ee = optimize('scf')
oeprop('DIPOLE', 'QUADRUPOLE', 'MULLIKEN_CHARGES')
f=open( 'psi4out.xyz', 'w' )
f.write( "13  " )
f.write( str(ee) + "\n" )
f.write( MOL.save_string_xyz() )
f.close()
--------------------------------------------------------------------------

    Molecular point group: c1
  Charge       = 0
  Multiplicity = 1
  Basis Set: 6-31G*
  Basis Set:
  @DF-RHF Final Energy:  -267.94047108020595
    Total Energy =                       -267.9404710802062368
    Molecular point group: c1
  Basis Set: 6-31G*
  Basis Set:
  Basis Set: 6-31G*
  Basis Set:
  @DF-RHF Final Energy:  -267.94213118083303
    Total Energy =                       -267.9421311808329165
  Basis Set: 6-31G*
  Basis Set:
  Basis Set: 6-31G*
  Basis Set:
  @DF-RHF Final Energy:  -267.94596830028775
    Total Energy =                       -267.9459683002876318
  Basis Set: 6-31G*
  Basis Set:
  Basis Set: 6-31G*
  Basis Set:
  @DF-RHF Final Energy:  -267.94665090888338
    Total Energy =                       -267.9466509088834982
  Basis Set: 6-31G*
  Basis Set:
  Basis Set: 6-31G*
  Basis Set:
  @DF-RHF Final Energy:  -267.94672262264976
    Total Energy =                       -267.9467226226498724
  Basis Set: 6-31G*
  Basis Set:
  Basis Set: 6-31G*
  Basis Set:
  @DF-RHF Final Energy:  -267.94673362286284
    Total Energy =                       -267.9467336228628938
  Basis Set: 6-31G*
  Basis Set:
  Basis Set: 6-31G*
  Basis Set:
  @DF-RHF Final Energy:  -267.94673477077083
    Total Energy =                       -267.9467347707708313
  Basis Set: 6-31G*
  Basis Set:
  Charge       = 0
  Multiplicity = 1
  Basis Set: 6-31G*
  Basis Set:

    Orbital Energies (a.u.)
    -----------------------

    Doubly Occupied:

       1A    -20.563859     2A    -20.561377     3A    -11.273101
       4A    -11.271740     5A    -11.270307     6A     -1.385963
       7A     -1.368028     8A     -1.013242     9A     -0.933166
      10A     -0.832802    11A     -0.712623    12A     -0.674666
      13A     -0.657857    14A     -0.642045    15A     -0.596904
      16A     -0.566146    17A     -0.536523    18A     -0.519203
      19A     -0.471469    20A     -0.455791    21A     -0.407392

  @DF-RHF Final Energy:  -267.94673484875295

   => Energetics <=

    Nuclear Repulsion Energy =            192.5280277789450736
    One-Electron Energy =                -747.5211183712840466
    Two-Electron Energy =                 287.0463557435859911
    DFT Exchange-Correlation Energy =       0.0000000000000000
    Empirical Dispersion Energy =           0.0000000000000000
    PCM Polarization Energy =               0.0000000000000000
    EFP Energy =                            0.0000000000000000
    Total Energy =                       -267.9467348487529534
    Molecular point group: c1
  Basis Set: 6-31G*
  Basis Set:

  -Total Gradient:
     Atom            X                  Y                   Z
    ------   -----------------  -----------------  -----------------
       1       -0.000006706287    -0.000004397954    -0.000000153403
       2       -0.000010011994    -0.000008860956    -0.000015797386
       3        0.000004835906     0.000001298528     0.000019414371
       4        0.001319563642    -0.001678101426     0.001316512755
       5       -0.000002664876    -0.000006234292    -0.000000275075
       6        0.000009214622     0.000008246226     0.000001716510
       7        0.001569372683    -0.002010970364     0.001564939778
       8       -0.001566907445     0.002018765221    -0.001570527744
       9       -0.000000324006     0.000002545038     0.000000443606
      10       -0.001315593616     0.001679886045    -0.001316232775
      11       -0.000001413353    -0.000000262531    -0.000001591939
      12       -0.000000988722     0.000000095836    -0.000001447572
      13        0.000001623444    -0.000002009369     0.000002998875

  **** Optimization is complete! (in 8 steps) ****
    Final optimized geometry and variables:
    Molecular point group: c1

    Geometry (in Angstrom), charge = 0, multiplicity = 1:

    H           -2.177882387100    -1.171335224079    -1.028063943505
    O           -2.129753047476    -0.740306257450    -0.186098375661
    C           -1.038189275117     0.140529512970    -0.168124645151
    C            0.275151112667    -0.637199797637    -0.135772813770
    H           -1.046208683463     0.806997730051    -1.027681089279
    H           -1.162108274975     0.745600524650     0.719282561939
    O            1.413840385982     0.162534413970    -0.250675689566
    H            0.291900522985    -1.296470330070    -0.996301271955
    H            0.314049509752    -1.246496313166     0.764978865403
    C            1.610841058577     1.105421222689     0.759135747141
    H            1.523438190562     0.656416498587     1.746822011387
    H            2.613177270637     1.493525357341     0.641780936090
    H            0.911043472811     1.933127061353     0.690658996105

  Mulliken Charges: (a.u.)
   Center  Symbol    Alpha    Beta     Spin     Total
       1     H     0.28069  0.28069  0.00000  0.43863
       2     O     4.37010  4.37010  0.00000 -0.74020
       3     C     3.01257  3.01257  0.00000 -0.02514
       4     C     2.99940  2.99940  0.00000  0.00120
       5     H     0.42293  0.42293  0.00000  0.15415
       6     H     0.41456  0.41456  0.00000  0.17089
       7     O     4.30673  4.30673  0.00000 -0.61346
       8     H     0.42098  0.42098  0.00000  0.15803
       9     H     0.42215  0.42215  0.00000  0.15569
      10     C     3.08457  3.08457  0.00000 -0.16913
      11     H     0.42827  0.42827  0.00000  0.14347
      12     H     0.40994  0.40994  0.00000  0.18011
      13     H     0.42712  0.42712  0.00000  0.14576

   Total alpha = 21.00000, Total beta = 21.00000, Total charge =  0.00000
