                              Psi4 1.0.54 Driver

  ==> Input File <==

--------------------------------------------------------------------------
set {
	reference rhf
	basis cc-pvtz
}

set_num_threads( 4 )
memory 2 gb

molecule MOL {
0 1

O	 -0.294688	 1.318815	 -0.000872
C	 -0.448732	 0.145721	 -0.000187
C	 -1.780748	 -0.548101	 0.000195
O	 0.550743	 -0.719877	 0.000412
H	 -1.859389	 -1.183260	 -0.872613
H	 -2.570236	 0.185547	 -0.001342
H	 -1.860233	 -1.180337	 0.875064
C	 0.897504	 -1.308235	 1.238417
H	 1.197398	 -0.551976	 1.948463
H	 1.720597	 -1.972652	 1.031655
H	 0.063557	 -1.861720	 1.643644

	symmetry c1
}
set optking {
	frozen_dihedral = ("
		8 4 2 1
	")
}

ee,wfn = optimize('scf', return_wfn=True)
oeprop( wfn, 'DIPOLE', 'QUADRUPOLE', 'MULLIKEN_CHARGES')
f=open( 'psi4out.xyz', 'w' )
f.write( "11  " )
f.write( str(ee) + "\n" )
f.write( MOL.save_string_xyz() )
f.close()
--------------------------------------------------------------------------

    Molecular point group: c1
  Charge       = 0
  Multiplicity = 1
  Basis Set: CC-PVTZ
  Basis Set:
  @DF-RHF Final Energy:  -266.91699290899606
    Total Energy =                       -266.9169929089961215
    Molecular point group: c1
  Basis Set: CC-PVTZ
  Basis Set:
  Basis Set: CC-PVTZ
  Basis Set:
  @DF-RHF Final Energy:  -266.47543903651314
    Total Energy =                       -266.4754390365130803
  Basis Set: CC-PVTZ
  Basis Set:
  Basis Set: CC-PVTZ
  Basis Set:
  @DF-RHF Final Energy:  -266.64610068801778
    Total Energy =                       -266.6461006880178957
  Basis Set: CC-PVTZ
  Basis Set:
  Basis Set: CC-PVTZ
  Basis Set:
  @DF-RHF Final Energy:  -266.11422395040512
    Total Energy =                       -266.1142239504051759
  Basis Set: CC-PVTZ
  Basis Set:
  @DF-RHF Final Energy:  -266.38565971546348
    Total Energy =                       -266.3856597154634755
  @DF-RHF Final Energy:  -266.40303033612167
    Total Energy =                       -266.4030303361216738
  @DF-RHF Final Energy:  -266.47828796206278
    Total Energy =                       -266.4782879620628933
  @DF-RHF Final Energy:  -266.67872342588089
    Total Energy =                       -266.6787234258807757
  @DF-RHF Final Energy:  -266.12935617447988
    Total Energy =                       -266.1293561744798808
  @DF-RHF Final Energy:  -266.37916844646998
    Total Energy =                       -266.3791684464700324
  @DF-RHF Final Energy:  -266.63351332352624
    Total Energy =                       -266.6335133235263015
  @DF-RHF Final Energy:  -266.73752666681935
    Total Energy =                       -266.7375266668193490
  @DF-RHF Final Energy:  -266.37302431890834
    Total Energy =                       -266.3730243189082216
  @DF-RHF Final Energy:  -266.62468464208138
    Total Energy =                       -266.6246846420814336
  @DF-RHF Final Energy:  -266.64893027653767
    Total Energy =                       -266.6489302765376124
  @DF-RHF Final Energy:  -266.68550676120606
    Total Energy =                       -266.6855067612060566
  @DF-RHF Final Energy:  -266.74175551685659
    Total Energy =                       -266.7417555168563581
  @DF-RHF Final Energy:  -266.79589908122659
    Total Energy =                       -266.7958990812264801
  @DF-RHF Final Energy:  -266.86487130504690
    Total Energy =                       -266.8648713050467904
  @DF-RHF Final Energy:  -266.87666563246898
    Total Energy =                       -266.8766656324688711
  @DF-RHF Final Energy:  -266.91200525567501
    Total Energy =                       -266.9120052556747851
  @DF-RHF Final Energy:  -266.91208668742041
    Total Energy =                       -266.9120866874204694
  @DF-RHF Final Energy:  -266.91758486040624
    Total Energy =                       -266.9175848604062935
  @DF-RHF Final Energy:  -266.91787666296784
    Total Energy =                       -266.9178766629677853
  @DF-RHF Final Energy:  -266.91824660594671
    Total Energy =                       -266.9182466059468197
  @DF-RHF Final Energy:  -266.91836245993022
    Total Energy =                       -266.9183624599302789
  @DF-RHF Final Energy:  -266.91842502496581
    Total Energy =                       -266.9184250249656998
  @DF-RHF Final Energy:  -266.91856422050125
    Total Energy =                       -266.9185642205011959
  @DF-RHF Final Energy:  -266.91833697057712
    Total Energy =                       -266.9183369705770019
  @DF-RHF Final Energy:  -266.91886661088211
    Total Energy =                       -266.9188666108822190
  Basis Set: CC-PVTZ
  Basis Set:
  @DF-RHF Final Energy:  -266.91892312031604
    Total Energy =                       -266.9189231203160944
  Basis Set: CC-PVTZ
  Basis Set:
  Basis Set: CC-PVTZ
  Basis Set:
  @DF-RHF Final Energy:  -266.91894869446946
    Total Energy =                       -266.9189486944694636
  Basis Set: CC-PVTZ
  Basis Set:
  Basis Set: CC-PVTZ
  Basis Set:
  @DF-RHF Final Energy:  -266.91895317832802
    Total Energy =                       -266.9189531783279108
  Basis Set: CC-PVTZ
  Basis Set:
  Charge       = 0
  Multiplicity = 1
  Basis Set: CC-PVTZ
  Basis Set:

    Orbital Energies (a.u.)
    -----------------------

    Doubly Occupied:

       1A    -20.580930     2A    -20.546983     3A    -11.372351
       4A    -11.291912     5A    -11.238602     6A     -1.463850
       7A     -1.372573     8A     -1.026334     9A     -0.967627
      10A     -0.780808    11A     -0.697380    12A     -0.687293
      13A     -0.672187    14A     -0.617258    15A     -0.589694
      16A     -0.580076    17A     -0.544405    18A     -0.497253
      19A     -0.464838    20A     -0.444383

  @DF-RHF Final Energy:  -266.91895327563725

   => Energetics <=

    Nuclear Repulsion Energy =            182.7168900053432310
    One-Electron Energy =                -726.3982096725512747
    Two-Electron Energy =                 276.7623663915707084
    DFT Exchange-Correlation Energy =       0.0000000000000000
    Empirical Dispersion Energy =           0.0000000000000000
    PCM Polarization Energy =               0.0000000000000000
    EFP Energy =                            0.0000000000000000
    Total Energy =                       -266.9189532756373637
    Molecular point group: c1
  Basis Set: CC-PVTZ
  Basis Set:

  -Total Gradient:
     Atom            X                  Y                   Z
    ------   -----------------  -----------------  -----------------
       1       -0.000849434746     0.000587742436     0.000374044412
       2        0.001377558848    -0.000747902733    -0.000142213655
       3        0.000000236318     0.000030895908    -0.000016160049
       4       -0.000848042379    -0.000146779674    -0.001022276015
       5        0.000005733429     0.000003674988    -0.000004898840
       6       -0.000009097353    -0.000009297681     0.000014250373
       7        0.000008882366    -0.000011911501     0.000002924858
       8        0.000316489974     0.000291329547     0.000784377715
       9       -0.000009501169     0.000013345192     0.000013060005
      10       -0.000002903550    -0.000002082695    -0.000000989584
      11        0.000010078261    -0.000009013788    -0.000002119223

  **** Optimization is complete! (in 34 steps) ****
    Final optimized geometry and variables:
    Molecular point group: c1

    Geometry (in Angstrom), charge = 0, multiplicity = 1:

    O           -0.360692796946     0.736467416052    -1.326573768314
    C           -0.086104727590     0.462941958787    -0.217183955154
    C            0.757123680416     1.323923898112     0.682865051052
    O           -0.587083969525    -0.639783021098     0.378347782364
    H            0.143100275840     1.669607631267     1.505508293448
    H            1.142737694682     2.165666399369     0.131034224274
    H            1.574909598970     0.754231743873     1.105116247530
    C            0.241112821581    -1.777008631442     0.448619814940
    H            0.518476155748    -2.108856437008    -0.544081867248
    H           -0.333268594960    -2.548404154103     0.934934331466
    H            1.135353163461    -1.584064988270     1.030098967524

  Mulliken Charges: (a.u.)
   Center  Symbol    Alpha    Beta     Spin     Total
       1     O     4.16650  4.16650  0.00000 -0.33301
       2     C     2.79907  2.79907  0.00000  0.40186
       3     C     3.14382  3.14382  0.00000 -0.28765
       4     O     4.16272  4.16272  0.00000 -0.32545
       5     H     0.44335  0.44335  0.00000  0.11329
       6     H     0.43636  0.43636  0.00000  0.12729
       7     H     0.45152  0.45152  0.00000  0.09695
       8     C     3.03132  3.03132  0.00000 -0.06264
       9     H     0.45642  0.45642  0.00000  0.08717
      10     H     0.44209  0.44209  0.00000  0.11583
      11     H     0.46682  0.46682  0.00000  0.06636

   Total alpha = 20.00000, Total beta = 20.00000, Total charge =  0.00000

*** Psi4 exiting successfully. Buy a developer a beer!
