  ==> Input File <==

--------------------------------------------------------------------------
set {
	reference rhf
	basis 6-31G*
}

set_num_threads( 4 )
memory 2 gb

molecule MOL {
0 1

O	 -0.669333	 -0.087309	 -0.110761
C	 0.486307	 0.169203	 0.000779
C	 1.608116	 -0.841643	 0.000302
O	 0.949858	 1.402840	 0.145243
C	 2.990107	 -0.200498	 -0.000684
H	 1.468623	 -1.481519	 -0.865924
H	 1.469683	 -1.481289	 0.866878
H	 3.129736	 0.423364	 -0.875135
H	 3.757882	 -0.966877	 -0.001197
H	 3.130964	 0.423383	 0.873533
C	 0.000821	 2.464136	 0.164711
C	 0.769199	 3.756877	 0.340004
H	 -0.695263	 2.299736	 0.975898
H	 -0.558669	 2.453884	 -0.760738
H	 1.328434	 3.749160	 1.268635
H	 0.081092	 4.595770	 0.360398
H	 1.465774	 3.904282	 -0.477499

	symmetry c1
}
set optking {
	frozen_dihedral = ("
		4 2 3 6
	")
}

ee = optimize('scf')
oeprop('DIPOLE', 'QUADRUPOLE', 'MULLIKEN_CHARGES')
f=open( 'psi4out.xyz', 'w' )
f.write( "17  " )
f.write( str(ee) + "\n" )
f.write( MOL.save_string_xyz() )
f.close()
--------------------------------------------------------------------------

    Molecular point group: c1
  Charge       = 0
  Multiplicity = 1
  Basis Set: 6-31G*
  Basis Set:
  @DF-RHF Final Energy:  -344.90806907919062
    Total Energy =                       -344.9080690791904544
    Molecular point group: c1
  Basis Set: 6-31G*
  Basis Set:
  Basis Set: 6-31G*
  Basis Set:
  @DF-RHF Final Energy:  -344.90899096355196
    Total Energy =                       -344.9089909635520144
  Basis Set: 6-31G*
  Basis Set:
  Basis Set: 6-31G*
  Basis Set:
  @DF-RHF Final Energy:  -344.90936318102399
    Total Energy =                       -344.9093631810239913
  Basis Set: 6-31G*
  Basis Set:
  Basis Set: 6-31G*
  Basis Set:
  @DF-RHF Final Energy:  -344.90929937845362
    Total Energy =                       -344.9092993784537384
  Basis Set: 6-31G*
  Basis Set:
  Basis Set: 6-31G*
  Basis Set:
  @DF-RHF Final Energy:  -344.90938276279854
    Total Energy =                       -344.9093827627989413
  Basis Set: 6-31G*
  Basis Set:
  Basis Set: 6-31G*
  Basis Set:
  @DF-RHF Final Energy:  -344.90939079415716
    Total Energy =                       -344.9093907941574457
  Basis Set: 6-31G*
  Basis Set:
  Charge       = 0
  Multiplicity = 1
  Basis Set: 6-31G*
  Basis Set:

    Orbital Energies (a.u.)
    -----------------------

    Doubly Occupied:

       1A    -20.603916     2A    -20.538897     3A    -11.371573
       4A    -11.285610     5A    -11.237862     6A    -11.223104
       7A    -11.220001     8A     -1.468487     9A     -1.359834
      10A     -1.071970    11A     -1.030312    12A     -0.904794
      13A     -0.861273    14A     -0.778473    15A     -0.690339
      16A     -0.678636    17A     -0.670299    18A     -0.630068
      19A     -0.573817    20A     -0.571964    21A     -0.553173
      22A     -0.549445    23A     -0.521865    24A     -0.514746
      25A     -0.506864    26A     -0.490875    27A     -0.449698
      28A     -0.430378

  @DF-RHF Final Energy:  -344.90939080626475

   => Energetics <=

    Nuclear Repulsion Energy =            317.6314309678205632
    One-Electron Energy =               -1099.5051017346681874
    Two-Electron Energy =                 436.9642799605824734
    DFT Exchange-Correlation Energy =       0.0000000000000000
    Empirical Dispersion Energy =           0.0000000000000000
    PCM Polarization Energy =               0.0000000000000000
    EFP Energy =                            0.0000000000000000
    Total Energy =                       -344.9093908062652076
    Molecular point group: c1
  Basis Set: 6-31G*
  Basis Set:

  -Total Gradient:
     Atom            X                  Y                   Z
    ------   -----------------  -----------------  -----------------
       1        0.000031332068     0.000002261335    -0.000001313660
       2       -0.000037724245    -0.000034700143     0.000190009050
       3       -0.000132129673    -0.000137651998     0.000082492017
       4        0.000018945497     0.000063716493    -0.000188975596
       5        0.000002449011     0.000003651618    -0.000000477806
       6        0.000109191851     0.000127295705    -0.000113643920
       7       -0.000001510462    -0.000001262992     0.000001008858
       8        0.000001464879    -0.000001226375    -0.000000305470
       9       -0.000005752231    -0.000001751213     0.000000769677
      10        0.000002538352     0.000001800941     0.000001524294
      11        0.000018796185    -0.000035285319     0.000082192952
      12       -0.000002062964     0.000005134474    -0.000021630991
      13       -0.000002509991     0.000013775767    -0.000012420828
      14       -0.000001018067    -0.000005170766    -0.000016981802
      15       -0.000004825578    -0.000007644949    -0.000001514561
      16       -0.000000755164     0.000002746141    -0.000001778770
      17        0.000003570536     0.000004311283     0.000001046558

  **** Optimization is complete! (in 7 steps) ****
    Final optimized geometry and variables:
    Molecular point group: c1

    Geometry (in Angstrom), charge = 0, multiplicity = 1:

    O           -1.517957913771    -1.057822054237    -0.180063207371
    C           -0.366556466195    -0.774816767213    -0.077520911423
    C            0.740129705942    -1.808147235850    -0.087212424385
    O            0.066167750326     0.466880123814     0.063748122671
    C            2.170518542280    -1.277326701914    -0.076444205561
    H            0.562602795260    -2.428895685598    -0.958908405606
    H            0.560475554235    -2.447215858340     0.772200469391
    H            2.367751159383    -0.653202726080    -0.940088080104
    H            2.869450853058    -2.106925156153    -0.093913018634
    H            2.368119487187    -0.687680888837     0.810271930004
    C           -0.910804854019     1.503136011933     0.093196849604
    C           -0.174743755209     2.816140779689     0.255453962509
    H           -1.591379142390     1.320873463689     0.913380122590
    H           -1.481120628026     1.473982424821    -0.824934511332
    H            0.395994108347     2.826375127557     1.177087600212
    H           -0.884842734326     3.636293947748     0.282360492715
    H            0.507288293013     2.980003921133    -0.571117620088

  Mulliken Charges: (a.u.)
   Center  Symbol    Alpha    Beta     Spin     Total
       1     O     4.28946  4.28946  0.00000 -0.57893
       2     C     2.60480  2.60480  0.00000  0.79040
       3     C     3.20874  3.20874  0.00000 -0.41748
       4     O     4.31114  4.31114  0.00000 -0.62228
       5     C     3.23754  3.23754  0.00000 -0.47507
       6     H     0.39756  0.39756  0.00000  0.20488
       7     H     0.39814  0.39814  0.00000  0.20371
       8     H     0.41362  0.41362  0.00000  0.17277
       9     H     0.41708  0.41708  0.00000  0.16583
      10     H     0.41194  0.41194  0.00000  0.17611
      11     C     3.00275  3.00275  0.00000 -0.00550
      12     C     3.24884  3.24884  0.00000 -0.49769
      13     H     0.40944  0.40944  0.00000  0.18111
      14     H     0.40924  0.40924  0.00000  0.18152
      15     H     0.41192  0.41192  0.00000  0.17616
      16     H     0.41596  0.41596  0.00000  0.16809
      17     H     0.41182  0.41182  0.00000  0.17635

   Total alpha = 28.00000, Total beta = 28.00000, Total charge =  0.00000
