                              Psi4 1.0.54 Driver

  ==> Input File <==

--------------------------------------------------------------------------
set {
	reference rhf
	basis cc-pvtz
}

set_num_threads( 4 )
memory 2 gb

molecule MOL {
0 1

H	 0.781404	 -3.228650	 -1.030899
O	 1.055055	 -2.535501	 -0.449215
C	 0.254230	 -1.489838	 -0.635494
C	 0.626018	 -0.337582	 0.258241
O	 -0.630401	 -1.508047	 -1.419674
C	 -0.267326	 0.883135	 0.076490
H	 0.604257	 -0.711473	 1.274898
H	 1.664565	 -0.098100	 0.052079
C	 -1.726822	 0.642622	 0.463839
H	 -0.210803	 1.217591	 -0.953497
H	 0.129920	 1.693110	 0.675679
C	 -2.480891	 -0.340606	 -0.429852
H	 -2.243098	 1.597649	 0.438609
H	 -1.776542	 0.301208	 1.495542
C	 -3.955933	 -0.460128	 -0.060472
H	 -2.393755	 -0.020485	 -1.464726
H	 -2.024244	 -1.323637	 -0.374360
H	 -4.467673	 -1.160944	 -0.709827
H	 -4.458917	 0.497287	 -0.144505
H	 -4.076458	 -0.806900	 0.960497

	symmetry c1
}
set optking {
	frozen_dihedral = ("
		7 4 6 10
	")
}

ee,wfn = optimize('scf', return_wfn=True)
oeprop( wfn, 'DIPOLE', 'QUADRUPOLE', 'MULLIKEN_CHARGES')
f=open( 'psi4out.xyz', 'w' )
f.write( "20  " )
f.write( str(ee) + "\n" )
f.write( MOL.save_string_xyz() )
f.close()
--------------------------------------------------------------------------

    Molecular point group: c1
  Charge       = 0
  Multiplicity = 1
  Basis Set: CC-PVTZ
  Basis Set:
  @DF-RHF Final Energy:  -384.05992217238287
    Total Energy =                       -384.0599221723834944
    Molecular point group: c1
  Basis Set: CC-PVTZ
  Basis Set:
  Basis Set: CC-PVTZ
  Basis Set:
  @DF-RHF Final Energy:  -384.07835030556663
    Total Energy =                       -384.0783503055664596
  Basis Set: CC-PVTZ
  Basis Set:
  Basis Set: CC-PVTZ
  Basis Set:
  @DF-RHF Final Energy:  -384.08492397941211
    Total Energy =                       -384.0849239794121104
  Basis Set: CC-PVTZ
  Basis Set:
  Basis Set: CC-PVTZ
  Basis Set:
  @DF-RHF Final Energy:  -384.08584759298122
    Total Energy =                       -384.0858475929810538
  Basis Set: CC-PVTZ
  Basis Set:
  @DF-RHF Final Energy:  -384.08903127887891
    Total Energy =                       -384.0890312788797019
  @DF-RHF Final Energy:  -384.09011248699801
    Total Energy =                       -384.0901124869977821
  @DF-RHF Final Energy:  -384.09068602225159
    Total Energy =                       -384.0906860222515888
  @DF-RHF Final Energy:  -384.09105946674219
    Total Energy =                       -384.0910594667424220
  @DF-RHF Final Energy:  -384.09130654733525
    Total Energy =                       -384.0913065473350798
  @DF-RHF Final Energy:  -384.09148262939294
    Total Energy =                       -384.0914826293931128
  @DF-RHF Final Energy:  -384.09156060983173
    Total Energy =                       -384.0915606098317312
  Basis Set: CC-PVTZ
  Basis Set:
  @DF-RHF Final Energy:  -384.09168468538962
    Total Energy =                       -384.0916846853893958
  Basis Set: CC-PVTZ
  Basis Set:
  Basis Set: CC-PVTZ
  Basis Set:
  @DF-RHF Final Energy:  -384.09170185710252
    Total Energy =                       -384.0917018571027484
  Basis Set: CC-PVTZ
  Basis Set:
  Basis Set: CC-PVTZ
  Basis Set:
  @DF-RHF Final Energy:  -384.09170398063702
    Total Energy =                       -384.0917039806369075
  Basis Set: CC-PVTZ
  Basis Set:
  Charge       = 0
  Multiplicity = 1
  Basis Set: CC-PVTZ
  Basis Set:

    Orbital Energies (a.u.)
    -----------------------

    Doubly Occupied:

       1A    -20.606387     2A    -20.537622     3A    -11.373821
       4A    -11.238714     5A    -11.225294     6A    -11.217272
       7A    -11.212442     8A    -11.206507     9A     -1.478355
      10A     -1.368504    11A     -1.094932    12A     -1.039568
      13A     -0.960075    14A     -0.874207    15A     -0.815972
      16A     -0.776565    17A     -0.705548    18A     -0.693014
      19A     -0.663596    20A     -0.628418    21A     -0.603601
      22A     -0.597310    23A     -0.575882    24A     -0.553187
      25A     -0.542713    26A     -0.515240    27A     -0.496439
      28A     -0.487705    29A     -0.466048    30A     -0.460832
      31A     -0.458394    32A     -0.441516

  @DF-RHF Final Energy:  -384.09170473798639

   => Energetics <=

    Nuclear Repulsion Energy =            391.8467003483607982
    One-Electron Energy =               -1300.0454499847237457
    Two-Electron Energy =                 524.1070448983770120
    DFT Exchange-Correlation Energy =       0.0000000000000000
    Empirical Dispersion Energy =           0.0000000000000000
    PCM Polarization Energy =               0.0000000000000000
    EFP Energy =                            0.0000000000000000
    Total Energy =                       -384.0917047379858786
    Molecular point group: c1
  Basis Set: CC-PVTZ
  Basis Set:

  -Total Gradient:
     Atom            X                  Y                   Z
    ------   -----------------  -----------------  -----------------
       1        0.000013170722     0.000014257698     0.000033125533
       2       -0.000009735323     0.000034502337    -0.000028429575
       3       -0.000040800839    -0.000072827537    -0.000025460745
       4       -0.002727661771    -0.002159315833    -0.000979379468
       5        0.000010227195     0.000065162125     0.000052468725
       6       -0.002570327757    -0.002069066120    -0.000855218893
       7        0.002712824321     0.002089357060     0.000912856735
       8       -0.000019566479     0.000005760330     0.000030866276
       9        0.000003595697     0.000050930951    -0.000001611070
      10        0.002660172085     0.002103508706     0.000861955703
      11        0.000007170070    -0.000009855811     0.000001206337
      12        0.000023236792    -0.000122637453    -0.000004043760
      13        0.000013700067    -0.000006387766    -0.000001622576
      14       -0.000003501290     0.000001976285     0.000003895408
      15       -0.000011707465     0.000016286295    -0.000011483521
      16       -0.000011560446     0.000001836629    -0.000010778464
      17       -0.000040804467     0.000061612591     0.000005536280
      18       -0.000000882845    -0.000000268869     0.000003714319
      19       -0.000001404114    -0.000003809977     0.000004458480
      20       -0.000006144148    -0.000001021645     0.000007944274

  **** Optimization is complete! (in 15 steps) ****
    Final optimized geometry and variables:
    Molecular point group: c1

    Geometry (in Angstrom), charge = 0, multiplicity = 1:

    H            1.277841073360    -2.701242633882    -0.520204692206
    O            1.366327204397    -2.042176512028     0.152317365847
    C            1.261555297129    -0.846796454280    -0.417790318585
    C            1.470931775654     0.283853887849     0.553970678826
    O            1.072975961026    -0.718045494469    -1.578558332702
    C            0.585509380820     1.511035051031     0.330536507342
    H            1.410493312482    -0.072169984481     1.573457184241
    H            2.506561292885     0.577045091102     0.402681951630
    C           -0.882050411769     1.375923279666     0.742227470910
    H            0.678166358704     1.830802118839    -0.700538094488
    H            1.015146192878     2.311113560816     0.925079317342
    C           -1.724638701690     0.367653603713    -0.036860706513
    H           -1.338604081216     2.356481902504     0.640822450116
    H           -0.928773333839     1.133129403247     1.801790579965
    C           -3.199127143635     0.427015555441     0.350203611442
    H           -1.618231533382     0.548800147613    -1.100857529390
    H           -1.360825358534    -0.639364363597     0.138197493693
    H           -3.778152712244    -0.303842453128    -0.202239551645
    H           -3.618798307939     1.405932852639     0.143786264030
    H           -3.336290101045     0.226393543632     1.407890353465

  Mulliken Charges: (a.u.)
   Center  Symbol    Alpha    Beta     Spin     Total
       1     H     0.38028  0.38028  0.00000  0.23944
       2     O     4.16380  4.16380  0.00000 -0.32759
       3     C     2.79552  2.79552  0.00000  0.40897
       4     C     3.10805  3.10805  0.00000 -0.21611
       5     O     4.20127  4.20127  0.00000 -0.40253
       6     C     3.10126  3.10126  0.00000 -0.20251
       7     H     0.43535  0.43535  0.00000  0.12930
       8     H     0.43532  0.43532  0.00000  0.12936
       9     C     3.09552  3.09552  0.00000 -0.19105
      10     H     0.44102  0.44102  0.00000  0.11796
      11     H     0.44310  0.44310  0.00000  0.11379
      12     C     3.09186  3.09186  0.00000 -0.18373
      13     H     0.44832  0.44832  0.00000  0.10335
      14     H     0.45378  0.45378  0.00000  0.09243
      15     C     3.15093  3.15093  0.00000 -0.30187
      16     H     0.44181  0.44181  0.00000  0.11637
      17     H     0.45441  0.45441  0.00000  0.09118
      18     H     0.44749  0.44749  0.00000  0.10503
      19     H     0.45456  0.45456  0.00000  0.09087
      20     H     0.45633  0.45633  0.00000  0.08734

   Total alpha = 32.00000, Total beta = 32.00000, Total charge = -0.00000

*** Psi4 exiting successfully. Buy a developer a beer!
