                              Psi4 1.0.54 Driver

  ==> Input File <==

--------------------------------------------------------------------------
set {
	reference rhf
	basis cc-pvtz
}

set_num_threads( 4 )
memory 2 gb

molecule MOL {
0 1

H	 -2.301417	 1.107704	 -1.795892
N	 -1.323600	 1.057764	 -1.604973
C	 -0.775518	 -0.219110	 -2.023712
H	 -1.201665	 1.175851	 -0.621518
C	 0.703636	 -0.286187	 -1.719981
H	 -1.261544	 -1.073927	 -1.555086
H	 -0.906111	 -0.318175	 -3.095711
O	 0.881195	 -0.248324	 -0.336237
H	 1.122923	 -1.205771	 -2.125857
H	 1.211083	 0.554971	 -2.186756
C	 2.208068	 -0.234417	 0.074171
H	 2.725499	 -1.027054	 -0.446768
H	 2.688377	 0.712084	 -0.164856
H	 2.295137	 -0.403407	 1.144883

	symmetry c1
}
set optking {
	frozen_dihedral = ("
		5 8 11 13
	")
}

ee,wfn = optimize('scf', return_wfn=True)
oeprop( wfn, 'DIPOLE', 'QUADRUPOLE', 'MULLIKEN_CHARGES')
f=open( 'psi4out.xyz', 'w' )
f.write( "14  " )
f.write( str(ee) + "\n" )
f.write( MOL.save_string_xyz() )
f.close()
--------------------------------------------------------------------------

    Molecular point group: c1
  Charge       = 0
  Multiplicity = 1
  Basis Set: CC-PVTZ
  Basis Set:
  @DF-RHF Final Energy:  -248.22496029053568
    Total Energy =                       -248.2249602905358188
    Molecular point group: c1
  Basis Set: CC-PVTZ
  Basis Set:
  Basis Set: CC-PVTZ
  Basis Set:
  @DF-RHF Final Energy:  -248.22577626096259
    Total Energy =                       -248.2257762609625047
  Basis Set: CC-PVTZ
  Basis Set:
  Basis Set: CC-PVTZ
  Basis Set:
  @DF-RHF Final Energy:  -248.22599377437297
    Total Energy =                       -248.2259937743729665
  Basis Set: CC-PVTZ
  Basis Set:
  Charge       = 0
  Multiplicity = 1
  Basis Set: CC-PVTZ
  Basis Set:

    Orbital Energies (a.u.)
    -----------------------

    Doubly Occupied:

       1A    -20.550572     2A    -15.523578     3A    -11.263935
       4A    -11.263559     5A    -11.239875     6A     -1.384428
       7A     -1.176044     8A     -1.000629     9A     -0.907619
      10A     -0.815724    11A     -0.685704    12A     -0.675931
      13A     -0.646909    14A     -0.612507    15A     -0.607397
      16A     -0.542089    17A     -0.531066    18A     -0.497615
      19A     -0.474489    20A     -0.419966    21A     -0.383941

  @DF-RHF Final Energy:  -248.22599457986854

   => Energetics <=

    Nuclear Repulsion Energy =            194.6902274758851377
    One-Electron Energy =                -723.4252890116617891
    Two-Electron Energy =                 280.5090669559081675
    DFT Exchange-Correlation Energy =       0.0000000000000000
    Empirical Dispersion Energy =           0.0000000000000000
    PCM Polarization Energy =               0.0000000000000000
    EFP Energy =                            0.0000000000000000
    Total Energy =                       -248.2259945798684271
    Molecular point group: c1
  Basis Set: CC-PVTZ
  Basis Set:

  -Total Gradient:
     Atom            X                  Y                   Z
    ------   -----------------  -----------------  -----------------
       1       -0.000004480216     0.000001475696    -0.000002472029
       2       -0.000007520816     0.000017001617    -0.000016195811
       3       -0.000002879291    -0.000032864230     0.000145404855
       4        0.000009139900    -0.000002446455    -0.000006805514
       5        0.000119859794    -0.000927577181    -0.000055034493
       6       -0.000039179317    -0.000023573402    -0.000006145823
       7        0.000056246296     0.000001646794     0.000029128987
       8       -0.000114204788     0.001560710988     0.000292038979
       9       -0.000006019706    -0.000008254093     0.000041980366
      10        0.000019240839     0.000005397021    -0.000009739639
      11        0.000422111728    -0.001079421979    -0.001536757177
      12       -0.000007443572    -0.000003348879    -0.000008868785
      13       -0.000416245673     0.000483600632     0.001126487808
      14       -0.000028625181     0.000007653470     0.000006978277

  **** Optimization is complete! (in 4 steps) ****
    Final optimized geometry and variables:
    Molecular point group: c1

    Geometry (in Angstrom), charge = 0, multiplicity = 1:

    H           -2.644859483400     1.060461444811    -0.724003467524
    N           -1.669113691845     1.020270022294    -0.520646171591
    C           -1.102144904017    -0.249659265195    -0.935269460713
    H           -1.561309974532     1.137091368631     0.464592406364
    C            0.373991813267    -0.301351857165    -0.614487634557
    H           -1.584100530583    -1.110755318396    -0.473858919069
    H           -1.218940021896    -0.348290106432    -2.008890711511
    O            0.533900366337    -0.267137918917     0.771572529216
    H            0.808576390094    -1.215028063499    -1.017004759098
    H            0.877150152586     0.546854435120    -1.073394082977
    C            1.855005687455    -0.232850900499     1.199683771279
    H            2.443142562269    -1.027239003974     0.746236576962
    H            2.321698376843     0.722454639804     0.971296866776
    H            1.859265724323    -0.368555005830     2.271913504483

  Mulliken Charges: (a.u.)
   Center  Symbol    Alpha    Beta     Spin     Total
       1     H     0.43022  0.43022  0.00000  0.13956
       2     N     3.69418  3.69418  0.00000 -0.38835
       3     C     3.02218  3.02218  0.00000 -0.04436
       4     H     0.42248  0.42248  0.00000  0.15503
       5     C     2.96916  2.96916  0.00000  0.06168
       6     H     0.46457  0.46457  0.00000  0.07086
       7     H     0.45871  0.45871  0.00000  0.08259
       8     O     4.18015  4.18015  0.00000 -0.36030
       9     H     0.46894  0.46894  0.00000  0.06211
      10     H     0.46933  0.46933  0.00000  0.06134
      11     C     3.03174  3.03174  0.00000 -0.06349
      12     H     0.47223  0.47223  0.00000  0.05553
      13     H     0.46779  0.46779  0.00000  0.06441
      14     H     0.44831  0.44831  0.00000  0.10337

   Total alpha = 21.00000, Total beta = 21.00000, Total charge =  0.00000

*** Psi4 exiting successfully. Buy a developer a beer!
