                              Psi4 1.0.54 Driver

  ==> Input File <==

--------------------------------------------------------------------------
set {
	reference rhf
	basis cc-pvtz
}

set_num_threads( 4 )
memory 2 gb

molecule MOL {
0 1

H	 2.167074	 0.413440	 -0.896125
O	 2.063695	 -0.083403	 -0.105237
C	 0.742924	 0.005675	 0.350750
H	 0.731380	 0.039219	 1.440080
C	 -0.064076	 -1.193495	 -0.124425
C	 -0.047832	 1.190568	 -0.194462
H	 0.194729	 -1.376165	 -1.161308
H	 0.163013	 -2.094508	 0.429933
C	 -1.533112	 -0.752002	 0.006102
H	 0.148003	 1.266545	 -1.259275
H	 0.226235	 2.136493	 0.259722
C	 -1.506634	 0.799189	 0.067162
H	 -2.124360	 -1.110499	 -0.826089
H	 -1.983103	 -1.158030	 0.903403
H	 -2.183808	 1.252169	 -0.644677
H	 -1.813926	 1.138698	 1.049457

	symmetry c1
}
set optking {
	frozen_dihedral = ("
		1 2 3 6
	")
}

ee,wfn = optimize('scf', return_wfn=True)
oeprop( wfn, 'DIPOLE', 'QUADRUPOLE', 'MULLIKEN_CHARGES')
f=open( 'psi4out.xyz', 'w' )
f.write( "16  " )
f.write( str(ee) + "\n" )
f.write( MOL.save_string_xyz() )
f.close()
--------------------------------------------------------------------------

    Molecular point group: c1
  Charge       = 0
  Multiplicity = 1
  Basis Set: CC-PVTZ
  Basis Set:
  @DF-RHF Final Energy:  -270.11400984526324
    Total Energy =                       -270.1140098452631264
    Molecular point group: c1
  Basis Set: CC-PVTZ
  Basis Set:
  Basis Set: CC-PVTZ
  Basis Set:
  @DF-RHF Final Energy:  -270.11496739061135
    Total Energy =                       -270.1149673906114117
  Basis Set: CC-PVTZ
  Basis Set:
  Basis Set: CC-PVTZ
  Basis Set:
  @DF-RHF Final Energy:  -270.11515508398929
    Total Energy =                       -270.1151550839894071
  Basis Set: CC-PVTZ
  Basis Set:
  Basis Set: CC-PVTZ
  Basis Set:
  @DF-RHF Final Energy:  -270.11516311907127
    Total Energy =                       -270.1151631190710987
  Basis Set: CC-PVTZ
  Basis Set:
  @DF-RHF Final Energy:  -270.11516693252327
    Total Energy =                       -270.1151669325232092
  @DF-RHF Final Energy:  -270.11517544677366
    Total Energy =                       -270.1151754467738328
  Basis Set: CC-PVTZ
  Basis Set:
  @DF-RHF Final Energy:  -270.11517810233693
    Total Energy =                       -270.1151781023367562
  Basis Set: CC-PVTZ
  Basis Set:
  Basis Set: CC-PVTZ
  Basis Set:
  @DF-RHF Final Energy:  -270.11518028802931
    Total Energy =                       -270.1151802880293644
  Basis Set: CC-PVTZ
  Basis Set:
  Basis Set: CC-PVTZ
  Basis Set:
  @DF-RHF Final Energy:  -270.11518606530592
    Total Energy =                       -270.1151860653060339
  Basis Set: CC-PVTZ
  Basis Set:
  Charge       = 0
  Multiplicity = 1
  Basis Set: CC-PVTZ
  Basis Set:

    Orbital Energies (a.u.)
    -----------------------

    Doubly Occupied:

       1A    -20.543888     2A    -11.267546     3A    -11.218472
       4A    -11.217594     5A    -11.215339     6A    -11.207665
       7A     -1.364572     8A     -1.117032     9A     -0.969834
      10A     -0.949983    11A     -0.804309    12A     -0.782243
      13A     -0.683137    14A     -0.666015    15A     -0.609301
      16A     -0.597137    17A     -0.577749    18A     -0.541183
      19A     -0.505190    20A     -0.484834    21A     -0.473580
      22A     -0.459953    23A     -0.452535    24A     -0.417339

  @DF-RHF Final Energy:  -270.11518745266619

   => Energetics <=

    Nuclear Repulsion Energy =            255.5105946562940460
    One-Electron Energy =                -872.9987048042551123
    Two-Electron Energy =                 347.3729226952950739
    DFT Exchange-Correlation Energy =       0.0000000000000000
    Empirical Dispersion Energy =           0.0000000000000000
    PCM Polarization Energy =               0.0000000000000000
    EFP Energy =                            0.0000000000000000
    Total Energy =                       -270.1151874526659640
    Molecular point group: c1
  Basis Set: CC-PVTZ
  Basis Set:

  -Total Gradient:
     Atom            X                  Y                   Z
    ------   -----------------  -----------------  -----------------
       1        0.000318073808     0.001163400837     0.000888153159
       2       -0.000523618136    -0.001647262643    -0.001428494082
       3        0.000426578062     0.000947410716     0.001236007986
       4       -0.000002201497     0.000022827921     0.000009463317
       5        0.000025288046     0.000004459507     0.000034421315
       6       -0.000248894704    -0.000469635520    -0.000731146401
       7        0.000002062100    -0.000025698921    -0.000000319176
       8        0.000000879087     0.000009725049     0.000021053267
       9        0.000008712764    -0.000000597242     0.000001267903
      10        0.000002041751    -0.000023859864    -0.000005535215
      11       -0.000001499857     0.000012394634    -0.000022188284
      12        0.000007055441     0.000013437514    -0.000011029564
      13        0.000017313884     0.000012335606    -0.000030550176
      14       -0.000035748482    -0.000018030339    -0.000014090642
      15       -0.000024015854     0.000017927616     0.000031637443
      16        0.000027973591    -0.000018834871     0.000021349148

  **** Optimization is complete! (in 10 steps) ****
    Final optimized geometry and variables:
    Molecular point group: c1

    Geometry (in Angstrom), charge = 0, multiplicity = 1:

    H            2.224609621522     0.466568056520    -0.835651427634
    O            2.090561609412    -0.073807027118    -0.079373503288
    C            0.751327750394    -0.018145485534     0.327663271546
    H            0.761123770447    -0.008761343200     1.413331415882
    C           -0.091031304738    -1.194898526580    -0.156748011358
    C           -0.033720783606     1.187687497119    -0.176213182894
    H            0.109753440039    -1.344535998439    -1.213205909068
    H            0.151188309527    -2.119109041435     0.351404194357
    C           -1.542573578144    -0.740036335530     0.063503678857
    H            0.138462902304     1.291602021837    -1.246089336824
    H            0.263778150438     2.116447189705     0.294523278194
    C           -1.497167345037     0.812814153212     0.091074188288
    H           -2.198147453237    -1.111533148590    -0.712900202699
    H           -1.926709644787    -1.120285040902     1.001872364864
    H           -2.165999162450     1.256807363211    -0.634115037567
    H           -1.803644408615     1.179533695046     1.063095033272

  Mulliken Charges: (a.u.)
   Center  Symbol    Alpha    Beta     Spin     Total
       1     H     0.39255  0.39255  0.00000  0.21491
       2     O     4.20888  4.20888  0.00000 -0.41777
       3     C     2.92845  2.92845  0.00000  0.14310
       4     H     0.45017  0.45017  0.00000  0.09965
       5     C     3.09411  3.09411  0.00000 -0.18822
       6     C     3.11107  3.11107  0.00000 -0.22214
       7     H     0.45980  0.45980  0.00000  0.08041
       8     H     0.44392  0.44392  0.00000  0.11216
       9     C     3.11421  3.11421  0.00000 -0.22842
      10     H     0.46136  0.46136  0.00000  0.07729
      11     H     0.44153  0.44153  0.00000  0.11694
      12     C     3.11027  3.11027  0.00000 -0.22054
      13     H     0.44460  0.44460  0.00000  0.11081
      14     H     0.44786  0.44786  0.00000  0.10428
      15     H     0.44365  0.44365  0.00000  0.11271
      16     H     0.44758  0.44758  0.00000  0.10484

   Total alpha = 24.00000, Total beta = 24.00000, Total charge =  0.00000

*** Psi4 exiting successfully. Buy a developer a beer!
