  ==> Input File <==

--------------------------------------------------------------------------
set {
	reference rhf
	basis cc-pvtz
}

set_num_threads( 4 )
memory 2 gb

molecule MOL {
0 1

H	 -2.266619	 1.169943	 0.000098
O	 -1.438073	 1.611259	 0.000041
C	 -0.408657	 0.734701	 0.000005
C	 0.818302	 1.212281	 0.421784
C	 -0.561286	 -0.587058	 -0.402203
H	 0.895197	 2.238230	 0.724185
C	 1.912106	 0.373290	 0.447367
C	 0.554617	 -1.407421	 -0.366246
C	 -1.900906	 -1.106698	 -0.862198
H	 2.861467	 0.751045	 0.775993
C	 1.786033	 -0.944517	 0.052500
H	 0.453125	 -2.431619	 -0.673959
H	 -2.264707	 -0.568374	 -1.732931
H	 -1.832354	 -2.149911	 -1.135049
H	 -2.653878	 -1.025416	 -0.083256
H	 2.632522	 -1.602945	 0.069760

	symmetry c1
}
set optking {
	frozen_dihedral = ("
		4 3 2 1
	")
}

ee = optimize('scf')
oeprop('DIPOLE', 'QUADRUPOLE', 'MULLIKEN_CHARGES')
f=open( 'psi4out.xyz', 'w' )
f.write( "16  " )
f.write( str(ee) + "\n" )
f.write( MOL.save_string_xyz() )
f.close()
--------------------------------------------------------------------------

    Molecular point group: c1
  Charge       = 0
  Multiplicity = 1
  Basis Set: CC-PVTZ
  Basis Set:
  @DF-RHF Final Energy:  -344.71890107229541
    Total Energy =                       -344.7189010722954663
    Molecular point group: c1
  Basis Set: CC-PVTZ
  Basis Set:
  Basis Set: CC-PVTZ
  Basis Set:
  @DF-RHF Final Energy:  -344.71894438676082
    Total Energy =                       -344.7189443867609953
  Basis Set: CC-PVTZ
  Basis Set:
  Basis Set: CC-PVTZ
  Basis Set:
  @DF-RHF Final Energy:  -344.71895330435592
    Total Energy =                       -344.7189533043559209
  Basis Set: CC-PVTZ
  Basis Set:
  Charge       = 0
  Multiplicity = 1
  Basis Set: CC-PVTZ
  Basis Set:

    Orbital Energies (a.u.)
    -----------------------

    Doubly Occupied:

       1A    -20.580456     2A    -11.290200     3A    -11.233637
       4A    -11.231535     5A    -11.228414     6A    -11.227257
       7A    -11.217965     8A    -11.217379     9A     -1.410481
      10A     -1.153492    11A     -1.051719    12A     -1.007864
      13A     -0.943472    14A     -0.828561    15A     -0.823074
      16A     -0.734237    17A     -0.680151    18A     -0.647899
      19A     -0.615511    20A     -0.602109    21A     -0.577361
      22A     -0.571676    23A     -0.557306    24A     -0.551891
      25A     -0.505293    26A     -0.486291    27A     -0.477448
      28A     -0.333734    29A     -0.310560

  @DF-RHF Final Energy:  -344.71895421941554

   => Energetics <=

    Nuclear Repulsion Energy =            351.0055346253519701
    One-Electron Energy =               -1163.2550221043252350
    Two-Electron Energy =                 467.5305332595580694
    DFT Exchange-Correlation Energy =       0.0000000000000000
    Empirical Dispersion Energy =           0.0000000000000000
    PCM Polarization Energy =               0.0000000000000000
    EFP Energy =                            0.0000000000000000
    Total Energy =                       -344.7189542194151954
    Molecular point group: c1
  Basis Set: CC-PVTZ
  Basis Set:

  -Total Gradient:
     Atom            X                  Y                   Z
    ------   -----------------  -----------------  -----------------
       1        0.000001892984    -0.000000490331     0.001226605458
       2       -0.000075641320    -0.000065036746    -0.001163792005
       3        0.000249648130     0.000240274077    -0.000842687851
       4       -0.000129559313    -0.000223901117     0.000774937140
       5       -0.000023802255     0.000069140019    -0.000014341981
       6       -0.000008485797     0.000006623285     0.000021102224
       7       -0.000033369958     0.000087326667     0.000010072293
       8        0.000105303400    -0.000022860871    -0.000040672038
       9        0.000040720637     0.000000538954    -0.000087394604
      10       -0.000004926969    -0.000003380970    -0.000004953355
      11       -0.000085282010    -0.000075948178     0.000018497722
      12       -0.000007279053    -0.000002296228     0.000016634725
      13        0.000017862519     0.000016300987     0.000039206017
      14       -0.000012838070    -0.000010905174     0.000050321149
      15       -0.000042515106    -0.000020783248     0.000009534882
      16        0.000008272175     0.000005398874    -0.000013069778

  **** Optimization is complete! (in 4 steps) ****
    Final optimized geometry and variables:
    Molecular point group: c1

    Geometry (in Angstrom), charge = 0, multiplicity = 1:

    H           -2.277885450005     1.155960198479     0.084147371770
    O           -1.449837504937     1.599143178760     0.082144623975
    C           -0.418978127061     0.720992199052     0.099736151094
    C            0.807247011269     1.199288049535     0.520137043422
    C           -0.572820351514    -0.602014714286    -0.298256623935
    H            0.883637563232     2.225218796743     0.822768339823
    C            1.902890734600     0.361476576841     0.542039217472
    C            0.541726326672    -1.423466809142    -0.258569037245
    C           -1.911965727973    -1.117961692238    -0.762538849504
    H            2.853115092187     0.740076982702     0.867080080200
    C            1.774594853709    -0.957756548046     0.154394375786
    H            0.439944356652    -2.448821493245    -0.562203180450
    H           -2.287369576035    -0.548028428658    -1.606087530709
    H           -1.837594645479    -2.151170254383    -1.070141271539
    H           -2.659672143977    -1.072896148053     0.025631934458
    H            2.621235752655    -1.616107004228     0.171517245927

  Mulliken Charges: (a.u.)
   Center  Symbol    Alpha    Beta     Spin     Total
       1     H     0.38636  0.38636  0.00000  0.22727
       2     O     4.17482  4.17482  0.00000 -0.34964
       3     C     2.87530  2.87530  0.00000  0.24940
       4     C     3.11171  3.11171  0.00000 -0.22341
       5     C     3.00942  3.00942  0.00000 -0.01884
       6     H     0.41967  0.41967  0.00000  0.16067
       7     C     3.06634  3.06634  0.00000 -0.13267
       8     C     3.08478  3.08478  0.00000 -0.16957
       9     C     3.16213  3.16213  0.00000 -0.32425
      10     H     0.42248  0.42248  0.00000  0.15505
      11     C     3.09053  3.09053  0.00000 -0.18106
      12     H     0.42555  0.42555  0.00000  0.14889
      13     H     0.44425  0.44425  0.00000  0.11149
      14     H     0.44616  0.44616  0.00000  0.10768
      15     H     0.45555  0.45555  0.00000  0.08890
      16     H     0.42495  0.42495  0.00000  0.15010

   Total alpha = 29.00000, Total beta = 29.00000, Total charge = -0.00000
