  ==> Input File <==

--------------------------------------------------------------------------
set {
	reference rhf
	basis 6-31G*
}

set_num_threads( 4 )
memory 2 gb

molecule MOL {
0 1

H	 -0.216825	 0.021369	 -3.357402
C	 0.374198	 0.036393	 -2.447010
C	 -0.521757	 -0.028637	 -1.217342
H	 0.969602	 0.942322	 -2.434777
H	 1.053364	 -0.811668	 -2.481329
N	 0.263400	 0.031178	 0.000000
H	 -1.199035	 0.820290	 -1.219355
H	 -1.147901	 -0.924895	 -1.265384
C	 -0.521757	 -0.028637	 1.217342
H	 0.935769	 -0.712709	 0.000000
C	 -1.508773	 1.128991	 1.286224
H	 -1.067000	 -0.967838	 1.216654
H	 0.102889	 -0.033444	 2.115917
H	 -2.163931	 1.120500	 0.422477
H	 -2.116245	 1.066424	 2.183670
H	 -0.990404	 2.084279	 1.305442

	symmetry c1
}
set optking {
	frozen_dihedral = ("
		12 9 6 3
	")
}

ee = optimize('scf')
oeprop('DIPOLE', 'QUADRUPOLE', 'MULLIKEN_CHARGES')
f=open( 'psi4out.xyz', 'w' )
f.write( "16  " )
f.write( str(ee) + "\n" )
f.write( MOL.save_string_xyz() )
f.close()
--------------------------------------------------------------------------

    Molecular point group: c1
  Charge       = 0
  Multiplicity = 1
  Basis Set: 6-31G*
  Basis Set:
  @DF-RHF Final Energy:  -212.30732813312613
    Total Energy =                       -212.3073281331261342
    Molecular point group: c1
  Basis Set: 6-31G*
  Basis Set:
  Basis Set: 6-31G*
  Basis Set:
  @DF-RHF Final Energy:  -212.30991670968137
    Total Energy =                       -212.3099167096813176
  Basis Set: 6-31G*
  Basis Set:
  Basis Set: 6-31G*
  Basis Set:
  @DF-RHF Final Energy:  -212.31135043997472
    Total Energy =                       -212.3113504399747740
  Basis Set: 6-31G*
  Basis Set:
  Basis Set: 6-31G*
  Basis Set:
  @DF-RHF Final Energy:  -212.31148860570272
    Total Energy =                       -212.3114886057028343
  Basis Set: 6-31G*
  Basis Set:
  Basis Set: 6-31G*
  Basis Set:
  @DF-RHF Final Energy:  -212.31150075228973
    Total Energy =                       -212.3115007522897031
  Basis Set: 6-31G*
  Basis Set:
  Charge       = 0
  Multiplicity = 1
  Basis Set: 6-31G*
  Basis Set:

    Orbital Energies (a.u.)
    -----------------------

    Doubly Occupied:

       1A    -15.533528     2A    -11.240993     3A    -11.239723
       4A    -11.209049     5A    -11.206118     6A     -1.203196
       7A     -1.024593     8A     -0.967217     9A     -0.849198
      10A     -0.797337    11A     -0.661113    12A     -0.626303
      13A     -0.616524    14A     -0.586639    15A     -0.537217
      16A     -0.522417    17A     -0.511599    18A     -0.492907
      19A     -0.482706    20A     -0.468310    21A     -0.357636

  @DF-RHF Final Energy:  -212.31150156199573

   => Energetics <=

    Nuclear Repulsion Energy =            191.4603388153570904
    One-Electron Energy =                -665.2750318142766446
    Two-Electron Energy =                 261.5031914369236574
    DFT Exchange-Correlation Energy =       0.0000000000000000
    Empirical Dispersion Energy =           0.0000000000000000
    PCM Polarization Energy =               0.0000000000000000
    EFP Energy =                            0.0000000000000000
    Total Energy =                       -212.3115015619958967
    Molecular point group: c1
  Basis Set: 6-31G*
  Basis Set:

  -Total Gradient:
     Atom            X                  Y                   Z
    ------   -----------------  -----------------  -----------------
       1        0.000003896798    -0.000002180359    -0.000001695645
       2       -0.000000223802     0.000022016961    -0.000020864309
       3       -0.000201068217     0.001740281711     0.000014936162
       4        0.000007584477    -0.000004507013    -0.000004467738
       5       -0.000000209240     0.000000982391    -0.000000804412
       6        0.000773535279    -0.002797579896     0.000281309720
       7        0.000011647661    -0.000010210848     0.000019168474
       8       -0.000016803155    -0.000000852756    -0.000005681725
       9       -0.002392750289     0.001996604539    -0.001375706976
      10       -0.000025973711     0.000001166887     0.000013845001
      11        0.000019900381     0.000013498316    -0.000010400909
      12        0.001831806839    -0.000965304108     0.001063967129
      13       -0.000014932069    -0.000005414817     0.000026238194
      14       -0.000004089358    -0.000003152125     0.000000907851
      15        0.000008581691    -0.000006914144    -0.000006657660
      16       -0.000000903286     0.000021565263     0.000005906846

  **** Optimization is complete! (in 6 steps) ****
    Final optimized geometry and variables:
    Molecular point group: c1

    Geometry (in Angstrom), charge = 0, multiplicity = 1:

    H            0.280769141830    -0.258421100235    -3.152561478009
    C            0.830586556996    -0.234881399943    -2.217042435241
    C           -0.121984458159    -0.228785080970    -1.028349859019
    H            1.455948255723     0.650837514153    -2.205740636213
    H            1.480505810588    -1.106084476991    -2.194890925822
    N            0.618200831811    -0.148315190512     0.217012919524
    H           -0.771872820113     0.635180535828    -1.102600286988
    H           -0.768181435190    -1.111648846695    -1.071850685587
    C           -0.169408837577    -0.260752115098     1.432770935680
    H            1.330929056838    -0.851594467437     0.224724118575
    C           -1.147406436828     0.893486725677     1.619924873593
    H           -0.704923452650    -1.213416398597     1.493196108045
    H            0.530872718541    -0.254390710033     2.262418283769
    H           -1.949341878602     0.875224225469     0.890002868697
    H           -1.602901047057     0.839408934607     2.603916429728
    H           -0.629413158607     1.842582741225     1.532536721875

  Mulliken Charges: (a.u.)
   Center  Symbol    Alpha    Beta     Spin     Total
       1     H     0.41947  0.41947  0.00000  0.16106
       2     C     3.24399  3.24399  0.00000 -0.48798
       3     C     3.05485  3.05485  0.00000 -0.10969
       4     H     0.41189  0.41189  0.00000  0.17621
       5     H     0.42505  0.42505  0.00000  0.14990
       6     N     3.84948  3.84948  0.00000 -0.69895
       7     H     0.41784  0.41784  0.00000  0.16432
       8     H     0.43618  0.43618  0.00000  0.12764
       9     C     3.05502  3.05502  0.00000 -0.11004
      10     H     0.33332  0.33332  0.00000  0.33336
      11     C     3.24427  3.24427  0.00000 -0.48854
      12     H     0.43520  0.43520  0.00000  0.12960
      13     H     0.41955  0.41955  0.00000  0.16090
      14     H     0.42025  0.42025  0.00000  0.15951
      15     H     0.42059  0.42059  0.00000  0.15883
      16     H     0.41306  0.41306  0.00000  0.17388

   Total alpha = 21.00000, Total beta = 21.00000, Total charge = -0.00000
