  ==> Input File <==

--------------------------------------------------------------------------
set {
	reference rhf
	basis 6-31G*
}

set_num_threads( 1 )
memory 2 gb

molecule MOL {
0 1

O	 -0.130041	 1.650597	 -3.870740
C	 -0.621500	 1.398273	 -2.812802
C	 -0.183291	 0.178018	 -2.022070
C	 -1.674338	 2.290139	 -2.193542
C	 1.143478	 0.444852	 -1.292943
H	 -0.052790	 -0.638892	 -2.723448
H	 -0.948816	 -0.109161	 -1.306860
C	 1.631333	 -0.777471	 -0.511575
H	 1.879643	 0.745741	 -2.029769
H	 1.023177	 1.283012	 -0.608281
C	 2.915987	 -0.544314	 0.291766
H	 1.784363	 -1.605486	 -1.201284
H	 0.846570	 -1.092055	 0.173285
C	 3.373361	 0.914346	 0.347591
H	 3.708709	 -1.142521	 -0.150311
H	 2.780642	 -0.921148	 1.303579
H	 3.506512	 1.320010	 -0.651625
H	 4.322697	 0.999599	 0.867103
H	 2.660624	 1.545032	 0.868198
H	 -2.620064	 1.757065	 -2.141587
H	 -1.798551	 3.184351	 -2.788302
H	 -1.401677	 2.557994	 -1.176825

	symmetry c1
}
set optking {
	frozen_dihedral = ("
		6 3 2 1,
		6 3 5 8,
		3 5 8 12
	")
}

ee = energy('scf')
oeprop('DIPOLE', 'QUADRUPOLE', 'MULLIKEN_CHARGES')
f=open( 'psi4out.xyz', 'w' )
f.write( "22  " )
f.write( str(ee) + "\n" )
f.write( MOL.save_string_xyz() )
f.close()
--------------------------------------------------------------------------

    Molecular point group: c1

    Geometry (in Angstrom), charge = 0, multiplicity = 1:

       Center              X                  Y                   Z               Mass
    ------------   -----------------  -----------------  -----------------  -----------------
           O         -0.942929322430     0.939034100172    -2.364298617308    15.994914619560
           C         -1.434388322430     0.686710100172    -1.306360617308    12.000000000000
           C         -0.996179322430    -0.533544899828    -0.515628617308    12.000000000000
           C         -2.487226322430     1.578576100172    -0.687100617308    12.000000000000
           C          0.330589677570    -0.266710899828     0.213498382692    12.000000000000
           H         -0.865678322430    -1.350454899828    -1.217006617308     1.007825032070
           H         -1.761704322430    -0.820723899828     0.199581382692     1.007825032070
           C          0.818444677570    -1.489033899828     0.994866382692    12.000000000000
           H          1.066754677570     0.034178100172    -0.523327617308     1.007825032070
           H          0.210288677570     0.571449100172     0.898160382692     1.007825032070
           C          2.103098677570    -1.255876899828     1.798207382692    12.000000000000
           H          0.971474677570    -2.317048899828     0.305157382692     1.007825032070
           H          0.033681677570    -1.803617899828     1.679726382692     1.007825032070
           C          2.560472677570     0.202783100172     1.854032382692    12.000000000000
           H          2.895820677570    -1.854083899828     1.356130382692     1.007825032070
           H          1.967753677570    -1.632710899828     2.810020382692     1.007825032070
           H          2.693623677570     0.608447100172     0.854816382692     1.007825032070
           H          3.509808677570     0.288036100172     2.373544382692     1.007825032070
           H          1.847735677570     0.833469100172     2.374639382692     1.007825032070
           H         -3.432952322430     1.045502100172    -0.635145617308     1.007825032070
           H         -2.611439322430     2.472788100172    -1.281860617308     1.007825032070
           H         -2.214565322430     1.846431100172     0.329616382692     1.007825032070

  Charge       = 0
  Multiplicity = 1
  Basis Set: 6-31G*
  Basis Set:

    Orbital Energies (a.u.)
    -----------------------

    Doubly Occupied:

       1A    -20.546988     2A    -11.324092     3A    -11.228768
       4A    -11.228152     5A    -11.228010     6A    -11.220937
       7A    -11.219191     8A    -11.211603     9A     -1.392750
      10A     -1.096952    11A     -1.043501    12A     -0.997874
      13A     -0.936342    14A     -0.866757    15A     -0.775771
      16A     -0.733145    17A     -0.665827    18A     -0.646165
      19A     -0.630753    20A     -0.617291    21A     -0.592710
      22A     -0.586656    23A     -0.558480    24A     -0.544552
      25A     -0.531903    26A     -0.523019    27A     -0.503852
      28A     -0.485647    29A     -0.467949    30A     -0.463602
      31A     -0.451486    32A     -0.395877

  @DF-RHF Final Energy:  -348.08839994853355

   => Energetics <=

    Nuclear Repulsion Energy =            376.3791864322966489
    One-Electron Energy =               -1217.5020915268100907
    Two-Electron Energy =                 493.0345051459790966
    DFT Exchange-Correlation Energy =       0.0000000000000000
    Empirical Dispersion Energy =           0.0000000000000000
    PCM Polarization Energy =               0.0000000000000000
    EFP Energy =                            0.0000000000000000
    Total Energy =                       -348.0883999485344020

  Mulliken Charges: (a.u.)
   Center  Symbol    Alpha    Beta     Spin     Total
       1     O     4.26282  4.26282  0.00000 -0.52563
       2     C     2.73701  2.73701  0.00000  0.52598
       3     C     3.19825  3.19825  0.00000 -0.39649
       4     C     3.28949  3.28949  0.00000 -0.57899
       5     C     3.16778  3.16778  0.00000 -0.33557
       6     H     0.40166  0.40166  0.00000  0.19668
       7     H     0.41729  0.41729  0.00000  0.16543
       8     C     3.15498  3.15498  0.00000 -0.30996
       9     H     0.40445  0.40445  0.00000  0.19110
      10     H     0.41811  0.41811  0.00000  0.16379
      11     C     3.15519  3.15519  0.00000 -0.31038
      12     H     0.41731  0.41731  0.00000  0.16539
      13     H     0.42170  0.42170  0.00000  0.15661
      14     C     3.24636  3.24636  0.00000 -0.49273
      15     H     0.41881  0.41881  0.00000  0.16238
      16     H     0.41917  0.41917  0.00000  0.16166
      17     H     0.41733  0.41733  0.00000  0.16535
      18     H     0.41683  0.41683  0.00000  0.16634
      19     H     0.42153  0.42153  0.00000  0.15694
      20     H     0.40694  0.40694  0.00000  0.18611
      21     H     0.39715  0.39715  0.00000  0.20569
      22     H     0.40985  0.40985  0.00000  0.18030

   Total alpha = 32.00000, Total beta = 32.00000, Total charge =  0.00000
