  ==> Input File <==

--------------------------------------------------------------------------
set {
	reference rhf
	basis cc-pvtz
}

set_num_threads( 4 )
memory 2 gb

molecule MOL {
0 1

H	 -2.210786	 -0.276991	 -0.639581
O	 -1.432053	 -0.565244	 -0.200812
C	 -0.727158	 0.534527	 0.310686
C	 0.680222	 0.664433	 -0.252229
H	 -1.306802	 1.408001	 0.044211
H	 -0.690821	 0.490158	 1.397609
C	 1.605391	 -0.489360	 0.123098
H	 0.615089	 0.745647	 -1.332226
H	 1.101414	 1.597893	 0.110950
H	 1.247627	 -1.432485	 -0.275204
H	 2.601435	 -0.332816	 -0.273062
H	 1.691776	 -0.589902	 1.200774

	symmetry c1
}
set optking {
	frozen_dihedral = ("
		1 2 3 4
	")
}

ee = optimize('scf')
oeprop('DIPOLE', 'QUADRUPOLE', 'MULLIKEN_CHARGES')
f=open( 'psi4out.xyz', 'w' )
f.write( "12  " )
f.write( str(ee) + "\n" )
f.write( MOL.save_string_xyz() )
f.close()
--------------------------------------------------------------------------

    Molecular point group: c1
  Charge       = 0
  Multiplicity = 1
  Basis Set: CC-PVTZ
  Basis Set:
  @DF-RHF Final Energy:  -193.18810577069459
    Total Energy =                       -193.1881057706947615
    Molecular point group: c1
  Basis Set: CC-PVTZ
  Basis Set:
  Basis Set: CC-PVTZ
  Basis Set:
  @DF-RHF Final Energy:  -193.18918207289559
    Total Energy =                       -193.1891820728954769
  Basis Set: CC-PVTZ
  Basis Set:
  Basis Set: CC-PVTZ
  Basis Set:
  @DF-RHF Final Energy:  -193.18951519789621
    Total Energy =                       -193.1895151978962701
  Basis Set: CC-PVTZ
  Basis Set:
  Basis Set: CC-PVTZ
  Basis Set:
  @DF-RHF Final Energy:  -193.18951920428677
    Total Energy =                       -193.1895192042868530
  Basis Set: CC-PVTZ
  Basis Set:
  Charge       = 0
  Multiplicity = 1
  Basis Set: CC-PVTZ
  Basis Set:

    Orbital Energies (a.u.)
    -----------------------

    Doubly Occupied:

       1A    -20.545288     2A    -11.266579     3A    -11.212934
       4A    -11.201486     5A     -1.363004     6A     -1.047781
       7A     -0.919498     8A     -0.804027     9A     -0.702535
      10A     -0.641572    11A     -0.599325    12A     -0.568595
      13A     -0.538978    14A     -0.508705    15A     -0.480758
      16A     -0.466598    17A     -0.431947

  @DF-RHF Final Energy:  -193.18951978838302

   => Energetics <=

    Nuclear Repulsion Energy =            133.1946615493654065
    One-Electron Energy =                -526.1691477757294706
    Two-Electron Energy =                 199.7849664379810122
    DFT Exchange-Correlation Energy =       0.0000000000000000
    Empirical Dispersion Energy =           0.0000000000000000
    PCM Polarization Energy =               0.0000000000000000
    EFP Energy =                            0.0000000000000000
    Total Energy =                       -193.1895197883830804
    Molecular point group: c1
  Basis Set: CC-PVTZ
  Basis Set:

  -Total Gradient:
     Atom            X                  Y                   Z
    ------   -----------------  -----------------  -----------------
       1        0.000003951085    -0.000002381446     0.000005946110
       2        0.000015027188     0.000047525466    -0.000000664593
       3       -0.000020802905    -0.000049696368    -0.000016412560
       4       -0.000002799458    -0.000035107197     0.000004281170
       5        0.000006716845     0.000011609689    -0.000003501670
       6        0.000022841309    -0.000001766051    -0.000003301120
       7       -0.000004947982     0.000007299094     0.000007738464
       8       -0.000011062172    -0.000000080677    -0.000001183964
       9       -0.000004050936     0.000014842424    -0.000005572302
      10       -0.000000580954     0.000007655362    -0.000002252283
      11       -0.000009319061     0.000011681688     0.000006610762
      12        0.000005027041    -0.000011581983     0.000008311986

  **** Optimization is complete! (in 5 steps) ****
    Final optimized geometry and variables:
    Molecular point group: c1

    Geometry (in Angstrom), charge = 0, multiplicity = 1:

    H           -2.139537081699    -0.372085950138    -0.649583387379
    O           -1.363248614774    -0.609011999698    -0.180880568626
    C           -0.719163889931     0.537957517460     0.319640916950
    C            0.688559127717     0.663720199896    -0.237134576637
    H           -1.288634223861     1.429877664386     0.078009760524
    H           -0.682352022110     0.463017712387     1.402275059196
    C            1.588242963434    -0.510999374095     0.130965856212
    H            0.629142573899     0.757007716093    -1.317320516795
    H            1.119171317337     1.589098061536     0.136656086948
    H            1.175991649995    -1.441978634420    -0.235117304686
    H            2.577957446815    -0.388623604318    -0.293541430127
    H            1.697473928125    -0.594639289950     1.207550745454

  Mulliken Charges: (a.u.)
   Center  Symbol    Alpha    Beta     Spin     Total
       1     H     0.39157  0.39157  0.00000  0.21686
       2     O     4.20532  4.20532  0.00000 -0.41065
       3     C     2.97259  2.97259  0.00000  0.05481
       4     C     3.07563  3.07563  0.00000 -0.15125
       5     H     0.46581  0.46581  0.00000  0.06838
       6     H     0.46824  0.46824  0.00000  0.06352
       7     C     3.14962  3.14962  0.00000 -0.29923
       8     H     0.45890  0.45890  0.00000  0.08220
       9     H     0.45808  0.45808  0.00000  0.08383
      10     H     0.44557  0.44557  0.00000  0.10887
      11     H     0.45107  0.45107  0.00000  0.09785
      12     H     0.45760  0.45760  0.00000  0.08480

   Total alpha = 17.00000, Total beta = 17.00000, Total charge = -0.00000
