                              Psi4 1.0.54 Driver

  ==> Input File <==

--------------------------------------------------------------------------
set {
	reference rhf
	basis cc-pvtz
}

set_num_threads( 4 )
memory 2 gb

molecule MOL {
0 1

H	 -3.464673	 0.442676	 -2.246932
O	 -3.054867	 -0.076414	 -1.579999
C	 -1.803643	 0.464443	 -1.247839
C	 -1.175688	 -0.398187	 -0.171891
H	 -1.157515	 0.494472	 -2.122705
H	 -1.913725	 1.484969	 -0.886954
C	 0.196029	 0.106276	 0.266738
H	 -1.096369	 -1.413294	 -0.548039
H	 -1.849848	 -0.432783	 0.677949
C	 1.330220	 -0.826136	 -0.155230
H	 0.359542	 1.097229	 -0.145561
H	 0.212134	 0.218135	 1.348778
C	 2.719700	 -0.407669	 0.328325
H	 1.339388	 -0.911200	 -1.239363
H	 1.119001	 -1.821953	 0.224128
C	 3.241564	 0.893452	 -0.276737
H	 3.418299	 -1.204729	 0.093035
H	 2.711776	 -0.323368	 1.411960
H	 3.254204	 0.841071	 -1.360784
H	 2.634460	 1.745075	 0.005842
H	 4.254264	 1.092401	 0.054971

	symmetry c1
}
set optking {
	frozen_dihedral = ("
		8 4 7 10
	")
}

ee,wfn = optimize('scf', return_wfn=True)
oeprop( wfn, 'DIPOLE', 'QUADRUPOLE', 'MULLIKEN_CHARGES')
f=open( 'psi4out.xyz', 'w' )
f.write( "21  " )
f.write( str(ee) + "\n" )
f.write( MOL.save_string_xyz() )
f.close()
--------------------------------------------------------------------------

    Molecular point group: c1
  Charge       = 0
  Multiplicity = 1
  Basis Set: CC-PVTZ
  Basis Set:
  @DF-RHF Final Energy:  -310.32806044806063
    Total Energy =                       -310.3280604480605689
    Molecular point group: c1
  Basis Set: CC-PVTZ
  Basis Set:
  Basis Set: CC-PVTZ
  Basis Set:
  @DF-RHF Final Energy:  -310.32831451111144
    Total Energy =                       -310.3283145111118984
  Basis Set: CC-PVTZ
  Basis Set:
  Basis Set: CC-PVTZ
  Basis Set:
  @DF-RHF Final Energy:  -310.32836700846855
    Total Energy =                       -310.3283670084687174
  Basis Set: CC-PVTZ
  Basis Set:
  Basis Set: CC-PVTZ
  Basis Set:
  @DF-RHF Final Energy:  -310.32836747314980
    Total Energy =                       -310.3283674731496831
  Basis Set: CC-PVTZ
  Basis Set:
  Basis Set: CC-PVTZ
  Basis Set:
  @DF-RHF Final Energy:  -310.32837991017658
    Total Energy =                       -310.3283799101765794
  Basis Set: CC-PVTZ
  Basis Set:
  Charge       = 0
  Multiplicity = 1
  Basis Set: CC-PVTZ
  Basis Set:

    Orbital Energies (a.u.)
    -----------------------

    Doubly Occupied:

       1A    -20.545528     2A    -11.265355     3A    -11.213360
       4A    -11.213148     5A    -11.211932     6A    -11.208698
       7A    -11.206771     8A     -1.363682     9A     -1.086429
      10A     -1.033272    11A     -0.955039    12A     -0.877506
      13A     -0.810194    14A     -0.778791    15A     -0.697841
      16A     -0.650667    17A     -0.633101    18A     -0.609618
      19A     -0.586273    20A     -0.569299    21A     -0.538568
      22A     -0.523188    23A     -0.512305    24A     -0.491020
      25A     -0.476292    26A     -0.458022    27A     -0.456867
      28A     -0.446075    29A     -0.434299

  @DF-RHF Final Energy:  -310.32837999103157

   => Energetics <=

    Nuclear Repulsion Energy =            315.0697021447027169
    One-Electron Energy =               -1045.0898811709071197
    Two-Electron Energy =                 419.6917990351728918
    DFT Exchange-Correlation Energy =       0.0000000000000000
    Empirical Dispersion Energy =           0.0000000000000000
    PCM Polarization Energy =               0.0000000000000000
    EFP Energy =                            0.0000000000000000
    Total Energy =                       -310.3283799910315679
    Molecular point group: c1
  Basis Set: CC-PVTZ
  Basis Set:

  -Total Gradient:
     Atom            X                  Y                   Z
    ------   -----------------  -----------------  -----------------
       1        0.000015322581     0.000001863162     0.000001279873
       2        0.000004308287    -0.000009331694     0.000015019049
       3        0.000004697622     0.000018256204    -0.000004600695
       4       -0.000352999737    -0.000970503270     0.002114462693
       5       -0.000005010543    -0.000001987500    -0.000001352384
       6       -0.000004533604    -0.000000702267     0.000000961646
       7        0.000194489916     0.000963782955    -0.001666627207
       8        0.000242647057     0.000585447515    -0.001403171529
       9       -0.000001923747     0.000000371856    -0.000000370157
      10       -0.000092671464    -0.000582581203     0.000945223863
      11        0.000004522163     0.000000134440    -0.000000720896
      12       -0.000003536885    -0.000001664586    -0.000000009042
      13        0.000000269099    -0.000000395335     0.000001093952
      14        0.000001083045     0.000000507252     0.000000085445
      15        0.000004451921     0.000002777382     0.000002587023
      16       -0.000006356476    -0.000002887857    -0.000003605443
      17       -0.000000429706    -0.000001401421    -0.000000945108
      18       -0.000003350574    -0.000003192724     0.000001975128
      19        0.000001054170     0.000002894887    -0.000002464385
      20       -0.000001374057     0.000001237719    -0.000000687711
      21       -0.000000659070    -0.000002625515     0.000001865883

  **** Optimization is complete! (in 6 steps) ****
    Final optimized geometry and variables:
    Molecular point group: c1

    Geometry (in Angstrom), charge = 0, multiplicity = 1:

    H           -3.595127196617     0.504973809557    -1.791815171036
    O           -3.191334137924    -0.036028429789    -1.138789068310
    C           -1.956718722362     0.507213773223    -0.756323016419
    C           -1.341828118895    -0.384442245338     0.305453930964
    H           -1.287736875496     0.575962945547    -1.612296000867
    H           -2.087649897014     1.512970637665    -0.362559268770
    C            0.052475739231     0.099535960056     0.745933362387
    H           -1.282844194092    -1.387008914557    -0.102943787232
    H           -2.022231647047    -0.428724651166     1.147066990921
    C            1.183920911668    -0.820962307179     0.287643808797
    H            0.220952969881     1.104907407752     0.373837955193
    H            0.088023654616     0.175428209480     1.827942722738
    C            2.583220926838    -0.388721829655     0.727688367835
    H            1.160874888738    -0.909987149812    -0.796617204621
    H            0.991586384623    -1.816988174623     0.675494625663
    C            3.084066942586     0.904167028369     0.088056794895
    H            3.279378611453    -1.186425366355     0.487421080479
    H            2.602708746138    -0.286735034224     1.809668078137
    H            3.070446136592     0.833089522394    -0.994946615106
    H            2.480873593313     1.758377623002     0.370987032150
    H            4.103776762114     1.112719157707     0.391025223739

  Mulliken Charges: (a.u.)
   Center  Symbol    Alpha    Beta     Spin     Total
       1     H     0.39731  0.39731  0.00000  0.20538
       2     O     4.19480  4.19480  0.00000 -0.38959
       3     C     2.96238  2.96238  0.00000  0.07525
       4     C     3.08880  3.08880  0.00000 -0.17760
       5     H     0.47485  0.47485  0.00000  0.05029
       6     H     0.47424  0.47424  0.00000  0.05152
       7     C     3.11247  3.11247  0.00000 -0.22494
       8     H     0.45160  0.45160  0.00000  0.09680
       9     H     0.44600  0.44600  0.00000  0.10799
      10     C     3.09318  3.09318  0.00000 -0.18635
      11     H     0.45441  0.45441  0.00000  0.09118
      12     H     0.44685  0.44685  0.00000  0.10630
      13     C     3.09041  3.09041  0.00000 -0.18082
      14     H     0.45388  0.45388  0.00000  0.09223
      15     H     0.44739  0.44739  0.00000  0.10521
      16     C     3.15285  3.15285  0.00000 -0.30571
      17     H     0.44840  0.44840  0.00000  0.10320
      18     H     0.45480  0.45480  0.00000  0.09039
      19     H     0.45500  0.45500  0.00000  0.09001
      20     H     0.45425  0.45425  0.00000  0.09150
      21     H     0.44611  0.44611  0.00000  0.10777

   Total alpha = 29.00000, Total beta = 29.00000, Total charge = -0.00000

*** Psi4 exiting successfully. Buy a developer a beer!
