                              Psi4 1.0.54 Driver

  ==> Input File <==

--------------------------------------------------------------------------
set {
	reference rhf
	basis cc-pvtz
}

set_num_threads( 4 )
memory 2 gb

molecule MOL {
0 1

H	 -2.698799	 -0.000846	 0.036018
C	 -1.694291	 -0.000483	 0.434279
O	 -0.828718	 -0.000608	 -0.655022
H	 -1.576855	 0.881100	 1.056504
H	 -1.576401	 -0.881658	 1.057001
C	 0.557892	 0.000078	 -0.420099
C	 0.945170	 -0.824467	 0.802363
C	 1.361610	 -0.385631	 -1.656835
H	 0.770848	 1.038475	 -0.198738
H	 0.330270	 -0.551736	 1.651229
H	 1.981480	 -0.637106	 1.058689
H	 0.839302	 -1.889053	 0.629070
H	 1.035574	 0.191477	 -2.513393
H	 2.413089	 -0.182427	 -1.489886
H	 1.266700	 -1.438534	 -1.895433

	symmetry c1
}
set optking {
	frozen_dihedral = ("
		9 6 3 2
	")
}

ee,wfn = optimize('scf', return_wfn=True)
oeprop( wfn, 'DIPOLE', 'QUADRUPOLE', 'MULLIKEN_CHARGES')
f=open( 'psi4out.xyz', 'w' )
f.write( "15  " )
f.write( str(ee) + "\n" )
f.write( MOL.save_string_xyz() )
f.close()
--------------------------------------------------------------------------

    Molecular point group: c1
  Charge       = 0
  Multiplicity = 1
  Basis Set: CC-PVTZ
  Basis Set:
  @DF-RHF Final Energy:  -232.22155636857661
    Total Energy =                       -232.2215563685766710
    Molecular point group: c1
  Basis Set: CC-PVTZ
  Basis Set:
  Basis Set: CC-PVTZ
  Basis Set:
  @DF-RHF Final Energy:  -232.05623335175849
    Total Energy =                       -232.0562333517584648
  Basis Set: CC-PVTZ
  Basis Set:
  Basis Set: CC-PVTZ
  Basis Set:
  @DF-RHF Final Energy:  -232.16015484774314
    Total Energy =                       -232.1601548477433425
  Basis Set: CC-PVTZ
  Basis Set:
  Basis Set: CC-PVTZ
  Basis Set:
  @DF-RHF Final Energy:  -232.22190785458844
    Total Energy =                       -232.2219078545884372
  Basis Set: CC-PVTZ
  Basis Set:
  @DF-RHF Final Energy:  -232.22562336807854
    Total Energy =                       -232.2256233680786863
  @DF-RHF Final Energy:  -232.22686467352560
    Total Energy =                       -232.2268646735255970
  Basis Set: CC-PVTZ
  Basis Set:
  @DF-RHF Final Energy:  -232.22715883041786
    Total Energy =                       -232.2271588304178067
  Basis Set: CC-PVTZ
  Basis Set:
  Basis Set: CC-PVTZ
  Basis Set:
  @DF-RHF Final Energy:  -232.22718927922790
    Total Energy =                       -232.2271892792278436
  Basis Set: CC-PVTZ
  Basis Set:
  Basis Set: CC-PVTZ
  Basis Set:
  @DF-RHF Final Energy:  -232.22719291572744
    Total Energy =                       -232.2271929157275281
  Basis Set: CC-PVTZ
  Basis Set:
  Charge       = 0
  Multiplicity = 1
  Basis Set: CC-PVTZ
  Basis Set:

    Orbital Energies (a.u.)
    -----------------------

    Doubly Occupied:

       1A    -20.543016     2A    -11.273088     3A    -11.259927
       4A    -11.211397     5A    -11.203524     6A     -1.375720
       7A     -1.054145     8A     -0.948973     9A     -0.913364
      10A     -0.787885    11A     -0.677859    12A     -0.642158
      13A     -0.633880    14A     -0.593613    15A     -0.550399
      16A     -0.543505    17A     -0.525893    18A     -0.500315
      19A     -0.496048    20A     -0.451327    21A     -0.409253

  @DF-RHF Final Energy:  -232.22719328736116

   => Energetics <=

    Nuclear Repulsion Energy =            198.1809936084962374
    One-Electron Energy =                -707.6258010565843506
    Two-Electron Energy =                 277.2176141607268391
    DFT Exchange-Correlation Energy =       0.0000000000000000
    Empirical Dispersion Energy =           0.0000000000000000
    PCM Polarization Energy =               0.0000000000000000
    EFP Energy =                            0.0000000000000000
    Total Energy =                       -232.2271932873612741
    Molecular point group: c1
  Basis Set: CC-PVTZ
  Basis Set:

  -Total Gradient:
     Atom            X                  Y                   Z
    ------   -----------------  -----------------  -----------------
       1        0.000005667585    -0.000005949574    -0.000019792317
       2        0.001666800784    -0.003398090229     0.001375696259
       3       -0.001881063012     0.005042849517    -0.002935804254
       4        0.000004769348     0.000018855353    -0.000001369300
       5       -0.000023600593     0.000003083010    -0.000016969756
       6       -0.002172800523    -0.002178775708     0.005587648838
       7        0.000007119557    -0.000002937233    -0.000012201702
       8        0.000021955314    -0.000033424314     0.000014168808
       9        0.002349421562     0.000556698680    -0.003985584977
      10       -0.000000480763     0.000006469908     0.000003752267
      11        0.000009712380     0.000007054515    -0.000005424429
      12        0.000001934590    -0.000007220282    -0.000003822457
      13       -0.000010077867     0.000003124837     0.000001284632
      14        0.000003277109    -0.000000369222     0.000007790945
      15        0.000017364528    -0.000011369257    -0.000009372558

  **** Optimization is complete! (in 10 steps) ****
    Final optimized geometry and variables:
    Molecular point group: c1

    Geometry (in Angstrom), charge = 0, multiplicity = 1:

    H           -2.479585282358    -1.024173190265    -0.707451830753
    C           -1.807433523847    -0.579399035393     0.012584749813
    O           -0.635151996006    -0.265164214957    -0.663916360811
    H           -2.287821966511     0.304852648551     0.427485167769
    H           -1.644380165224    -1.291800870654     0.813905958584
    C            0.345585250523     0.486381116181     0.005801497818
    C            0.580630815520     0.066888799339     1.450468492247
    C            1.612195109466     0.349031356054    -0.823680404847
    H            0.051483692723     1.535967820975    -0.026116162648
    H           -0.284188862716     0.238108633240     2.077982623258
    H            1.400770924030     0.643407272856     1.861018328529
    H            0.844398709629    -0.983605756288     1.507388777635
    H            1.415087254991     0.626210633362    -1.851077473382
    H            2.395982943661     0.990431210778    -0.437410937215
    H            1.964950176891    -0.675791494056    -0.810870291803

  Mulliken Charges: (a.u.)
   Center  Symbol    Alpha    Beta     Spin     Total
       1     H     0.44319  0.44319  0.00000  0.11362
       2     C     3.03987  3.03987  0.00000 -0.07974
       3     O     4.18169  4.18169  0.00000 -0.36339
       4     H     0.47139  0.47139  0.00000  0.05723
       5     H     0.46812  0.46812  0.00000  0.06376
       6     C     2.92239  2.92239  0.00000  0.15522
       7     C     3.16594  3.16594  0.00000 -0.33187
       8     C     3.14052  3.14052  0.00000 -0.28104
       9     H     0.46309  0.46309  0.00000  0.07382
      10     H     0.44706  0.44706  0.00000  0.10587
      11     H     0.44588  0.44588  0.00000  0.10824
      12     H     0.44980  0.44980  0.00000  0.10040
      13     H     0.44609  0.44609  0.00000  0.10782
      14     H     0.45966  0.45966  0.00000  0.08068
      15     H     0.45531  0.45531  0.00000  0.08937

   Total alpha = 21.00000, Total beta = 21.00000, Total charge = -0.00000

*** Psi4 exiting successfully. Buy a developer a beer!
