  ==> Input File <==

--------------------------------------------------------------------------
set {
	reference rhf
	basis 6-31G*
}

set_num_threads( 4 )
memory 2 gb

molecule MOL {
0 1

H	 -3.581306	 -0.272170	 0.702178
C	 -3.377600	 -0.051814	 -0.353080
C	 -2.525885	 1.167999	 -0.596485
O	 -3.818757	 -0.752290	 -1.205409
C	 -1.220012	 1.144545	 0.209990
H	 -2.335782	 1.245689	 -1.660691
H	 -3.115294	 2.034282	 -0.298482
C	 -0.252658	 0.041456	 -0.226725
H	 -0.735193	 2.110853	 0.107597
H	 -1.450926	 1.032563	 1.268241
C	 1.180775	 0.282413	 0.250794
H	 -0.266029	 -0.034465	 -1.312038
H	 -0.597733	 -0.921000	 0.146291
C	 2.148627	 -0.814315	 -0.201312
H	 1.516199	 1.249228	 -0.115937
H	 1.192670	 0.346017	 1.338083
C	 3.580890	 -0.659131	 0.322722
H	 2.166869	 -0.852443	 -1.289387
H	 1.762857	 -1.776509	 0.128956
C	 4.324889	 0.564933	 -0.213704
H	 4.142010	 -1.551473	 0.056605
H	 3.564836	 -0.624694	 1.410140
H	 4.342616	 0.565491	 -1.300421
H	 3.866655	 1.493402	 0.110242
H	 5.353900	 0.572371	 0.132816

	symmetry c1
}
set optking {
	frozen_dihedral = ("
		3 5 8 12
	")
}

ee = optimize('scf')
oeprop('DIPOLE', 'QUADRUPOLE', 'MULLIKEN_CHARGES')
f=open( 'psi4out.xyz', 'w' )
f.write( "25  " )
f.write( str(ee) + "\n" )
f.write( MOL.save_string_xyz() )
f.close()
--------------------------------------------------------------------------

    Molecular point group: c1
  Charge       = 0
  Multiplicity = 1
  Basis Set: 6-31G*
  Basis Set:
  @DF-RHF Final Energy:  -387.12100462032225
    Total Energy =                       -387.1210046203214006
    Molecular point group: c1
  Basis Set: 6-31G*
  Basis Set:
  Basis Set: 6-31G*
  Basis Set:
  @DF-RHF Final Energy:  -387.12076497936999
    Total Energy =                       -387.1207649793700512
  Basis Set: 6-31G*
  Basis Set:
  Basis Set: 6-31G*
  Basis Set:
  @DF-RHF Final Energy:  -387.11994317858966
    Total Energy =                       -387.1199431785887555
  Basis Set: 6-31G*
  Basis Set:
  Basis Set: 6-31G*
  Basis Set:
  @DF-RHF Final Energy:  -387.12104852805720
    Total Energy =                       -387.1210485280570310
  Basis Set: 6-31G*
  Basis Set:
  @DF-RHF Final Energy:  -387.12110508014848
    Total Energy =                       -387.1211050801482543
  Basis Set: 6-31G*
  Basis Set:
  @DF-RHF Final Energy:  -387.12111322541318
    Total Energy =                       -387.1211132254136373
  Basis Set: 6-31G*
  Basis Set:
  Basis Set: 6-31G*
  Basis Set:
  @DF-RHF Final Energy:  -387.12112862655096
    Total Energy =                       -387.1211286265503304
  Basis Set: 6-31G*
  Basis Set:
  Basis Set: 6-31G*
  Basis Set:
  @DF-RHF Final Energy:  -387.12115150875235
    Total Energy =                       -387.1211515087513817
  Basis Set: 6-31G*
  Basis Set:
  Charge       = 0
  Multiplicity = 1
  Basis Set: 6-31G*
  Basis Set:

    Orbital Energies (a.u.)
    -----------------------

    Doubly Occupied:

       1A    -20.561769     2A    -11.325870     3A    -11.235315
       4A    -11.234685     5A    -11.223713     6A    -11.220040
       7A    -11.218027     8A    -11.216919     9A    -11.210604
      10A     -1.401624    11A     -1.103573    12A     -1.069588
      13A     -1.013258    14A     -0.942221    15A     -0.875322
      16A     -0.821616    17A     -0.786856    18A     -0.781836
      19A     -0.664940    20A     -0.660285    21A     -0.633086
      22A     -0.625761    23A     -0.600689    24A     -0.594178
      25A     -0.576895    26A     -0.547298    27A     -0.537187
      28A     -0.524515    29A     -0.508404    30A     -0.495342
      31A     -0.491855    32A     -0.478420    33A     -0.464326
      34A     -0.459214    35A     -0.441302    36A     -0.408976

  @DF-RHF Final Energy:  -387.12115072548784

   => Energetics <=

    Nuclear Repulsion Energy =            439.0474941407092047
    One-Electron Energy =               -1394.4262738376187372
    Two-Electron Energy =                 568.2576289714216955
    DFT Exchange-Correlation Energy =       0.0000000000000000
    Empirical Dispersion Energy =           0.0000000000000000
    PCM Polarization Energy =               0.0000000000000000
    EFP Energy =                            0.0000000000000000
    Total Energy =                       -387.1211507254878370
    Molecular point group: c1
  Basis Set: 6-31G*
  Basis Set:

  -Total Gradient:
     Atom            X                  Y                   Z
    ------   -----------------  -----------------  -----------------
       1       -0.000015333410     0.000008873245     0.000001883154
       2        0.000067550647    -0.000052602452     0.000003597461
       3        0.000897906803     0.001397666296    -0.001396408982
       4       -0.000023908797     0.000032167602    -0.000001855409
       5       -0.001761483449    -0.002415059946     0.002057554206
       6       -0.000012601956     0.000010630010    -0.000003786327
       7       -0.000027013627     0.000002970779    -0.000009268915
       8        0.003003246536     0.003007790399    -0.000827600285
       9       -0.000016645866    -0.000008530021    -0.000025842733
      10        0.000005165554     0.000038099576     0.000015648905
      11       -0.000009857434    -0.000041799380     0.000018762410
      12       -0.002124843362    -0.002037694239     0.000196579975
      13       -0.000011968822     0.000017056922    -0.000012018773
      14        0.000012713976     0.000038808879    -0.000031540487
      15       -0.000080667220    -0.000036045924    -0.000004712394
      16        0.000036876776     0.000005552694     0.000017142129
      17       -0.000018364551     0.000016386652     0.000045914282
      18        0.000017606818     0.000030754845    -0.000012519840
      19       -0.000006966612    -0.000000213830    -0.000029427505
      20        0.000031860568     0.000000495616    -0.000012244828
      21       -0.000016173871    -0.000012907931     0.000018744909
      22        0.000001711475     0.000020686361     0.000007206138
      23        0.000003013446     0.000006332426    -0.000008441551
      24        0.000051240316    -0.000024347298    -0.000000231396
      25       -0.000003063934    -0.000005071280    -0.000007134142

  **** Optimization is complete! (in 9 steps) ****
    Final optimized geometry and variables:
    Molecular point group: c1

    Geometry (in Angstrom), charge = 0, multiplicity = 1:

    H           -3.569644653963    -0.440616425716     0.918862385655
    C           -3.367991252821    -0.183978271526    -0.128613726619
    C           -2.563168611086     1.074057589303    -0.333386619820
    O           -3.779153842984    -0.876082622281    -1.002703593367
    C           -1.242272965767     1.061854754338     0.449004873892
    H           -2.390391921121     1.200270713809    -1.395685617185
    H           -3.174890728184     1.907654024691     0.009077877041
    C           -0.265250578454    -0.025492298756    -0.014167751073
    H           -0.779375619629     2.037572931371     0.330119783818
    H           -1.442144895988     0.951144596011     1.512789951429
    C            1.167474854528     0.207319335017     0.466623767660
    H           -0.291399412521    -0.098692468892    -1.099244187336
    H           -0.608926530914    -0.994237814178     0.345376571060
    C            2.126449536694    -0.906677134382     0.038870582626
    H            1.514067037864     1.164722309057     0.086432313543
    H            1.173446580914     0.288702526187     1.552855772085
    C            3.556220687695    -0.759946772536     0.572186617327
    H            2.153080158396    -0.960521936302    -1.048270129850
    H            1.727166238889    -1.859623667694     0.379469788231
    C            4.322239102192     0.442343579293     0.017110229856
    H            4.107057702542    -1.665446747745     0.330365399954
    H            3.530691526007    -0.702323455759     1.658543194487
    H            4.353061930553     0.417676189583    -1.068896153634
    H            3.872612440378     1.384032826981     0.314170254337
    H            5.346968639260     0.444721524182     0.375603084621

  Mulliken Charges: (a.u.)
   Center  Symbol    Alpha    Beta     Spin     Total
       1     H     0.43271  0.43271  0.00000  0.13457
       2     C     2.83061  2.83061  0.00000  0.33877
       3     C     3.20886  3.20886  0.00000 -0.41772
       4     O     4.23774  4.23774  0.00000 -0.47549
       5     C     3.16595  3.16595  0.00000 -0.33191
       6     H     0.39967  0.39967  0.00000  0.20066
       7     H     0.40714  0.40714  0.00000  0.18572
       8     C     3.15646  3.15646  0.00000 -0.31292
       9     H     0.41320  0.41320  0.00000  0.17361
      10     H     0.41831  0.41831  0.00000  0.16339
      11     C     3.15423  3.15423  0.00000 -0.30847
      12     H     0.41594  0.41594  0.00000  0.16812
      13     H     0.41975  0.41975  0.00000  0.16050
      14     C     3.15328  3.15328  0.00000 -0.30656
      15     H     0.42046  0.42046  0.00000  0.15909
      16     H     0.42365  0.42365  0.00000  0.15270
      17     C     3.15282  3.15282  0.00000 -0.30563
      18     H     0.42252  0.42252  0.00000  0.15496
      19     H     0.42095  0.42095  0.00000  0.15810
      20     C     3.24132  3.24132  0.00000 -0.48264
      21     H     0.41995  0.41995  0.00000  0.16009
      22     H     0.42336  0.42336  0.00000  0.15327
      23     H     0.42170  0.42170  0.00000  0.15660
      24     H     0.42072  0.42072  0.00000  0.15855
      25     H     0.41869  0.41869  0.00000  0.16263

   Total alpha = 36.00000, Total beta = 36.00000, Total charge = -0.00000
