                              Psi4 1.0.54 Driver

  ==> Input File <==

--------------------------------------------------------------------------
set {
	reference rhf
	basis cc-pvtz
}

set_num_threads( 4 )
memory 2 gb

molecule MOL {
0 1

H	 -0.000105	 1.988529	 0.748933
O	 -0.000098	 1.879786	 -0.188206
C	 -0.000014	 0.545691	 -0.532416
C	 -1.286000	 -0.125171	 -0.046657
C	 1.286016	 -0.125031	 -0.046584
H	 0.000021	 0.481103	 -1.610604
F	 -2.312994	 0.621283	 -0.370617
F	 -1.463447	 -1.306886	 -0.581235
F	 -1.289472	 -0.262573	 1.261962
F	 2.317750	 0.468717	 -0.594166
F	 1.336617	 -1.393765	 -0.365123
F	 1.414467	 -0.024806	 1.259108

	symmetry c1
}
set optking {
	frozen_dihedral = ("
		7 4 3 6
	")
}

ee,wfn = optimize('scf', return_wfn=True)
oeprop( wfn, 'DIPOLE', 'QUADRUPOLE', 'MULLIKEN_CHARGES')
f=open( 'psi4out.xyz', 'w' )
f.write( "12  " )
f.write( str(ee) + "\n" )
f.write( MOL.save_string_xyz() )
f.close()
--------------------------------------------------------------------------

    Molecular point group: c1
  Charge       = 0
  Multiplicity = 1
  Basis Set: CC-PVTZ
  Basis Set:
  @DF-RHF Final Energy:  -786.58864320640168
    Total Energy =                       -786.5886432064013434
    Molecular point group: c1
  Basis Set: CC-PVTZ
  Basis Set:
  Basis Set: CC-PVTZ
  Basis Set:
  @DF-RHF Final Energy:  -786.58895598621302
    Total Energy =                       -786.5889559862129090
  Basis Set: CC-PVTZ
  Basis Set:
  Basis Set: CC-PVTZ
  Basis Set:
  @DF-RHF Final Energy:  -786.58909044170503
    Total Energy =                       -786.5890904417046841
  Basis Set: CC-PVTZ
  Basis Set:
  Basis Set: CC-PVTZ
  Basis Set:
  @DF-RHF Final Energy:  -786.58910703696745
    Total Energy =                       -786.5891070369671070
  Basis Set: CC-PVTZ
  Basis Set:
  Basis Set: CC-PVTZ
  Basis Set:
  @DF-RHF Final Energy:  -786.58910934180972
    Total Energy =                       -786.5891093418094897
  Basis Set: CC-PVTZ
  Basis Set:
  Charge       = 0
  Multiplicity = 1
  Basis Set: CC-PVTZ
  Basis Set:

    Orbital Energies (a.u.)
    -----------------------

    Doubly Occupied:

       1A    -26.358646     2A    -26.358213     3A    -26.356914
       4A    -26.356493     5A    -26.354370     6A    -26.353304
       7A    -20.610385     8A    -11.520170     9A    -11.518811
      10A    -11.351566    11A     -1.771976    12A     -1.766109
      13A     -1.667497    14A     -1.663523    15A     -1.662710
      16A     -1.660706    17A     -1.440368    18A     -1.103487
      19A     -1.001402    20A     -0.945064    21A     -0.870807
      22A     -0.868774    23A     -0.859266    24A     -0.852285
      25A     -0.839615    26A     -0.821668    27A     -0.748558
      28A     -0.734400    29A     -0.731949    30A     -0.725962
      31A     -0.696088    32A     -0.692042    33A     -0.690397
      34A     -0.681424    35A     -0.677228    36A     -0.668482
      37A     -0.664057    38A     -0.658334    39A     -0.625121
      40A     -0.553465    41A     -0.510210

  @DF-RHF Final Energy:  -786.58910985839054

   => Energetics <=

    Nuclear Repulsion Energy =            671.2756089181808647
    One-Electron Energy =               -2429.7457389169330781
    Two-Electron Energy =                 971.8810201403615565
    DFT Exchange-Correlation Energy =       0.0000000000000000
    Empirical Dispersion Energy =           0.0000000000000000
    PCM Polarization Energy =               0.0000000000000000
    EFP Energy =                            0.0000000000000000
    Total Energy =                       -786.5891098583907706
    Molecular point group: c1
  Basis Set: CC-PVTZ
  Basis Set:

  -Total Gradient:
     Atom            X                  Y                   Z
    ------   -----------------  -----------------  -----------------
       1       -0.000003831567     0.000003122919    -0.000005627191
       2       -0.000008234393    -0.000025683566    -0.000009322802
       3       -0.001051956992     0.002209549460     0.000372648112
       4       -0.000004725786    -0.001266014655    -0.001811394068
       5        0.000001371922     0.000023324410    -0.000032078466
       6        0.000908776232    -0.001657776339     0.000061255502
       7        0.000101667404     0.000788044418     0.001384042505
       8        0.000046899901    -0.000065926180    -0.000003517894
       9        0.000058005639    -0.000007652085     0.000030464848
      10       -0.000000329708    -0.000039472330     0.000053766251
      11       -0.000034028285     0.000075646641     0.000019974951
      12       -0.000013614365    -0.000037162685    -0.000060211748

  **** Optimization is complete! (in 6 steps) ****
    Final optimized geometry and variables:
    Molecular point group: c1

    Geometry (in Angstrom), charge = 0, multiplicity = 1:

    H            0.074832148081     1.983777599320     0.798722983266
    O            0.022137322742     1.897605749781    -0.139236986265
    C           -0.003745226793     0.574247394173    -0.516384209832
    C           -1.284754601178    -0.115066229353    -0.039772448385
    C            1.277158697395    -0.128494630828    -0.060238582337
    H           -0.009696678820     0.528213167678    -1.595557709268
    F           -2.321868447955     0.624101227102    -0.343163001324
    F           -1.440712330554    -1.286174559084    -0.604702077047
    F           -1.289482204164    -0.285243842435     1.265576700812
    F            2.303424024147     0.376179528594    -0.700219175846
    F            1.247458541595    -1.416287500528    -0.295178844305
    F            1.486250942422     0.047686995831     1.226516552234

  Mulliken Charges: (a.u.)
   Center  Symbol    Alpha    Beta     Spin     Total
       1     H     0.38180  0.38180  0.00000  0.23641
       2     O     4.18842  4.18842  0.00000 -0.37685
       3     C     3.00544  3.00544  0.00000 -0.01088
       4     C     2.68527  2.68527  0.00000  0.62945
       5     C     2.68396  2.68396  0.00000  0.63207
       6     H     0.42526  0.42526  0.00000  0.14948
       7     F     4.60097  4.60097  0.00000 -0.20194
       8     F     4.60377  4.60377  0.00000 -0.20754
       9     F     4.60969  4.60969  0.00000 -0.21938
      10     F     4.60248  4.60248  0.00000 -0.20496
      11     F     4.60249  4.60249  0.00000 -0.20497
      12     F     4.61045  4.61045  0.00000 -0.22090

   Total alpha = 41.00000, Total beta = 41.00000, Total charge = -0.00000

*** Psi4 exiting successfully. Buy a developer a beer!
