  ==> Input File <==

--------------------------------------------------------------------------
set {
	reference rhf
	basis 6-31G*
}

set_num_threads( 4 )
memory 2 gb

molecule MOL {
0 1

H	 2.612987	 1.638072	 -2.139937
O	 1.678345	 1.529849	 -2.246422
C	 1.117919	 1.028062	 -1.124582
C	 1.862338	 0.727818	 0.008996
C	 -0.249503	 0.814644	 -1.130886
H	 2.926383	 0.894656	 0.011816
C	 1.239531	 0.214857	 1.134453
H	 -0.825678	 1.046129	 -2.005822
C	 -0.865228	 0.300799	 0.000000
H	 1.826083	 -0.013643	 2.005730
C	 -0.126583	 -0.001609	 1.136980
C	 -2.333960	 0.069074	 0.000000
H	 -0.612401	 -0.399969	 2.010076
O	 -2.847347	 -1.003763	 0.000000
H	 -2.943845	 0.977528	 0.000000

	symmetry c1
}
set optking {
	frozen_dihedral = ("
		11 9 12 14
	")
}

ee = optimize('scf')
oeprop('DIPOLE', 'QUADRUPOLE', 'MULLIKEN_CHARGES')
f=open( 'psi4out.xyz', 'w' )
f.write( "15  " )
f.write( str(ee) + "\n" )
f.write( MOL.save_string_xyz() )
f.close()
--------------------------------------------------------------------------

    Molecular point group: c1
  Charge       = 0
  Multiplicity = 1
  Basis Set: 6-31G*
  Basis Set:
  @DF-RHF Final Energy:  -418.27486505683652
    Total Energy =                       -418.2748650568362336
    Molecular point group: c1
  Basis Set: 6-31G*
  Basis Set:
  Basis Set: 6-31G*
  Basis Set:
  @DF-RHF Final Energy:  -418.27467343976815
    Total Energy =                       -418.2746734397682076
  Basis Set: 6-31G*
  Basis Set:
  Basis Set: 6-31G*
  Basis Set:
  @DF-RHF Final Energy:  -418.27475042466313
    Total Energy =                       -418.2747504246635799
  Basis Set: 6-31G*
  Basis Set:
  Basis Set: 6-31G*
  Basis Set:
  @DF-RHF Final Energy:  -418.27539742769312
    Total Energy =                       -418.2753974276931785
  Basis Set: 6-31G*
  Basis Set:
  Basis Set: 6-31G*
  Basis Set:
  @DF-RHF Final Energy:  -418.27543807751687
    Total Energy =                       -418.2754380775172649
  Basis Set: 6-31G*
  Basis Set:
  Charge       = 0
  Multiplicity = 1
  Basis Set: 6-31G*
  Basis Set:

    Orbital Energies (a.u.)
    -----------------------

    Doubly Occupied:

       1A    -20.603562     2A    -20.572229     3A    -11.336267
       4A    -11.314213     5A    -11.256914     6A    -11.251639
       7A    -11.243169     8A    -11.241176     9A    -11.239357
      10A     -1.423272    11A     -1.411401    12A     -1.168077
      13A     -1.048804    14A     -1.023470    15A     -0.899524
      16A     -0.842488    17A     -0.816671    18A     -0.738541
      19A     -0.699749    20A     -0.671103    21A     -0.668856
      22A     -0.635780    23A     -0.613485    24A     -0.601420
      25A     -0.582395    26A     -0.542440    27A     -0.531144
      28A     -0.512704    29A     -0.491280    30A     -0.423280
      31A     -0.353623    32A     -0.324072

  @DF-RHF Final Energy:  -418.27543935769199

   => Energetics <=

    Nuclear Repulsion Energy =            401.6885188840542469
    One-Electron Energy =               -1365.7637047025145876
    Two-Electron Energy =                 545.7997464607685743
    DFT Exchange-Correlation Energy =       0.0000000000000000
    Empirical Dispersion Energy =           0.0000000000000000
    PCM Polarization Energy =               0.0000000000000000
    EFP Energy =                            0.0000000000000000
    Total Energy =                       -418.2754393576917664
    Molecular point group: c1
  Basis Set: 6-31G*
  Basis Set:

  -Total Gradient:
     Atom            X                  Y                   Z
    ------   -----------------  -----------------  -----------------
       1        0.000003439960     0.000009724922    -0.000016048425
       2        0.000034360743     0.000001093409     0.000000859330
       3       -0.000191201202     0.000011165078    -0.000090772841
       4        0.000011133724    -0.000112222172     0.000150035090
       5        0.000128729898     0.000071951478    -0.000027941528
       6       -0.000004779633     0.000016160626    -0.000001686685
       7        0.000110471783     0.000048548246    -0.000057567820
       8       -0.000003818919    -0.000002265977     0.000000352028
       9        0.000783433853    -0.006166745467    -0.004360697057
      10       -0.000007182454    -0.000012268833     0.000008173828
      11       -0.000636116743     0.004183655892     0.001355024115
      12       -0.000249251858     0.002123611542     0.008384531624
      13        0.000005852914    -0.000005239236     0.000000574869
      14       -0.000000124117    -0.000171955422    -0.005349556260
      15        0.000015052061     0.000004785920     0.000004719734

  **** Optimization is complete! (in 6 steps) ****
    Final optimized geometry and variables:
    Molecular point group: c1

    Geometry (in Angstrom), charge = 0, multiplicity = 1:

    H            2.671183706724     1.225324003718    -1.861986235045
    O            1.734596680048     1.122560950240    -1.957594546715
    C            1.188424211050     0.613852770100    -0.832584117304
    C            1.938253597890     0.321340183424     0.296031885058
    C           -0.181780906602     0.397524081816    -0.832206191385
    H            3.000260678337     0.499536432352     0.299406244263
    C            1.314169809233    -0.194846869081     1.420215323732
    H           -0.745457362891     0.646841280051    -1.713102433822
    C           -0.789161486553    -0.146758441444     0.286008454633
    H            1.900082369319    -0.412782225949     2.294843201706
    C           -0.048196635939    -0.431593874558     1.426372076078
    C           -2.276425869505    -0.336469850572     0.289147538663
    H           -0.528392988184    -0.843125451559     2.294829517143
    O           -2.809966327212    -1.396816166343     0.320777652633
    H           -2.867464862663     0.581040942549     0.218941301869

  Mulliken Charges: (a.u.)
   Center  Symbol    Alpha    Beta     Spin     Total
       1     H     0.27002  0.27002  0.00000  0.45996
       2     O     4.37665  4.37665  0.00000 -0.75330
       3     C     2.79087  2.79087  0.00000  0.41827
       4     C     3.14125  3.14125  0.00000 -0.28249
       5     C     3.13087  3.13087  0.00000 -0.26173
       6     H     0.40037  0.40037  0.00000  0.19926
       7     C     3.08944  3.08944  0.00000 -0.17888
       8     H     0.38552  0.38552  0.00000  0.22895
       9     C     3.02308  3.02308  0.00000 -0.04617
      10     H     0.39328  0.39328  0.00000  0.21343
      11     C     3.11424  3.11424  0.00000 -0.22847
      12     C     2.84948  2.84948  0.00000  0.30104
      13     H     0.38935  0.38935  0.00000  0.22131
      14     O     4.22418  4.22418  0.00000 -0.44835
      15     H     0.42141  0.42141  0.00000  0.15717

   Total alpha = 32.00000, Total beta = 32.00000, Total charge = -0.00000
