                              Psi4 1.0.54 Driver

  ==> Input File <==

--------------------------------------------------------------------------
set {
	reference rhf
	basis cc-pvtz
}

set_num_threads( 4 )
memory 2 gb

molecule MOL {
0 1

H	 0.836009	 -0.882622	 1.550771
O	 1.223400	 -0.589882	 0.745362
C	 0.672535	 0.636476	 0.376282
C	 -0.793473	 0.591216	 0.050087
H	 1.221934	 0.969248	 -0.496487
H	 0.837507	 1.384243	 1.149799
C	 -1.534243	 -0.493009	 -0.013340
H	 -1.239940	 1.552481	 -0.144552
H	 -1.101195	 -1.466332	 -0.144046
H	 -2.604242	 -0.437780	 0.050785

	symmetry c1
}
set optking {
	frozen_dihedral = ("
		3 4 7 9
	")
}

ee,wfn = optimize('scf', return_wfn=True)
oeprop( wfn, 'DIPOLE', 'QUADRUPOLE', 'MULLIKEN_CHARGES')
f=open( 'psi4out.xyz', 'w' )
f.write( "10  " )
f.write( str(ee) + "\n" )
f.write( MOL.save_string_xyz() )
f.close()
--------------------------------------------------------------------------

    Molecular point group: c1
  Charge       = 0
  Multiplicity = 1
  Basis Set: CC-PVTZ
  Basis Set:
  @DF-RHF Final Energy:  -191.99033228376169
    Total Energy =                       -191.9903322837617452
    Molecular point group: c1
  Basis Set: CC-PVTZ
  Basis Set:
  Basis Set: CC-PVTZ
  Basis Set:
  @DF-RHF Final Energy:  -191.99530686449737
    Total Energy =                       -191.9953068644973371
  Basis Set: CC-PVTZ
  Basis Set:
  Basis Set: CC-PVTZ
  Basis Set:
  @DF-RHF Final Energy:  -191.99579730647247
    Total Energy =                       -191.9957973064724115
  Basis Set: CC-PVTZ
  Basis Set:
  Basis Set: CC-PVTZ
  Basis Set:
  @DF-RHF Final Energy:  -191.99583691291372
    Total Energy =                       -191.9958369129136315
  Basis Set: CC-PVTZ
  Basis Set:
  Basis Set: CC-PVTZ
  Basis Set:
  @DF-RHF Final Energy:  -191.99585218239758
    Total Energy =                       -191.9958521823975843
  Basis Set: CC-PVTZ
  Basis Set:
  Charge       = 0
  Multiplicity = 1
  Basis Set: CC-PVTZ
  Basis Set:

    Orbital Energies (a.u.)
    -----------------------

    Doubly Occupied:

       1A    -20.554240     2A    -11.278827     3A    -11.232859
       4A    -11.217702     5A     -1.375050     6A     -1.063203
       7A     -0.933396     8A     -0.772617     9A     -0.692097
      10A     -0.665338    11A     -0.622986    12A     -0.573237
      13A     -0.539439    14A     -0.499562    15A     -0.452015
      16A     -0.369095

  @DF-RHF Final Energy:  -191.99585231214692

   => Energetics <=

    Nuclear Repulsion Energy =            119.5396287040866525
    One-Electron Energy =                -497.3876340145754966
    Two-Electron Energy =                 185.8521529983419498
    DFT Exchange-Correlation Energy =       0.0000000000000000
    Empirical Dispersion Energy =           0.0000000000000000
    PCM Polarization Energy =               0.0000000000000000
    EFP Energy =                            0.0000000000000000
    Total Energy =                       -191.9958523121468659
    Molecular point group: c1
  Basis Set: CC-PVTZ
  Basis Set:

  -Total Gradient:
     Atom            X                  Y                   Z
    ------   -----------------  -----------------  -----------------
       1       -0.000010702387     0.000005688070    -0.000003183563
       2        0.000041883505    -0.000013905213    -0.000014575766
       3       -0.001825066709     0.001659396734     0.007499156096
       4        0.002768337577    -0.002786778792    -0.016959586884
       5        0.000002256916    -0.000021244326     0.000002802846
       6        0.000007526683     0.000007666417    -0.000009202172
       7       -0.000425716089     0.001295292618     0.019988679724
       8       -0.000014041312    -0.000007868756    -0.000021869306
       9       -0.000540772407    -0.000144608360    -0.010483860319
      10       -0.000003705780     0.000006361608     0.000001639343

  **** Optimization is complete! (in 6 steps) ****
    Final optimized geometry and variables:
    Molecular point group: c1

    Geometry (in Angstrom), charge = 0, multiplicity = 1:

    H            0.864860445206    -0.956582355041     1.123200273158
    O            1.284026307347    -0.598805808408     0.360971189750
    C            0.712323603298     0.631992063215     0.045523935054
    C           -0.750069025068     0.574601817077    -0.295003025033
    H            1.277176073816     1.026102910950    -0.791253165431
    H            0.834390369038     1.340362362226     0.862792616201
    C           -1.513530053933    -0.496075248949    -0.241517879192
    H           -1.209146090304     1.540353458287    -0.432081187297
    H           -1.101465182908    -1.488002946202    -0.249825991866
    H           -2.573473576964    -0.418774328093    -0.395490480309

  Mulliken Charges: (a.u.)
   Center  Symbol    Alpha    Beta     Spin     Total
       1     H     0.39034  0.39034  0.00000  0.21932
       2     O     4.20007  4.20007  0.00000 -0.40014
       3     C     2.95007  2.95007  0.00000  0.09986
       4     C     3.07829  3.07829  0.00000 -0.15659
       5     H     0.45375  0.45375  0.00000  0.09250
       6     H     0.46883  0.46883  0.00000  0.06235
       7     C     3.18282  3.18282  0.00000 -0.36565
       8     H     0.42402  0.42402  0.00000  0.15196
       9     H     0.42249  0.42249  0.00000  0.15503
      10     H     0.42932  0.42932  0.00000  0.14135

   Total alpha = 16.00000, Total beta = 16.00000, Total charge =  0.00000

*** Psi4 exiting successfully. Buy a developer a beer!
