  ==> Input File <==

--------------------------------------------------------------------------
set {
	reference rhf
	basis 6-31G*
}

set_num_threads( 4 )
memory 2 gb

molecule MOL {
0 1

H	 -4.236494	 0.538104	 0.039757
O	 -3.517110	 -0.026191	 -0.205115
C	 -2.306886	 0.532354	 0.237577
C	 -1.177863	 -0.397191	 -0.171080
H	 -2.156308	 1.517575	 -0.201710
H	 -2.315015	 0.655684	 1.319734
C	 0.198102	 0.111031	 0.262842
H	 -1.208843	 -0.518759	 -1.250427
H	 -1.368741	 -1.376554	 0.258909
C	 1.331804	 -0.827780	 -0.158768
H	 0.361943	 1.100838	 -0.156218
H	 0.217265	 0.229072	 1.345532
C	 2.723619	 -0.410569	 0.329459
H	 1.342964	 -0.912588	 -1.244120
H	 1.116806	 -1.824343	 0.220779
C	 2.789171	 -0.022053	 1.807665
H	 3.058155	 0.434150	 -0.267721
H	 3.429041	 -1.216225	 0.135903
H	 2.084523	 0.773898	 2.033434
H	 2.561886	 -0.859609	 2.458832
H	 3.781465	 0.332546	 2.069136

	symmetry c1
}
set optking {
	frozen_dihedral = ("
		16 13 10 14
	")
}

ee = optimize('scf')
oeprop('DIPOLE', 'QUADRUPOLE', 'MULLIKEN_CHARGES')
f=open( 'psi4out.xyz', 'w' )
f.write( "21  " )
f.write( str(ee) + "\n" )
f.write( MOL.save_string_xyz() )
f.close()
--------------------------------------------------------------------------

    Molecular point group: c1
  Charge       = 0
  Multiplicity = 1
  Basis Set: 6-31G*
  Basis Set:
  @DF-RHF Final Energy:  -310.21016086106044
    Total Energy =                       -310.2101608610603307
    Molecular point group: c1
  Basis Set: 6-31G*
  Basis Set:
  Basis Set: 6-31G*
  Basis Set:
  @DF-RHF Final Energy:  -310.21108529754247
    Total Energy =                       -310.2110852975425246
  Basis Set: 6-31G*
  Basis Set:
  Basis Set: 6-31G*
  Basis Set:
  @DF-RHF Final Energy:  -310.21167131876842
    Total Energy =                       -310.2116713187684240
  Basis Set: 6-31G*
  Basis Set:
  Basis Set: 6-31G*
  Basis Set:
  @DF-RHF Final Energy:  -310.21175924395743
    Total Energy =                       -310.2117592439575446
  Basis Set: 6-31G*
  Basis Set:
  Basis Set: 6-31G*
  Basis Set:
  @DF-RHF Final Energy:  -310.21177250700151
    Total Energy =                       -310.2117725070017968
  Basis Set: 6-31G*
  Basis Set:
  Charge       = 0
  Multiplicity = 1
  Basis Set: 6-31G*
  Basis Set:

    Orbital Energies (a.u.)
    -----------------------

    Doubly Occupied:

       1A    -20.551803     2A    -11.267002     3A    -11.215548
       4A    -11.215263     5A    -11.213735     6A    -11.210600
       7A    -11.208246     8A     -1.358615     9A     -1.086201
      10A     -1.032651    11A     -0.953891    12A     -0.877472
      13A     -0.808218    14A     -0.775540    15A     -0.692201
      16A     -0.662082    17A     -0.626116    18A     -0.602933
      19A     -0.585822    20A     -0.571731    21A     -0.535597
      22A     -0.521855    23A     -0.509553    24A     -0.486227
      25A     -0.480876    26A     -0.457967    27A     -0.455907
      28A     -0.443427    29A     -0.433942

  @DF-RHF Final Energy:  -310.21177268733294

   => Energetics <=

    Nuclear Repulsion Energy =            313.1289247804875799
    One-Electron Energy =               -1040.9993561732871967
    Two-Electron Energy =                 417.6586587054666779
    DFT Exchange-Correlation Energy =       0.0000000000000000
    Empirical Dispersion Energy =           0.0000000000000000
    PCM Polarization Energy =               0.0000000000000000
    EFP Energy =                            0.0000000000000000
    Total Energy =                       -310.2117726873329957
    Molecular point group: c1
  Basis Set: 6-31G*
  Basis Set:

  -Total Gradient:
     Atom            X                  Y                   Z
    ------   -----------------  -----------------  -----------------
       1       -0.000007851560    -0.000001635750    -0.000002152067
       2       -0.000005582531     0.000005673444     0.000009357201
       3        0.000013259653    -0.000013392865    -0.000000842480
       4        0.000016070146    -0.000015679333     0.000008354850
       5       -0.000002055091    -0.000005194731     0.000000020176
       6       -0.000003287858     0.000004428841     0.000002274593
       7       -0.000016572120     0.000035481995    -0.000006496380
       8       -0.000013363315     0.000010369547    -0.000001638314
       9       -0.000003569526    -0.000008451833    -0.000011811398
      10        0.001053763698    -0.003121770189     0.000092798419
      11        0.000000541826     0.000004474123    -0.000016069585
      12        0.000003190828     0.000004596438    -0.000006428786
      13        0.000725225105    -0.002853968691     0.000923507399
      14       -0.001077857310     0.003458236659    -0.000265701537
      15        0.000024353622     0.000000844085    -0.000023995159
      16       -0.000704435014     0.002517525935    -0.000673387214
      17       -0.000033751228    -0.000009394870    -0.000003682843
      18        0.000014605303    -0.000008412371     0.000014589328
      19        0.000014265952     0.000013304538    -0.000008536444
      20       -0.000005064143     0.000003388431    -0.000010170840
      21        0.000008113569    -0.000020423403    -0.000019988922

  **** Optimization is complete! (in 6 steps) ****
    Final optimized geometry and variables:
    Molecular point group: c1

    Geometry (in Angstrom), charge = 0, multiplicity = 1:

    H           -4.175734946585     0.703879390259    -0.371767172099
    O           -3.450044687174     0.151647099628    -0.625405802664
    C           -2.260147702737     0.650946538703    -0.070873547112
    C           -1.120285336621    -0.257071962332    -0.497464479803
    H           -2.074873932160     1.668014222028    -0.413823583477
    H           -2.326852130366     0.680408380029     1.015846530023
    C            0.235736076287     0.193607758064     0.048511848363
    H           -1.096610910498    -0.288647534200    -1.583218967349
    H           -1.342734637680    -1.266082463936    -0.160851888554
    C            1.374252855098    -0.743343695790    -0.368746249790
    H            0.452478592074     1.201448063478    -0.304178618043
    H            0.182227953166     0.252871227641     1.132538987561
    C            2.779954225363    -0.263915687380     0.019132669286
    H            1.337608218181    -0.841841296986    -1.451310044523
    H            1.193927097789    -1.731890121477     0.048170305979
    C            2.944814388704     0.158783351333     1.480124034877
    H            3.051315711870     0.577127705294    -0.616007152530
    H            3.490217207816    -1.054488356897    -0.208643660576
    H            2.360928110656     1.042620698515     1.712274641594
    H            2.635612954594    -0.631374240707     2.159760895852
    H            3.983739078547     0.388812050765     1.695540608225

  Mulliken Charges: (a.u.)
   Center  Symbol    Alpha    Beta     Spin     Total
       1     H     0.28118  0.28118  0.00000  0.43764
       2     O     4.37182  4.37182  0.00000 -0.74364
       3     C     2.98965  2.98965  0.00000  0.02071
       4     C     3.15894  3.15894  0.00000 -0.31789
       5     H     0.43294  0.43294  0.00000  0.13412
       6     H     0.43291  0.43291  0.00000  0.13419
       7     C     3.16337  3.16337  0.00000 -0.32674
       8     H     0.41487  0.41487  0.00000  0.17026
       9     H     0.41488  0.41488  0.00000  0.17024
      10     C     3.15119  3.15119  0.00000 -0.30237
      11     H     0.42429  0.42429  0.00000  0.15142
      12     H     0.42089  0.42089  0.00000  0.15822
      13     C     3.15186  3.15186  0.00000 -0.30372
      14     H     0.42111  0.42111  0.00000  0.15778
      15     H     0.42238  0.42238  0.00000  0.15523
      16     C     3.24240  3.24240  0.00000 -0.48480
      17     H     0.42355  0.42355  0.00000  0.15289
      18     H     0.42039  0.42039  0.00000  0.15921
      19     H     0.41981  0.41981  0.00000  0.16038
      20     H     0.42240  0.42240  0.00000  0.15520
      21     H     0.41917  0.41917  0.00000  0.16167

   Total alpha = 29.00000, Total beta = 29.00000, Total charge =  0.00000
