  ==> Input File <==

--------------------------------------------------------------------------
set {
	reference rhf
	basis 6-31G*
}

set_num_threads( 4 )
memory 2 gb

molecule MOL {
0 1

O	 -0.062517	 0.586523	 -0.967921
C	 0.486307	 0.169203	 0.000779
C	 1.608116	 -0.841643	 0.000302
O	 0.176370	 0.543930	 1.234118
C	 2.990107	 -0.200498	 -0.000684
H	 1.468623	 -1.481519	 -0.865924
H	 1.469683	 -1.481289	 0.866878
H	 3.129736	 0.423364	 -0.875135
H	 3.757882	 -0.966877	 -0.001197
H	 3.130964	 0.423383	 0.873533
C	 -0.869884	 1.497274	 1.388676
C	 -1.032471	 1.756238	 2.871516
H	 -1.775627	 1.100790	 0.950481
H	 -0.607714	 2.398694	 0.851741
H	 -1.289521	 0.842822	 3.395686
H	 -1.823701	 2.480621	 3.035449
H	 -0.115275	 2.147896	 3.296502

	symmetry c1
}
set optking {
	frozen_dihedral = ("
		4 2 3 6
	")
}

ee = optimize('scf')
oeprop('DIPOLE', 'QUADRUPOLE', 'MULLIKEN_CHARGES')
f=open( 'psi4out.xyz', 'w' )
f.write( "17  " )
f.write( str(ee) + "\n" )
f.write( MOL.save_string_xyz() )
f.close()
--------------------------------------------------------------------------

    Molecular point group: c1
  Charge       = 0
  Multiplicity = 1
  Basis Set: 6-31G*
  Basis Set:
  @DF-RHF Final Energy:  -344.90959058356162
    Total Energy =                       -344.9095905835616804
    Molecular point group: c1
  Basis Set: 6-31G*
  Basis Set:
  Basis Set: 6-31G*
  Basis Set:
  @DF-RHF Final Energy:  -344.90989881346110
    Total Energy =                       -344.9098988134611545
  Basis Set: 6-31G*
  Basis Set:
  Basis Set: 6-31G*
  Basis Set:
  @DF-RHF Final Energy:  -344.91009649558509
    Total Energy =                       -344.9100964955850941
  Basis Set: 6-31G*
  Basis Set:
  Basis Set: 6-31G*
  Basis Set:
  @DF-RHF Final Energy:  -344.91017662162636
    Total Energy =                       -344.9101766216263627
  Basis Set: 6-31G*
  Basis Set:
  Basis Set: 6-31G*
  Basis Set:
  @DF-RHF Final Energy:  -344.91018589966222
    Total Energy =                       -344.9101858996623946
  Basis Set: 6-31G*
  Basis Set:
  Basis Set: 6-31G*
  Basis Set:
  @DF-RHF Final Energy:  -344.91018700991037
    Total Energy =                       -344.9101870099106009
  Basis Set: 6-31G*
  Basis Set:
  Charge       = 0
  Multiplicity = 1
  Basis Set: 6-31G*
  Basis Set:

    Orbital Energies (a.u.)
    -----------------------

    Doubly Occupied:

       1A    -20.602054     2A    -20.541676     3A    -11.370085
       4A    -11.284597     5A    -11.235914     6A    -11.226838
       7A    -11.222403     8A     -1.467048     9A     -1.360308
      10A     -1.072358    11A     -1.031568    12A     -0.908424
      13A     -0.853903    14A     -0.777171    15A     -0.693740
      16A     -0.682482    17A     -0.667531    18A     -0.615253
      19A     -0.600134    20A     -0.573767    21A     -0.554076
      22A     -0.538517    23A     -0.526939    24A     -0.507981
      25A     -0.503103    26A     -0.496565    27A     -0.451126
      28A     -0.431370

  @DF-RHF Final Energy:  -344.91018733168789

   => Energetics <=

    Nuclear Repulsion Energy =            316.3293375749153711
    One-Electron Energy =               -1096.8851858095895295
    Two-Electron Energy =                 435.6456609029863785
    DFT Exchange-Correlation Energy =       0.0000000000000000
    Empirical Dispersion Energy =           0.0000000000000000
    PCM Polarization Energy =               0.0000000000000000
    EFP Energy =                            0.0000000000000000
    Total Energy =                       -344.9101873316877800
    Molecular point group: c1
  Basis Set: 6-31G*
  Basis Set:

  -Total Gradient:
     Atom            X                  Y                   Z
    ------   -----------------  -----------------  -----------------
       1        0.000008883884    -0.000003038707     0.000003740538
       2        0.000292566655     0.000322064207    -0.000002157190
       3        0.000241640693     0.000279054547    -0.000296432320
       4       -0.000257278401    -0.000280775728     0.000040790931
       5        0.000002376703    -0.000002050829    -0.000001159603
       6       -0.000276285387    -0.000296416049     0.000258219826
       7       -0.000003006270    -0.000004722274     0.000002451996
       8        0.000000866492     0.000003172336    -0.000002010593
       9       -0.000004767668     0.000000124357     0.000000164183
      10       -0.000000984827     0.000001075481     0.000000693380
      11       -0.000004662574    -0.000020567084    -0.000004402402
      12        0.000005783702     0.000003674871    -0.000000405943
      13       -0.000013395458     0.000006340098    -0.000006244644
      14        0.000004706117    -0.000010479943     0.000007612655
      15        0.000001004962     0.000001247374    -0.000005250282
      16        0.000000581631     0.000000049876    -0.000001383882
      17        0.000001969747     0.000001247469     0.000005773350

  **** Optimization is complete! (in 7 steps) ****
    Final optimized geometry and variables:
    Molecular point group: c1

    Geometry (in Angstrom), charge = 0, multiplicity = 1:

    O           -0.482442024120     0.082095293507    -1.617071772611
    C            0.023029787345    -0.366311994738    -0.637905142791
    C            1.137281206864    -1.383932656888    -0.641923314112
    O           -0.309693982595     0.004284106960     0.590387803992
    C            2.504779479527    -0.690272580567    -0.687930086498
    H            1.003862191078    -2.009132832537    -1.515379402402
    H            1.061782737970    -2.001763815069     0.244217596003
    H            2.592402028022    -0.070822581628    -1.573367789386
    H            3.298571905214    -1.428373378506    -0.711213222456
    H            2.653087950759    -0.064245899573     0.185228818048
    C           -1.318030982752     1.000530062728     0.725470685379
    C           -1.516140187236     1.248389596874     2.205876521749
    H           -2.225314813861     0.649014664874     0.253656971015
    H           -1.000148940375     1.895874119287     0.208832273793
    H           -1.829059102362     0.340777527923     2.709391707160
    H           -2.280098042996     2.004580782655     2.354819041090
    H           -0.596926447652     1.594507116242     2.664748494779

  Mulliken Charges: (a.u.)
   Center  Symbol    Alpha    Beta     Spin     Total
       1     O     4.28614  4.28614  0.00000 -0.57227
       2     C     2.61433  2.61433  0.00000  0.77134
       3     C     3.19403  3.19403  0.00000 -0.38807
       4     O     4.30964  4.30964  0.00000 -0.61927
       5     C     3.25123  3.25123  0.00000 -0.50246
       6     H     0.39981  0.39981  0.00000  0.20037
       7     H     0.40360  0.40360  0.00000  0.19279
       8     H     0.40703  0.40703  0.00000  0.18593
       9     H     0.41159  0.41159  0.00000  0.17682
      10     H     0.41114  0.41114  0.00000  0.17772
      11     C     3.00278  3.00278  0.00000 -0.00555
      12     C     3.24853  3.24853  0.00000 -0.49707
      13     H     0.40961  0.40961  0.00000  0.18078
      14     H     0.41037  0.41037  0.00000  0.17926
      15     H     0.41176  0.41176  0.00000  0.17649
      16     H     0.41622  0.41622  0.00000  0.16755
      17     H     0.41218  0.41218  0.00000  0.17564

   Total alpha = 28.00000, Total beta = 28.00000, Total charge =  0.00000
