                              Psi4 1.0.54 Driver

  ==> Input File <==

--------------------------------------------------------------------------
set {
	reference rhf
	basis cc-pvtz
}

set_num_threads( 4 )
memory 2 gb

molecule MOL {
0 1

H	 -3.436473	 1.252944	 -1.023892
O	 -3.458596	 0.315260	 -0.960865
C	 -3.176635	 -0.080824	 0.355601
C	 -1.763371	 0.265266	 0.799691
H	 -3.321825	 -1.153438	 0.379502
H	 -3.895468	 0.357385	 1.043382
C	 -0.673390	 -0.426948	 -0.013392
H	 -1.631049	 1.344913	 0.747560
H	 -1.664587	 -0.001624	 1.849167
C	 0.737842	 -0.043159	 0.423759
H	 -0.806103	 -0.190518	 -1.063345
H	 -0.797221	 -1.503753	 0.074146
C	 1.824000	 -0.743224	 -0.390623
H	 0.850588	 1.033777	 0.343840
H	 0.868587	 -0.286314	 1.476203
C	 2.159926	 -0.074639	 -1.724788
H	 1.527784	 -1.773885	 -0.571853
H	 2.729666	 -0.790495	 0.207837
C	 1.033947	 -0.105225	 -2.755506
H	 3.029844	 -0.568824	 -2.146450
H	 2.455513	 0.955755	 -1.544961
H	 0.713236	 -1.123514	 -2.951236
H	 1.361893	 0.323058	 -3.695861
H	 0.167854	 0.456753	 -2.427380

	symmetry c1
}
set optking {
	frozen_dihedral = ("
		17 13 10 7
	")
}

ee,wfn = optimize('scf', return_wfn=True)
oeprop( wfn, 'DIPOLE', 'QUADRUPOLE', 'MULLIKEN_CHARGES')
f=open( 'psi4out.xyz', 'w' )
f.write( "24  " )
f.write( str(ee) + "\n" )
f.write( MOL.save_string_xyz() )
f.close()
--------------------------------------------------------------------------

    Molecular point group: c1
  Charge       = 0
  Multiplicity = 1
  Basis Set: CC-PVTZ
  Basis Set:
  @DF-RHF Final Energy:  -349.37249287199933
    Total Energy =                       -349.3724928719993841
    Molecular point group: c1
  Basis Set: CC-PVTZ
  Basis Set:
  Basis Set: CC-PVTZ
  Basis Set:
  @DF-RHF Final Energy:  -349.37406359325382
    Total Energy =                       -349.3740635932538225
  Basis Set: CC-PVTZ
  Basis Set:
  Basis Set: CC-PVTZ
  Basis Set:
  @DF-RHF Final Energy:  -349.37563459251095
    Total Energy =                       -349.3756345925108917
  Basis Set: CC-PVTZ
  Basis Set:
  Basis Set: CC-PVTZ
  Basis Set:
  @DF-RHF Final Energy:  -349.37570950873430
    Total Energy =                       -349.3757095087340758
  Basis Set: CC-PVTZ
  Basis Set:
  Basis Set: CC-PVTZ
  Basis Set:
  @DF-RHF Final Energy:  -349.37571459086035
    Total Energy =                       -349.3757145908601842
  Basis Set: CC-PVTZ
  Basis Set:
  Charge       = 0
  Multiplicity = 1
  Basis Set: CC-PVTZ
  Basis Set:

    Orbital Energies (a.u.)
    -----------------------

    Doubly Occupied:

       1A    -20.546597     2A    -11.265483     3A    -11.214768
       4A    -11.211832     5A    -11.211080     6A    -11.210099
       7A    -11.207599     8A    -11.203297     9A     -1.364276
      10A     -1.087712    11A     -1.046985    12A     -0.985401
      13A     -0.920485    14A     -0.850376    15A     -0.802999
      16A     -0.772078    17A     -0.682430    18A     -0.654134
      19A     -0.625224    20A     -0.613561    21A     -0.598212
      22A     -0.589064    23A     -0.559121    24A     -0.536343
      25A     -0.526486    26A     -0.509213    27A     -0.495698
      28A     -0.477757    29A     -0.468169    30A     -0.461198
      31A     -0.454204    32A     -0.441221    33A     -0.421133

  @DF-RHF Final Energy:  -349.37571538374846

   => Energetics <=

    Nuclear Repulsion Energy =            393.3066248888181917
    One-Electron Energy =               -1253.3362117728133853
    Two-Electron Energy =                 510.6538715002468507
    DFT Exchange-Correlation Energy =       0.0000000000000000
    Empirical Dispersion Energy =           0.0000000000000000
    PCM Polarization Energy =               0.0000000000000000
    EFP Energy =                            0.0000000000000000
    Total Energy =                       -349.3757153837483429
    Molecular point group: c1
  Basis Set: CC-PVTZ
  Basis Set:

  -Total Gradient:
     Atom            X                  Y                   Z
    ------   -----------------  -----------------  -----------------
       1        0.000003714824     0.000004853273     0.000013755685
       2        0.000015340527    -0.000016614091     0.000028160328
       3        0.000000475634    -0.000004136001     0.000014542211
       4       -0.000009545036     0.000022141253    -0.000038172556
       5       -0.000005442724    -0.000004628696    -0.000015626289
       6       -0.000005911942     0.000003873208    -0.000004178828
       7       -0.000083128709     0.000548926751    -0.000511697086
       8        0.000010961798     0.000007360290    -0.000003990880
       9       -0.000015743476    -0.000008001453     0.000002806006
      10        0.000233493513    -0.000823753758     0.001002044651
      11        0.000005081364     0.000000058377    -0.000030529223
      12        0.000011999018     0.000008580899    -0.000004464084
      13       -0.000700663498     0.000391115636    -0.001308982003
      14       -0.000019967491     0.000007072988     0.000001830518
      15       -0.000007895774     0.000004594883     0.000033084274
      16        0.000012472111     0.000038413775     0.000006183658
      17        0.000543115120    -0.000194312526     0.000882361335
      18       -0.000007712186     0.000013094084    -0.000011192801
      19        0.000039250139    -0.000000850615    -0.000051619516
      20       -0.000012439701    -0.000000151557    -0.000015386144
      21        0.000033708545     0.000033664007    -0.000016683748
      22       -0.000028578763    -0.000027842274    -0.000013626340
      23        0.000000105748     0.000000987476     0.000020372407
      24       -0.000012689041    -0.000004445929     0.000021008424

  **** Optimization is complete! (in 6 steps) ****
    Final optimized geometry and variables:
    Molecular point group: c1

    Geometry (in Angstrom), charge = 0, multiplicity = 1:

    H           -3.158605241401     1.172963332031    -0.201194814020
    O           -3.112927692471     0.241030826293    -0.086748543337
    C           -2.656397745331    -0.058283960614     1.206211681903
    C           -1.223142141746     0.385936823280     1.456504489517
    H           -2.735810249165    -1.133382387134     1.306222780511
    H           -3.314091269725     0.384370322203     1.950032966131
    C           -0.198494710727    -0.302864173401     0.558950321053
    H           -1.160212601776     1.465238993278     1.325215485709
    H           -0.987057314131     0.193815216822     2.500407579354
    C            1.229037200781     0.178684868798     0.819567762369
    H           -0.476819532557    -0.150843784414    -0.473702354263
    H           -0.245476691507    -1.375647070076     0.731828550961
    C            2.329838436648    -0.509630338794    -0.000692461827
    H            1.284186567785     1.253862193068     0.661931624162
    H            1.445678334565     0.022544669080     1.872769772873
    C            2.624956989032     0.057414513948    -1.393256451639
    H            2.113889152051    -1.573100059358    -0.074117802318
    H            3.254049199915    -0.439027214180     0.564985516976
    C            1.525260614952    -0.083393818819    -2.443029770241
    H            3.515472333741    -0.440919441772    -1.764964465051
    H            2.890232356195     1.107060234807    -1.294887340520
    H            1.182947336337    -1.109936409050    -2.521919076606
    H            1.895410787408     0.216241152134    -3.417117100030
    H            0.666235097840     0.536113598468    -2.220765082447

  Mulliken Charges: (a.u.)
   Center  Symbol    Alpha    Beta     Spin     Total
       1     H     0.39533  0.39533  0.00000  0.20935
       2     O     4.20227  4.20227  0.00000 -0.40455
       3     C     2.97794  2.97794  0.00000  0.04413
       4     C     3.10359  3.10359  0.00000 -0.20717
       5     H     0.45885  0.45885  0.00000  0.08230
       6     H     0.45964  0.45964  0.00000  0.08071
       7     C     3.09231  3.09231  0.00000 -0.18462
       8     H     0.45900  0.45900  0.00000  0.08199
       9     H     0.45242  0.45242  0.00000  0.09517
      10     C     3.10007  3.10007  0.00000 -0.20014
      11     H     0.44108  0.44108  0.00000  0.11785
      12     H     0.45494  0.45494  0.00000  0.09011
      13     C     3.10180  3.10180  0.00000 -0.20359
      14     H     0.45429  0.45429  0.00000  0.09142
      15     H     0.44820  0.44820  0.00000  0.10360
      16     C     3.08361  3.08361  0.00000 -0.16721
      17     H     0.45392  0.45392  0.00000  0.09215
      18     H     0.44593  0.44593  0.00000  0.10815
      19     C     3.16025  3.16025  0.00000 -0.32050
      20     H     0.44986  0.44986  0.00000  0.10029
      21     H     0.45554  0.45554  0.00000  0.08891
      22     H     0.45155  0.45155  0.00000  0.09690
      23     H     0.44454  0.44454  0.00000  0.11092
      24     H     0.45308  0.45308  0.00000  0.09384

   Total alpha = 33.00000, Total beta = 33.00000, Total charge =  0.00000

*** Psi4 exiting successfully. Buy a developer a beer!
