  ==> Input File <==

--------------------------------------------------------------------------
set {
	reference rhf
	basis 6-31G*
}

set_num_threads( 4 )
memory 2 gb

molecule MOL {
0 1

O	 1.347563	 0.832741	 -0.950009
C	 0.861134	 0.272526	 -0.014869
C	 -0.623889	 -0.118271	 -0.003699
C	 1.719417	 -0.058783	 1.193265
C	 -0.895332	 -1.256461	 -1.002431
C	 -1.473649	 1.103340	 -0.370799
C	 -0.983900	 -0.581483	 1.422328
H	 -0.615301	 -0.972064	 -2.012700
H	 -1.954261	 -1.493213	 -1.010207
H	 -0.360539	 -2.164946	 -0.747760
H	 -1.227476	 1.468527	 -1.361691
H	 -2.526716	 0.838935	 -0.358521
H	 -1.314819	 1.915855	 0.325860
H	 -2.039679	 -0.828001	 1.472951
H	 -0.427637	 -1.464071	 1.720694
H	 -0.789023	 0.202493	 2.147048
H	 2.002717	 -1.106656	 1.159134
H	 2.617846	 0.541633	 1.155282
H	 1.205196	 0.109261	 2.131646

	symmetry c1
}
set optking {
	frozen_dihedral = ("
		1 2 3 5
	")
}

ee = optimize('scf')
oeprop('DIPOLE', 'QUADRUPOLE', 'MULLIKEN_CHARGES')
f=open( 'psi4out.xyz', 'w' )
f.write( "19  " )
f.write( str(ee) + "\n" )
f.write( MOL.save_string_xyz() )
f.close()
--------------------------------------------------------------------------

    Molecular point group: c1
  Charge       = 0
  Multiplicity = 1
  Basis Set: 6-31G*
  Basis Set:
  @DF-RHF Final Energy:  -309.05679912865008
    Total Energy =                       -309.0567991286499137
    Molecular point group: c1
  Basis Set: 6-31G*
  Basis Set:
  Basis Set: 6-31G*
  Basis Set:
  @DF-RHF Final Energy:  -309.05854027999862
    Total Energy =                       -309.0585402799987378
  Basis Set: 6-31G*
  Basis Set:
  Basis Set: 6-31G*
  Basis Set:
  @DF-RHF Final Energy:  -309.06111816552584
    Total Energy =                       -309.0611181655257269
  Basis Set: 6-31G*
  Basis Set:
  Basis Set: 6-31G*
  Basis Set:
  @DF-RHF Final Energy:  -309.06158614522860
    Total Energy =                       -309.0615861452288300
  Basis Set: 6-31G*
  Basis Set:
  @DF-RHF Final Energy:  -309.06172994341551
    Total Energy =                       -309.0617299434152301
  @DF-RHF Final Energy:  -309.06182774189620
    Total Energy =                       -309.0618277418968205
  @DF-RHF Final Energy:  -309.06194268190558
    Total Energy =                       -309.0619426819052364
  Basis Set: 6-31G*
  Basis Set:
  @DF-RHF Final Energy:  -309.06200212947425
    Total Energy =                       -309.0620021294741377
  Basis Set: 6-31G*
  Basis Set:
  Basis Set: 6-31G*
  Basis Set:
  @DF-RHF Final Energy:  -309.06201116083741
    Total Energy =                       -309.0620111608375282
  Basis Set: 6-31G*
  Basis Set:
  Basis Set: 6-31G*
  Basis Set:
  @DF-RHF Final Energy:  -309.06202436583527
    Total Energy =                       -309.0620243658348727
  Basis Set: 6-31G*
  Basis Set:
  Charge       = 0
  Multiplicity = 1
  Basis Set: 6-31G*
  Basis Set:

    Orbital Energies (a.u.)
    -----------------------

    Doubly Occupied:

       1A    -20.547453     2A    -11.323554     3A    -11.246257
       4A    -11.227640     5A    -11.222304     6A    -11.219525
       7A    -11.213063     8A     -1.394573     9A     -1.107886
      10A     -1.003564    11A     -0.942751    12A     -0.937713
      13A     -0.833505    14A     -0.703898    15A     -0.664751
      16A     -0.631021    17A     -0.622320    18A     -0.587916
      19A     -0.585880    20A     -0.571990    21A     -0.551268
      22A     -0.546063    23A     -0.523412    24A     -0.513351
      25A     -0.499950    26A     -0.471788    27A     -0.460332
      28A     -0.391828

  @DF-RHF Final Energy:  -309.06202432417990

   => Energetics <=

    Nuclear Repulsion Energy =            326.1883820597718113
    One-Electron Energy =               -1065.4097036345281140
    Two-Electron Energy =                 430.1592972505765147
    DFT Exchange-Correlation Energy =       0.0000000000000000
    Empirical Dispersion Energy =           0.0000000000000000
    PCM Polarization Energy =               0.0000000000000000
    EFP Energy =                            0.0000000000000000
    Total Energy =                       -309.0620243241797880
    Molecular point group: c1
  Basis Set: 6-31G*
  Basis Set:

  -Total Gradient:
     Atom            X                  Y                   Z
    ------   -----------------  -----------------  -----------------
       1        0.000208789299    -0.000890906995    -0.000448957122
       2       -0.000382241181     0.001397407219     0.000463502710
       3        0.000313932791    -0.001001384144     0.000467448706
       4        0.000002694427    -0.000013370275    -0.000008427826
       5       -0.000174895174     0.000483978483    -0.000503419012
       6        0.000017695513    -0.000001558735     0.000017061347
       7        0.000008180752     0.000008647868     0.000016558152
       8       -0.000004282161    -0.000001800031     0.000005160143
       9       -0.000007345792    -0.000007548342    -0.000006817649
      10       -0.000003537110    -0.000000372634     0.000003864987
      11        0.000026508080     0.000039998874     0.000009982881
      12        0.000009971862    -0.000014788872    -0.000028974039
      13       -0.000017014590    -0.000007053610    -0.000000743726
      14        0.000009512458    -0.000004849225    -0.000001761544
      15        0.000001710218     0.000011242537     0.000003809225
      16       -0.000005501352     0.000001916401     0.000004708610
      17        0.000000339153    -0.000001875197     0.000006395233
      18       -0.000000483463     0.000002527308     0.000004734356
      19       -0.000004033732    -0.000000210633    -0.000004125431

  **** Optimization is complete! (in 11 steps) ****
    Final optimized geometry and variables:
    Molecular point group: c1

    Geometry (in Angstrom), charge = 0, multiplicity = 1:

    O            1.283679804571     0.848208531042    -0.999120224587
    C            0.865223426329     0.266098277910    -0.043966663374
    C           -0.618105584696    -0.146791978633     0.006780100820
    C            1.803303871867    -0.110944724986     1.084742082863
    C           -0.798245337273    -1.269257271666    -1.033101486443
    C           -1.468506732538     1.067269494263    -0.400414795138
    C           -1.067577626234    -0.644647952148     1.387556412400
    H           -0.506426925049    -0.928039484977    -2.018494794760
    H           -1.837398431248    -1.581470021221    -1.069222458399
    H           -0.200113159905    -2.142491671563    -0.785848448647
    H           -1.168237202541     1.440934933926    -1.369825812981
    H           -2.517447242810     0.790190919546    -0.444010548847
    H           -1.368376122305     1.876175429543     0.317761503142
    H           -2.118074358817    -0.914014329535     1.351857222225
    H           -0.519275988970    -1.523871271753     1.708778286760
    H           -0.955331089293     0.119972755010     2.150134476283
    H            1.818347869625    -1.186491716335     1.230944475587
    H            2.798160763655     0.231644578180     0.837594247246
    H            1.488514239400     0.336961718439     2.021267031936

  Mulliken Charges: (a.u.)
   Center  Symbol    Alpha    Beta     Spin     Total
       1     O     4.26754  4.26754  0.00000 -0.53508
       2     C     2.72722  2.72722  0.00000  0.54557
       3     C     3.06141  3.06141  0.00000 -0.12283
       4     C     3.28968  3.28968  0.00000 -0.57935
       5     C     3.23823  3.23823  0.00000 -0.47646
       6     C     3.23483  3.23483  0.00000 -0.46966
       7     C     3.24032  3.24032  0.00000 -0.48064
       8     H     0.40299  0.40299  0.00000  0.19401
       9     H     0.41621  0.41621  0.00000  0.16759
      10     H     0.42038  0.42038  0.00000  0.15924
      11     H     0.40050  0.40050  0.00000  0.19900
      12     H     0.41999  0.41999  0.00000  0.16001
      13     H     0.42011  0.42011  0.00000  0.15977
      14     H     0.41408  0.41408  0.00000  0.17184
      15     H     0.41823  0.41823  0.00000  0.16353
      16     H     0.41797  0.41797  0.00000  0.16406
      17     H     0.40797  0.40797  0.00000  0.18407
      18     H     0.39546  0.39546  0.00000  0.20908
      19     H     0.40686  0.40686  0.00000  0.18628

   Total alpha = 28.00000, Total beta = 28.00000, Total charge = -0.00000
