  ==> Input File <==

--------------------------------------------------------------------------
set {
	reference rhf
	basis cc-pvtz
}

set_num_threads( 4 )
memory 2 gb

molecule MOL {
0 1

H	 -2.362939	 -1.309000	 -0.383250
C	 -1.359344	 -1.272457	 0.020748
C	 -0.684082	 0.000127	 -0.464918
H	 -0.825835	 -2.151141	 -0.318537
H	 -1.416276	 -1.292399	 1.099455
C	 -1.359089	 1.272668	 0.021259
N	 0.742439	 -0.000109	 0.007333
H	 -0.596914	 0.000345	 -1.538146
H	 -2.362696	 1.309620	 -0.382686
H	 -0.825392	 2.151374	 -0.317674
H	 -1.415983	 1.292181	 1.099973
O	 1.545513	 -0.526203	 -0.686887
O	 0.975097	 0.525964	 1.044352

	symmetry c1
}
set optking {
	frozen_dihedral = ("
		12 7 3 8
	")
}

ee = optimize('scf')
oeprop('DIPOLE', 'QUADRUPOLE', 'MULLIKEN_CHARGES')
f=open( 'psi4out.xyz', 'w' )
f.write( "13  " )
f.write( str(ee) + "\n" )
f.write( MOL.save_string_xyz() )
f.close()
--------------------------------------------------------------------------

    Molecular point group: c1
  Charge       = 0
  Multiplicity = 1
  Basis Set: CC-PVTZ
  Basis Set:
  @DF-RHF Final Energy:  -321.86369856020343
    Total Energy =                       -321.8636985602032610
    Molecular point group: c1
  Basis Set: CC-PVTZ
  Basis Set:
  Basis Set: CC-PVTZ
  Basis Set:
  @DF-RHF Final Energy:  -321.85910127205238
    Total Energy =                       -321.8591012720525555
  Basis Set: CC-PVTZ
  Basis Set:
  Basis Set: CC-PVTZ
  Basis Set:
  @DF-RHF Final Energy:  -321.86371041996330
    Total Energy =                       -321.8637104199635246
  Basis Set: CC-PVTZ
  Basis Set:
  Basis Set: CC-PVTZ
  Basis Set:
  @DF-RHF Final Energy:  -321.86422257991876
    Total Energy =                       -321.8642225799186463
  Basis Set: CC-PVTZ
  Basis Set:
  Basis Set: CC-PVTZ
  Basis Set:
  @DF-RHF Final Energy:  -321.86422854301890
    Total Energy =                       -321.8642285430187258
  Basis Set: CC-PVTZ
  Basis Set:
  Charge       = 0
  Multiplicity = 1
  Basis Set: CC-PVTZ
  Basis Set:

    Orbital Energies (a.u.)
    -----------------------

    Doubly Occupied:

       1A    -20.589618     2A    -20.588015     3A    -15.832826
       4A    -11.304713     5A    -11.245372     6A    -11.239366
       7A     -1.633983     8A     -1.418233     9A     -1.142291
      10A     -0.973136    11A     -0.957319    12A     -0.816229
      13A     -0.755012    14A     -0.731807    15A     -0.726223
      16A     -0.648518    17A     -0.594416    18A     -0.587623
      19A     -0.571351    20A     -0.529588    21A     -0.522057
      22A     -0.485114    23A     -0.470644    24A     -0.451897

  @DF-RHF Final Energy:  -321.86423033371494

   => Energetics <=

    Nuclear Repulsion Energy =            257.3982923570310390
    One-Electron Energy =                -948.8943503542826647
    Two-Electron Energy =                 369.6318276635366260
    DFT Exchange-Correlation Energy =       0.0000000000000000
    Empirical Dispersion Energy =           0.0000000000000000
    PCM Polarization Energy =               0.0000000000000000
    EFP Energy =                            0.0000000000000000
    Total Energy =                       -321.8642303337150565
    Molecular point group: c1
  Basis Set: CC-PVTZ
  Basis Set:

  -Total Gradient:
     Atom            X                  Y                   Z
    ------   -----------------  -----------------  -----------------
       1        0.000003550533     0.000003861527    -0.000002119998
       2        0.000055960712     0.000028247385    -0.000006213214
       3       -0.000117533715    -0.001143478719     0.000167845605
       4       -0.000004179531    -0.000015762120     0.000002657814
       5       -0.000001795042    -0.000003606433     0.000006816759
       6       -0.000006811849     0.000034585666    -0.000013177669
       7        0.000282956711     0.000918797020    -0.000499703629
       8        0.000034470694     0.000784251646    -0.000004275774
       9       -0.000015003815     0.000009714500    -0.000001581987
      10       -0.000006747736    -0.000003310255     0.000007930012
      11        0.000013289959    -0.000012593080    -0.000021831199
      12       -0.000187214830    -0.000639573366     0.000333460403
      13       -0.000050942084     0.000038866230     0.000030192878

  **** Optimization is complete! (in 6 steps) ****
    Final optimized geometry and variables:
    Molecular point group: c1

    Geometry (in Angstrom), charge = 0, multiplicity = 1:

    H           -2.359363846029    -1.287364426421    -0.352308270517
    C           -1.345370367158    -1.251274819935     0.023723576303
    C           -0.683441356478     0.031919003389    -0.461981819229
    H           -0.814475283333    -2.121545647467    -0.336083403253
    H           -1.379047340183    -1.278450716952     1.105197854470
    C           -1.378427693096     1.293623759025     0.011902098263
    N            0.745127448426     0.000089881601     0.007903281365
    H           -0.594711498513     0.022478150370    -1.536033414388
    H           -2.368751865621     1.321682816371    -0.425668602096
    H           -0.842888701959     2.179295208857    -0.302696317151
    H           -1.471423891062     1.312554065843     1.087330835806
    O            1.522317567347    -0.554126282142    -0.695319757095
    O            1.001008554293     0.488962660418     1.056172817317

  Mulliken Charges: (a.u.)
   Center  Symbol    Alpha    Beta     Spin     Total
       1     H     0.44845  0.44845  0.00000  0.10310
       2     C     3.14288  3.14288  0.00000 -0.28576
       3     C     3.00776  3.00776  0.00000 -0.01552
       4     H     0.43631  0.43631  0.00000  0.12738
       5     H     0.44270  0.44270  0.00000  0.11460
       6     C     3.14404  3.14404  0.00000 -0.28809
       7     N     3.27410  3.27410  0.00000  0.45179
       8     H     0.42595  0.42595  0.00000  0.14810
       9     H     0.45011  0.45011  0.00000  0.09978
      10     H     0.44080  0.44080  0.00000  0.11841
      11     H     0.43893  0.43893  0.00000  0.12214
      12     O     4.17366  4.17366  0.00000 -0.34731
      13     O     4.17431  4.17431  0.00000 -0.34862

   Total alpha = 24.00000, Total beta = 24.00000, Total charge = -0.00000
