  ==> Input File <==

--------------------------------------------------------------------------
set {
	reference rhf
	basis 6-31G*
}

set_num_threads( 1 )
memory 2 gb

molecule MOL {
0 1

H	 -1.254611	 0.704788	 -0.948585
C	 -0.790252	 0.431209	 0.000000
N	 0.538815	 0.649616	 0.000000
O	 -1.426053	 -0.009469	 0.911466
C	 1.521968	 -0.411503	 0.000000
H	 0.852804	 1.592852	 0.000000
H	 2.150599	 -0.357004	 -0.881901
H	 0.999455	 -1.354525	 0.000000
H	 2.150599	 -0.357004	 0.881901

	symmetry c1
}
set optking {
	frozen_dihedral = ("
		6 3 5 7
	")
}

ee = energy('scf')
oeprop('DIPOLE', 'QUADRUPOLE', 'MULLIKEN_CHARGES')
f=open( 'psi4out.xyz', 'w' )
f.write( "9  " )
f.write( str(ee) + "\n" )
f.write( MOL.save_string_xyz() )
f.close()
--------------------------------------------------------------------------

    Molecular point group: c1

    Geometry (in Angstrom), charge = 0, multiplicity = 1:

       Center              X                  Y                   Z               Mass
    ------------   -----------------  -----------------  -----------------  -----------------
           H         -1.228411243070     0.545353768847    -1.179334985344     1.007825032070
           C         -0.764052243070     0.271774768847    -0.230749985344    12.000000000000
           N          0.565014756930     0.490181768847    -0.230749985344    14.003074004780
           O         -1.399853243070    -0.168903231153     0.680716014656    15.994914619560
           C          1.548167756930    -0.570937231153    -0.230749985344    12.000000000000
           H          0.879003756930     1.433417768847    -0.230749985344     1.007825032070
           H          2.176798756930    -0.516438231153    -1.112650985344     1.007825032070
           H          1.025654756930    -1.513959231153    -0.230749985344     1.007825032070
           H          2.176798756930    -0.516438231153     0.651151014656     1.007825032070

  Charge       = 0
  Multiplicity = 1
  Basis Set: 6-31G*
  Basis Set:

    Orbital Energies (a.u.)
    -----------------------

    Doubly Occupied:

       1A    -20.556817     2A    -15.556105     3A    -11.348519
       4A    -11.263900     5A     -1.403262     6A     -1.226585
       7A     -0.960154     8A     -0.815465     9A     -0.727908
      10A     -0.656585    11A     -0.641269    12A     -0.596180
      13A     -0.561262    14A     -0.511840    15A     -0.437975
      16A     -0.378022

  @DF-RHF Final Energy:  -207.92238766588417

   => Energetics <=

    Nuclear Repulsion Energy =            121.4625262646671189
    One-Electron Energy =                -523.4861432950305016
    Two-Electron Energy =                 194.1012293644789111
    DFT Exchange-Correlation Energy =       0.0000000000000000
    Empirical Dispersion Energy =           0.0000000000000000
    PCM Polarization Energy =               0.0000000000000000
    EFP Energy =                            0.0000000000000000
    Total Energy =                       -207.9223876658844574

  Mulliken Charges: (a.u.)
   Center  Symbol    Alpha    Beta     Spin     Total
       1     H     0.43106  0.43106  0.00000  0.13788
       2     C     2.76309  2.76309  0.00000  0.47381
       3     N     3.89474  3.89474  0.00000 -0.78947
       4     O     4.23394  4.23394  0.00000 -0.46789
       5     C     3.13201  3.13201  0.00000 -0.26402
       6     H     0.30876  0.30876  0.00000  0.38247
       7     H     0.41732  0.41732  0.00000  0.16536
       8     H     0.40599  0.40599  0.00000  0.18801
       9     H     0.41308  0.41308  0.00000  0.17384

   Total alpha = 16.00000, Total beta = 16.00000, Total charge =  0.00000
