  ==> Input File <==

--------------------------------------------------------------------------
set {
	reference rhf
	basis 6-31G*
}

set_num_threads( 1 )
memory 2 gb

molecule MOL {
0 1

H	 2.465338	 -2.224223	 0.000000
O	 2.784187	 -1.332015	 0.000000
C	 1.765313	 -0.449364	 0.000000
C	 1.423159	 0.131046	 -1.217374
C	 1.070694	 -0.115020	 1.146234
H	 1.978164	 -0.145245	 -2.094010
C	 0.389176	 1.041939	 -1.282327
H	 1.312891	 -0.546709	 2.097293
C	 0.038007	 0.803204	 1.045040
H	 0.131721	 1.485194	 -2.226307
C	 -0.324134	 1.394422	 -0.144440
N	 -0.693572	 1.153387	 2.260627
H	 -1.128628	 2.099407	 -0.178956
O	 -0.360034	 0.626817	 3.279208
O	 -1.580908	 1.944421	 2.164891

	symmetry c1
}
set optking {
	frozen_dihedral = ("
		11 9 12 14
	")
}

ee = energy('scf')
oeprop('DIPOLE', 'QUADRUPOLE', 'MULLIKEN_CHARGES')
f=open( 'psi4out.xyz', 'w' )
f.write( "15  " )
f.write( str(ee) + "\n" )
f.write( MOL.save_string_xyz() )
f.close()
--------------------------------------------------------------------------

    Molecular point group: c1

    Geometry (in Angstrom), charge = 0, multiplicity = 1:

       Center              X                  Y                   Z               Mass
    ------------   -----------------  -----------------  -----------------  -----------------
           H          2.027158180029    -2.730028612254    -0.797532074586     1.007825032070
           O          2.346007180029    -1.837820612254    -0.797532074586    15.994914619560
           C          1.327133180029    -0.955169612254    -0.797532074586    12.000000000000
           C          0.984979180029    -0.374759612254    -2.014906074586    12.000000000000
           C          0.632514180029    -0.620825612254     0.348701925414    12.000000000000
           H          1.539984180029    -0.651050612254    -2.891542074586     1.007825032070
           C         -0.049003819971     0.536133387746    -2.079859074586    12.000000000000
           H          0.874711180029    -1.052514612254     1.299760925414     1.007825032070
           C         -0.400172819971     0.297398387746     0.247507925414    12.000000000000
           H         -0.306458819971     0.979388387746    -3.023839074586     1.007825032070
           C         -0.762313819971     0.888616387746    -0.941972074586    12.000000000000
           N         -1.131751819971     0.647581387746     1.463094925414    14.003074004780
           H         -1.566807819971     1.593601387746    -0.976488074586     1.007825032070
           O         -0.798213819971     0.121011387746     2.481675925414    15.994914619560
           O         -2.019087819971     1.438615387746     1.367358925414    15.994914619560

  Charge       = 0
  Multiplicity = 1
  Basis Set: 6-31G*
  Basis Set:

    Orbital Energies (a.u.)
    -----------------------

    Doubly Occupied:

       1A    -20.603789     2A    -20.603154     3A    -20.601708
       4A    -15.858274     5A    -11.320912     6A    -11.308767
       7A    -11.268992     8A    -11.267465     9A    -11.264970
      10A    -11.262504    11A     -1.637054    12A     -1.426480
      13A     -1.420304    14A     -1.200098    15A     -1.093693
      16A     -1.045516    17A     -0.963599    18A     -0.870311
      19A     -0.831678    20A     -0.792725    21A     -0.739106
      22A     -0.736005    23A     -0.722934    24A     -0.709319
      25A     -0.680045    26A     -0.642094    27A     -0.627035
      28A     -0.568306    29A     -0.556516    30A     -0.528751
      31A     -0.509773    32A     -0.489823    33A     -0.484193
      34A     -0.453812    35A     -0.376501    36A     -0.356571

  @DF-RHF Final Energy:  -509.02271074316144

   => Energetics <=

    Nuclear Repulsion Energy =            503.2588535565606094
    One-Electron Energy =               -1692.9173986583750775
    Two-Electron Energy =                 680.6358343586550745
    DFT Exchange-Correlation Energy =       0.0000000000000000
    Empirical Dispersion Energy =           0.0000000000000000
    PCM Polarization Energy =               0.0000000000000000
    EFP Energy =                            0.0000000000000000
    Total Energy =                       -509.0227107431594504

  Mulliken Charges: (a.u.)
   Center  Symbol    Alpha    Beta     Spin     Total
       1     H     0.26648  0.26648  0.00000  0.46704
       2     O     4.38326  4.38326  0.00000 -0.76652
       3     C     2.81706  2.81706  0.00000  0.36587
       4     C     3.10266  3.10266  0.00000 -0.20531
       5     C     3.11372  3.11372  0.00000 -0.22744
       6     H     0.38307  0.38307  0.00000  0.23386
       7     C     3.10594  3.10594  0.00000 -0.21188
       8     H     0.36029  0.36029  0.00000  0.27941
       9     C     2.91794  2.91794  0.00000  0.16412
      10     H     0.38758  0.38758  0.00000  0.22484
      11     C     3.09075  3.09075  0.00000 -0.18151
      12     N     3.24013  3.24013  0.00000  0.51974
      13     H     0.36396  0.36396  0.00000  0.27208
      14     O     4.23396  4.23396  0.00000 -0.46792
      15     O     4.23319  4.23319  0.00000 -0.46639

   Total alpha = 36.00000, Total beta = 36.00000, Total charge = -0.00000
