  ==> Input File <==

--------------------------------------------------------------------------
set {
	reference rhf
	basis 6-31G*
}

set_num_threads( 1 )
memory 2 gb

molecule MOL {
0 1

H	 -2.046888	 0.703853	 0.747378
N	 -1.852125	 0.165761	 -0.074816
C	 -0.563778	 -0.502042	 0.037919
H	 -1.849697	 0.805953	 -0.846116
C	 0.575259	 0.508231	 -0.048326
H	 -0.482092	 -1.204004	 -0.786564
H	 -0.460411	 -1.085169	 0.956626
C	 1.954651	 -0.143624	 0.035137
H	 0.475158	 1.060484	 -0.977307
H	 0.469181	 1.234488	 0.755973
H	 2.103292	 -0.853109	 -0.774172
H	 2.742821	 0.599562	 -0.030094
H	 2.083613	 -0.679371	 0.971560

	symmetry c1
}
set optking {
	frozen_dihedral = ("
		6 3 5 9
	")
}

ee = energy('scf')
oeprop('DIPOLE', 'QUADRUPOLE', 'MULLIKEN_CHARGES')
f=open( 'psi4out.xyz', 'w' )
f.write( "13  " )
f.write( str(ee) + "\n" )
f.write( MOL.save_string_xyz() )
f.close()
--------------------------------------------------------------------------

    Molecular point group: c1

    Geometry (in Angstrom), charge = 0, multiplicity = 1:

       Center              X                  Y                   Z               Mass
    ------------   -----------------  -----------------  -----------------  -----------------
           H         -2.059023159756     0.682537348995     0.759794307577     1.007825032070
           N         -1.864260159756     0.144445348995    -0.062399692423    14.003074004780
           C         -0.575913159756    -0.523357651005     0.050335307577    12.000000000000
           H         -1.861832159756     0.784637348995    -0.833699692423     1.007825032070
           C          0.563123840244     0.486915348995    -0.035909692423    12.000000000000
           H         -0.494227159756    -1.225319651005    -0.774147692423     1.007825032070
           H         -0.472546159756    -1.106484651005     0.969042307577     1.007825032070
           C          1.942515840244    -0.164939651005     0.047553307577    12.000000000000
           H          0.463022840244     1.039168348995    -0.964890692423     1.007825032070
           H          0.457045840244     1.213172348995     0.768389307577     1.007825032070
           H          2.091156840244    -0.874424651005    -0.761755692423     1.007825032070
           H          2.730685840244     0.578246348995    -0.017677692423     1.007825032070
           H          2.071477840244    -0.700686651005     0.983976307577     1.007825032070

  Charge       = 0
  Multiplicity = 1
  Basis Set: 6-31G*
  Basis Set:

    Orbital Energies (a.u.)
    -----------------------

    Doubly Occupied:

       1A    -15.531502     2A    -11.241322     3A    -11.215108
       4A    -11.211452     5A     -1.178961     6A     -1.036370
       7A     -0.899360     8A     -0.808004     9A     -0.677943
      10A     -0.607034    11A     -0.604277    12A     -0.565212
      13A     -0.526681    14A     -0.513404    15A     -0.488807
      16A     -0.472785    17A     -0.373914

  @DF-RHF Final Energy:  -173.27981302031694

   => Energetics <=

    Nuclear Repulsion Energy =            132.2306124944670103
    One-Electron Energy =                -495.1165684598385610
    Two-Electron Energy =                 189.6061429450545575
    DFT Exchange-Correlation Energy =       0.0000000000000000
    Empirical Dispersion Energy =           0.0000000000000000
    PCM Polarization Energy =               0.0000000000000000
    EFP Energy =                            0.0000000000000000
    Total Energy =                       -173.2798130203169649

  Mulliken Charges: (a.u.)
   Center  Symbol    Alpha    Beta     Spin     Total
       1     H     0.33508  0.33508  0.00000  0.32985
       2     N     3.91786  3.91786  0.00000 -0.83573
       3     C     3.06143  3.06143  0.00000 -0.12287
       4     H     0.33410  0.33410  0.00000  0.33180
       5     C     3.15701  3.15701  0.00000 -0.31402
       6     H     0.41859  0.41859  0.00000  0.16283
       7     H     0.41912  0.41912  0.00000  0.16177
       8     C     3.24426  3.24426  0.00000 -0.48852
       9     H     0.42614  0.42614  0.00000  0.14772
      10     H     0.42619  0.42619  0.00000  0.14762
      11     H     0.42065  0.42065  0.00000  0.15870
      12     H     0.41836  0.41836  0.00000  0.16328
      13     H     0.42121  0.42121  0.00000  0.15757

   Total alpha = 17.00000, Total beta = 17.00000, Total charge =  0.00000
