                              Psi4 1.0.54 Driver

  ==> Input File <==

--------------------------------------------------------------------------
set {
	reference rhf
	basis cc-pvtz
}

set_num_threads( 4 )
memory 2 gb

molecule MOL {
0 1

H	 -2.761105	 -0.341516	 2.002527
O	 -1.924352	 -0.053610	 1.687899
C	 -2.021813	 0.336996	 0.342658
C	 -0.669613	 0.837286	 -0.127252
H	 -2.331772	 -0.504183	 -0.272212
H	 -2.767430	 1.121396	 0.227958
C	 0.490865	 -0.082543	 0.241244
H	 -0.708709	 0.967192	 -1.204587
H	 -0.507562	 1.822272	 0.303070
C	 1.839800	 0.429565	 -0.255472
H	 0.305636	 -1.070211	 -0.165276
H	 0.527397	 -0.195943	 1.322876
C	 3.001144	 -0.485193	 0.119072
H	 1.804373	 0.541073	 -1.335756
H	 2.020437	 1.423114	 0.146921
H	 2.866892	 -1.477297	 -0.298806
H	 3.943543	 -0.095749	 -0.249061
H	 3.085064	 -0.590459	 1.195790

	symmetry c1
}
set optking {
	frozen_dihedral = ("
		2 3 4 8
	")
}

ee,wfn = optimize('scf', return_wfn=True)
oeprop( wfn, 'DIPOLE', 'QUADRUPOLE', 'MULLIKEN_CHARGES')
f=open( 'psi4out.xyz', 'w' )
f.write( "18  " )
f.write( str(ee) + "\n" )
f.write( MOL.save_string_xyz() )
f.close()
--------------------------------------------------------------------------

    Molecular point group: c1
  Charge       = 0
  Multiplicity = 1
  Basis Set: CC-PVTZ
  Basis Set:
  @DF-RHF Final Energy:  -271.28545076221269
    Total Energy =                       -271.2854507622126334
    Molecular point group: c1
  Basis Set: CC-PVTZ
  Basis Set:
  Basis Set: CC-PVTZ
  Basis Set:
  @DF-RHF Final Energy:  -271.28572433394731
    Total Energy =                       -271.2857243339471438
  Basis Set: CC-PVTZ
  Basis Set:
  Basis Set: CC-PVTZ
  Basis Set:
  @DF-RHF Final Energy:  -271.28579215215490
    Total Energy =                       -271.2857921521546132
  Basis Set: CC-PVTZ
  Basis Set:
  Basis Set: CC-PVTZ
  Basis Set:
  @DF-RHF Final Energy:  -271.28579363499063
    Total Energy =                       -271.2857936349906822
  Basis Set: CC-PVTZ
  Basis Set:
  Charge       = 0
  Multiplicity = 1
  Basis Set: CC-PVTZ
  Basis Set:

    Orbital Energies (a.u.)
    -----------------------

    Doubly Occupied:

       1A    -20.546307     2A    -11.266300     3A    -11.210900
       4A    -11.208315     5A    -11.203412     6A    -11.202004
       7A     -1.364507     8A     -1.075560     9A     -1.009409
      10A     -0.914189    11A     -0.817972    12A     -0.783415
      13A     -0.705999    14A     -0.650086    15A     -0.622446
      16A     -0.583148    17A     -0.572617    18A     -0.557289
      19A     -0.522635    20A     -0.502741    21A     -0.490440
      22A     -0.466192    23A     -0.458043    24A     -0.446357
      25A     -0.432672

  @DF-RHF Final Energy:  -271.28579413918169

   => Energetics <=

    Nuclear Repulsion Energy =            249.8539332549489416
    One-Electron Energy =                -863.0535443181950086
    Two-Electron Energy =                 341.9138169240643492
    DFT Exchange-Correlation Energy =       0.0000000000000000
    Empirical Dispersion Energy =           0.0000000000000000
    PCM Polarization Energy =               0.0000000000000000
    EFP Energy =                            0.0000000000000000
    Total Energy =                       -271.2857941391816894
    Molecular point group: c1
  Basis Set: CC-PVTZ
  Basis Set:

  -Total Gradient:
     Atom            X                  Y                   Z
    ------   -----------------  -----------------  -----------------
       1       -0.000010699156    -0.000007613380     0.000011196805
       2        0.000777317229    -0.002832691286    -0.000874914683
       3       -0.000745688118     0.002959214032     0.000998952405
       4       -0.001259787266     0.003571974659     0.000259574731
       5       -0.000003769393    -0.000000793783     0.000007948582
       6       -0.000012497875    -0.000005923111     0.000042997705
       7       -0.000016107125     0.000014874850    -0.000049156794
       8        0.001267454455    -0.003692856166    -0.000425317795
       9       -0.000010062185     0.000000771380     0.000000545901
      10        0.000007947186    -0.000013121628    -0.000019510917
      11       -0.000002048990    -0.000005788030    -0.000004088757
      12       -0.000000783821     0.000003617028     0.000031186597
      13        0.000007072549     0.000011231189     0.000015149084
      14       -0.000006695262    -0.000001844074    -0.000000545030
      15        0.000002524817    -0.000001142837    -0.000000581751
      16       -0.000004076255     0.000004506862    -0.000005617860
      17        0.000005425924     0.000002300407     0.000004109690
      18        0.000004473282    -0.000006716112     0.000008072089

  **** Optimization is complete! (in 5 steps) ****
    Final optimized geometry and variables:
    Molecular point group: c1

    Geometry (in Angstrom), charge = 0, multiplicity = 1:

    H           -2.856822706249    -0.472675099450     1.656158471850
    O           -2.014444536128    -0.185494637214     1.356581676802
    C           -2.087268061059     0.189717353195     0.005945124894
    C           -0.734562742162     0.702253205412    -0.458083791724
    H           -2.374616704713    -0.667535193238    -0.600037736388
    H           -2.839875859080     0.960379439515    -0.138368165362
    C            0.426474255554    -0.231574034630    -0.121155528587
    H           -0.781228827133     0.811387003550    -1.538501331762
    H           -0.551308558244     1.683974696588    -0.033260753624
    C            1.762679792193     0.268045877140    -0.663300669404
    H            0.220766642922    -1.219491673572    -0.528070250254
    H            0.492174953186    -0.352509112266     0.952947813564
    C            2.927509212980    -0.656108477337    -0.324252552146
    H            1.697200263482     0.382525234945    -1.742301414176
    H            1.963283254954     1.258951289237    -0.264534617708
    H            2.774165189633    -1.646961262546    -0.739048972178
    H            3.861745747968    -0.273473357831    -0.719452036036
    H            3.041036308707    -0.763270837422     0.749276129373

  Mulliken Charges: (a.u.)
   Center  Symbol    Alpha    Beta     Spin     Total
       1     H     0.39605  0.39605  0.00000  0.20791
       2     O     4.19724  4.19724  0.00000 -0.39448
       3     C     2.97415  2.97415  0.00000  0.05169
       4     C     3.09177  3.09177  0.00000 -0.18355
       5     H     0.47338  0.47338  0.00000  0.05323
       6     H     0.46569  0.46569  0.00000  0.06861
       7     C     3.08454  3.08454  0.00000 -0.16907
       8     H     0.45614  0.45614  0.00000  0.08772
       9     H     0.45288  0.45288  0.00000  0.09425
      10     C     3.08397  3.08397  0.00000 -0.16794
      11     H     0.45930  0.45930  0.00000  0.08140
      12     H     0.44300  0.44300  0.00000  0.11400
      13     C     3.14966  3.14966  0.00000 -0.29932
      14     H     0.45698  0.45698  0.00000  0.08604
      15     H     0.45528  0.45528  0.00000  0.08944
      16     H     0.45588  0.45588  0.00000  0.08823
      17     H     0.44963  0.44963  0.00000  0.10074
      18     H     0.45444  0.45444  0.00000  0.09111

   Total alpha = 25.00000, Total beta = 25.00000, Total charge = -0.00000

*** Psi4 exiting successfully. Buy a developer a beer!
