  ==> Input File <==

--------------------------------------------------------------------------
set {
	reference rhf
	basis 6-31G*
}

set_num_threads( 4 )
memory 2 gb

molecule MOL {
0 1

O	 -1.609357	 1.206777	 0.206795
C	 -1.083277	 0.139568	 0.115197
C	 0.323299	 -0.082943	 0.642902
C	 -1.772979	 -1.031779	 -0.548194
C	 1.355627	 -0.005344	 -0.493127
H	 0.396251	 -1.044647	 1.143147
H	 0.528637	 0.693580	 1.371677
C	 2.786168	 -0.195604	 0.007473
H	 1.132807	 -0.760304	 -1.243899
H	 1.259610	 0.958506	 -0.981915
H	 3.495561	 -0.130713	 -0.811210
H	 2.912696	 -1.165395	 0.480041
H	 3.049284	 0.565503	 0.735850
H	 -1.133730	 -1.477005	 -1.305030
H	 -2.702349	 -0.708563	 -0.996010
H	 -1.977543	 -1.801373	 0.191457

	symmetry c1
}
set optking {
	frozen_dihedral = ("
		4 2 3 5
	")
}

ee = optimize('scf')
oeprop('DIPOLE', 'QUADRUPOLE', 'MULLIKEN_CHARGES')
f=open( 'psi4out.xyz', 'w' )
f.write( "16  " )
f.write( str(ee) + "\n" )
f.write( MOL.save_string_xyz() )
f.close()
--------------------------------------------------------------------------

    Molecular point group: c1
  Charge       = 0
  Multiplicity = 1
  Basis Set: 6-31G*
  Basis Set:
  @DF-RHF Final Energy:  -270.02999545718819
    Total Energy =                       -270.0299954571881926
    Molecular point group: c1
  Basis Set: 6-31G*
  Basis Set:
  Basis Set: 6-31G*
  Basis Set:
  @DF-RHF Final Energy:  -270.02985337675000
    Total Energy =                       -270.0298533767500544
  Basis Set: 6-31G*
  Basis Set:
  Basis Set: 6-31G*
  Basis Set:
  @DF-RHF Final Energy:  -270.02972672065857
    Total Energy =                       -270.0297267206583456
  Basis Set: 6-31G*
  Basis Set:
  Basis Set: 6-31G*
  Basis Set:
  @DF-RHF Final Energy:  -270.03010280627575
    Total Energy =                       -270.0301028062756359
  Basis Set: 6-31G*
  Basis Set:
  Basis Set: 6-31G*
  Basis Set:
  @DF-RHF Final Energy:  -270.02957843503407
    Total Energy =                       -270.0295784350340682
  Basis Set: 6-31G*
  Basis Set:
  Basis Set: 6-31G*
  Basis Set:
  @DF-RHF Final Energy:  -270.03011269098738
    Total Energy =                       -270.0301126909876075
  Basis Set: 6-31G*
  Basis Set:
  Basis Set: 6-31G*
  Basis Set:
  @DF-RHF Final Energy:  -270.03011386694254
    Total Energy =                       -270.0301138669424290
  Basis Set: 6-31G*
  Basis Set:
  Charge       = 0
  Multiplicity = 1
  Basis Set: 6-31G*
  Basis Set:

    Orbital Energies (a.u.)
    -----------------------

    Doubly Occupied:

       1A    -20.548451     2A    -11.324759     3A    -11.235310
       4A    -11.230153     5A    -11.228021     6A    -11.220681
       7A     -1.393684     8A     -1.084127     9A     -1.011882
      10A     -0.950188    11A     -0.831275    12A     -0.735440
      13A     -0.659695    14A     -0.649038    15A     -0.612830
      16A     -0.608350    17A     -0.576807    18A     -0.556214
      19A     -0.534986    20A     -0.519730    21A     -0.505961
      22A     -0.485639    23A     -0.472960    24A     -0.398363

  @DF-RHF Final Energy:  -270.03011399127530

   => Energetics <=

    Nuclear Repulsion Energy =            236.9085286111335904
    One-Electron Energy =                -835.1281993988909562
    Two-Electron Energy =                 328.1895567964820657
    DFT Exchange-Correlation Energy =       0.0000000000000000
    Empirical Dispersion Energy =           0.0000000000000000
    PCM Polarization Energy =               0.0000000000000000
    EFP Energy =                            0.0000000000000000
    Total Energy =                       -270.0301139912753570
    Molecular point group: c1
  Basis Set: 6-31G*
  Basis Set:

  -Total Gradient:
     Atom            X                  Y                   Z
    ------   -----------------  -----------------  -----------------
       1        0.000012179820     0.000004552617    -0.000009122028
       2       -0.000388281465    -0.000516064580     0.000817028876
       3        0.000204426947     0.000941380837    -0.000137185473
       4        0.000220091644     0.000181619340    -0.000552809240
       5       -0.000068329274    -0.000597754032    -0.000093207788
       6       -0.000000449896    -0.000003237598    -0.000001608968
       7        0.000005489734    -0.000004174119    -0.000000065816
       8       -0.000001178537    -0.000011962880     0.000002437057
       9        0.000002818918    -0.000000199968     0.000004357322
      10       -0.000009129133     0.000001654236    -0.000003664186
      11       -0.000001937555    -0.000005364273    -0.000000249788
      12        0.000001453367     0.000002007071     0.000006381805
      13        0.000001970686     0.000003692101    -0.000005353343
      14        0.000009613599     0.000010928816    -0.000008892187
      15        0.000004309889     0.000002388476    -0.000003612523
      16        0.000006951264    -0.000009466048    -0.000014433722

  **** Optimization is complete! (in 8 steps) ****
    Final optimized geometry and variables:
    Molecular point group: c1

    Geometry (in Angstrom), charge = 0, multiplicity = 1:

    O           -1.622808333710     1.200095228798     0.239192921423
    C           -1.091651745892     0.136860379509     0.131746285157
    C            0.320565413728    -0.089806565467     0.640287962044
    C           -1.794639283439    -1.031241882196    -0.527550578453
    C            1.361709020289    -0.016059935680    -0.488520523974
    H            0.384887861691    -1.060235560538     1.127325082929
    H            0.526024344052     0.674955436781     1.379847897677
    C            2.787995172643    -0.188065505515     0.031625128566
    H            1.157723904086    -0.779830062452    -1.233975281163
    H            1.269616423173     0.942814351553    -0.990383522201
    H            3.506596871339    -0.129807536184    -0.779433605380
    H            2.914762747328    -1.150270848584     0.519310897302
    H            3.036778716906     0.584868005842     0.752244563730
    H           -1.174186222395    -1.484327433441    -1.293725375196
    H           -2.726270657440    -0.697320664883    -0.962623031693
    H           -2.000949648650    -1.798182478427     0.214397172718

  Mulliken Charges: (a.u.)
   Center  Symbol    Alpha    Beta     Spin     Total
       1     O     4.26026  4.26026  0.00000 -0.52053
       2     C     2.73716  2.73716  0.00000  0.52569
       3     C     3.20007  3.20007  0.00000 -0.40015
       4     C     3.28989  3.28989  0.00000 -0.57978
       5     C     3.16329  3.16329  0.00000 -0.32658
       6     H     0.41635  0.41635  0.00000  0.16730
       7     H     0.40002  0.40002  0.00000  0.19996
       8     C     3.23941  3.23941  0.00000 -0.47882
       9     H     0.41922  0.41922  0.00000  0.16156
      10     H     0.40893  0.40893  0.00000  0.18214
      11     H     0.41542  0.41542  0.00000  0.16916
      12     H     0.42029  0.42029  0.00000  0.15942
      13     H     0.41686  0.41686  0.00000  0.16628
      14     H     0.40920  0.40920  0.00000  0.18160
      15     H     0.39650  0.39650  0.00000  0.20700
      16     H     0.40713  0.40713  0.00000  0.18574

   Total alpha = 24.00000, Total beta = 24.00000, Total charge = -0.00000
