                              Psi4 1.0.54 Driver

  ==> Input File <==

--------------------------------------------------------------------------
set {
	reference rhf
	basis cc-pvtz
}

set_num_threads( 4 )
memory 2 gb

molecule MOL {
0 1

H	 2.408240	 -2.036728	 -1.067621
O	 2.736398	 -1.194210	 -0.808394
C	 1.741989	 -0.376744	 -0.419187
C	 2.088472	 0.902816	 -0.009559
C	 0.420012	 -0.767550	 -0.416746
H	 3.122284	 1.186181	 -0.019223
C	 1.113217	 1.783086	 0.399529
H	 0.124390	 -1.748037	 -0.727472
C	 -0.532034	 0.141680	 0.000000
H	 1.390354	 2.769899	 0.714398
C	 -0.221469	 1.413723	 0.410776
N	 -1.937041	 -0.281114	 0.000000
H	 -0.989165	 2.086189	 0.725667
O	 -2.159542	 -1.446261	 0.000000
O	 -2.764978	 0.565773	 0.000000

	symmetry c1
}
set optking {
	frozen_dihedral = ("
		11 9 12 14
	")
}

ee,wfn = optimize('scf', return_wfn=True)
oeprop( wfn, 'DIPOLE', 'QUADRUPOLE', 'MULLIKEN_CHARGES')
f=open( 'psi4out.xyz', 'w' )
f.write( "15  " )
f.write( str(ee) + "\n" )
f.write( MOL.save_string_xyz() )
f.close()
--------------------------------------------------------------------------

    Molecular point group: c1
  Charge       = 0
  Multiplicity = 1
  Basis Set: CC-PVTZ
  Basis Set:
  @DF-RHF Final Energy:  -509.21842759773062
    Total Energy =                       -509.2184275977307379
    Molecular point group: c1
  Basis Set: CC-PVTZ
  Basis Set:
  Basis Set: CC-PVTZ
  Basis Set:
  @DF-RHF Final Energy:  -509.21182794664111
    Total Energy =                       -509.2118279466412787
  Basis Set: CC-PVTZ
  Basis Set:
  Basis Set: CC-PVTZ
  Basis Set:
  @DF-RHF Final Energy:  -509.21761622875044
    Total Energy =                       -509.2176162287505576
  Basis Set: CC-PVTZ
  Basis Set:
  Basis Set: CC-PVTZ
  Basis Set:
  @DF-RHF Final Energy:  -509.21848630796688
    Total Energy =                       -509.2184863079667139
  Basis Set: CC-PVTZ
  Basis Set:
  Basis Set: CC-PVTZ
  Basis Set:
  @DF-RHF Final Energy:  -509.21849186184465
    Total Energy =                       -509.2184918618448819
  Basis Set: CC-PVTZ
  Basis Set:
  Basis Set: CC-PVTZ
  Basis Set:
  @DF-RHF Final Energy:  -509.21850228184138
    Total Energy =                       -509.2185022818416655
  Basis Set: CC-PVTZ
  Basis Set:
  Charge       = 0
  Multiplicity = 1
  Basis Set: CC-PVTZ
  Basis Set:

    Orbital Energies (a.u.)
    -----------------------

    Doubly Occupied:

       1A    -20.608708     2A    -20.595632     3A    -20.595079
       4A    -15.850446     5A    -11.328088     6A    -11.309378
       7A    -11.263445     8A    -11.263059     9A    -11.258664
      10A    -11.256051    11A     -1.644431    12A     -1.441357
      13A     -1.427101    14A     -1.202895    15A     -1.095820
      16A     -1.048294    17A     -0.966914    18A     -0.882165
      19A     -0.832101    20A     -0.795069    21A     -0.758413
      22A     -0.742403    23A     -0.728235    24A     -0.710220
      25A     -0.676691    26A     -0.636116    27A     -0.621949
      28A     -0.598357    29A     -0.561378    30A     -0.547170
      31A     -0.522528    32A     -0.494903    33A     -0.493265
      34A     -0.459833    35A     -0.379694    36A     -0.346301

  @DF-RHF Final Energy:  -509.21850287398325

   => Energetics <=

    Nuclear Repulsion Energy =            504.7319234746032066
    One-Electron Energy =               -1696.0165460193929903
    Two-Electron Energy =                 682.0661196708063017
    DFT Exchange-Correlation Energy =       0.0000000000000000
    Empirical Dispersion Energy =           0.0000000000000000
    PCM Polarization Energy =               0.0000000000000000
    EFP Energy =                            0.0000000000000000
    Total Energy =                       -509.2185028739834252
    Molecular point group: c1
  Basis Set: CC-PVTZ
  Basis Set:

  -Total Gradient:
     Atom            X                  Y                   Z
    ------   -----------------  -----------------  -----------------
       1        0.000000588499     0.000000504445    -0.000010226916
       2       -0.000002510194    -0.000005912698     0.000009503077
       3       -0.000006049404    -0.000005612110     0.000010866898
       4       -0.000005257296     0.000004019564    -0.000013320016
       5       -0.000017098214     0.000007033595    -0.000007876901
       6       -0.000000331553    -0.000002391030     0.000004989961
       7       -0.000004890922     0.000005574057    -0.000012660755
       8       -0.000006888533    -0.000007800464    -0.000001192733
       9       -0.000290628057     0.000726830813    -0.001507646408
      10       -0.000003121598    -0.000000648078    -0.000003101026
      11        0.000214471901    -0.000543430664     0.001573201302
      12       -0.000176920878    -0.000205293180    -0.001952193698
      13        0.000005723211    -0.000003785663    -0.000002814200
      14        0.000245596638    -0.000053589514     0.001900668709
      15        0.000047316392     0.000084500923     0.000011802707

  **** Optimization is complete! (in 7 steps) ****
    Final optimized geometry and variables:
    Molecular point group: c1

    Geometry (in Angstrom), charge = 0, multiplicity = 1:

    H            2.406793385723    -2.037010690256    -1.019428165074
    O            2.732801504893    -1.189949330920    -0.772693328513
    C            1.741077819266    -0.380754186001    -0.360795179214
    C            2.087000566126     0.899784391476     0.046723131934
    C            0.422234649408    -0.781594045175    -0.329492989327
    H            3.118888236923     1.188908502702     0.020516268445
    C            1.114402656249     1.772701585835     0.477336204263
    H            0.127925397208    -1.768349260627    -0.622454148270
    C           -0.527386129211     0.125355307920     0.095529739534
    H            1.392380365405     2.758072998279     0.795990697106
    C           -0.218630492177     1.397693528044     0.504840047981
    N           -1.925675367803    -0.311631320244     0.139113390085
    H           -0.986213498625     2.066309867094     0.829299946870
    O           -2.133638550249    -1.479529842242     0.138341468011
    O           -2.760237695285     0.527570203230     0.186605683795

  Mulliken Charges: (a.u.)
   Center  Symbol    Alpha    Beta     Spin     Total
       1     H     0.38418  0.38418  0.00000  0.23164
       2     O     4.16841  4.16841  0.00000 -0.33683
       3     C     2.84434  2.84434  0.00000  0.31132
       4     C     3.09795  3.09795  0.00000 -0.19589
       5     C     3.13549  3.13549  0.00000 -0.27097
       6     H     0.41323  0.41323  0.00000  0.17354
       7     C     3.05642  3.05642  0.00000 -0.11285
       8     H     0.40966  0.40966  0.00000  0.18069
       9     C     2.96943  2.96943  0.00000  0.06113
      10     H     0.41599  0.41599  0.00000  0.16802
      11     C     3.09854  3.09854  0.00000 -0.19707
      12     N     3.25582  3.25582  0.00000  0.48836
      13     H     0.40139  0.40139  0.00000  0.19722
      14     O     4.17623  4.17623  0.00000 -0.35246
      15     O     4.17292  4.17292  0.00000 -0.34585

   Total alpha = 36.00000, Total beta = 36.00000, Total charge = -0.00000

*** Psi4 exiting successfully. Buy a developer a beer!
