                              Psi4 1.0.54 Driver

  ==> Input File <==

--------------------------------------------------------------------------
set {
	reference rhf
	basis cc-pvtz
}

set_num_threads( 4 )
memory 2 gb

molecule MOL {
0 1

O	 -2.440701	 -0.934798	 -0.415053
C	 -1.922978	 0.063265	 -0.045005
C	 -2.632749	 1.372204	 0.158357
O	 -0.637375	 0.157174	 0.243149
H	 -2.187724	 2.129143	 -0.474664
H	 -3.677681	 1.257276	 -0.079438
H	 -2.516788	 1.693160	 1.185542
C	 0.162530	 -1.009518	 0.097799
C	 1.587210	 -0.664190	 0.477086
H	 0.096803	 -1.356267	 -0.924704
H	 -0.233803	 -1.785900	 0.736810
C	 1.903169	 0.828416	 0.431655
H	 2.241891	 -1.195406	 -0.208434
H	 1.791520	 -1.055272	 1.469129
C	 3.353257	 1.133830	 0.791631
H	 1.690950	 1.207323	 -0.564583
H	 1.242527	 1.356614	 1.109447
H	 3.551109	 2.198396	 0.747597
H	 4.039856	 0.641574	 0.110707
H	 3.586294	 0.795860	 1.795866

	symmetry c1
}
set optking {
	frozen_dihedral = ("
		12 9 8 10
	")
}

ee,wfn = optimize('scf', return_wfn=True)
oeprop( wfn, 'DIPOLE', 'QUADRUPOLE', 'MULLIKEN_CHARGES')
f=open( 'psi4out.xyz', 'w' )
f.write( "20  " )
f.write( str(ee) + "\n" )
f.write( MOL.save_string_xyz() )
f.close()
--------------------------------------------------------------------------

    Molecular point group: c1
  Charge       = 0
  Multiplicity = 1
  Basis Set: CC-PVTZ
  Basis Set:
  @DF-RHF Final Energy:  -384.07953477372968
    Total Energy =                       -384.0795347737297334
    Molecular point group: c1
  Basis Set: CC-PVTZ
  Basis Set:
  Basis Set: CC-PVTZ
  Basis Set:
  @DF-RHF Final Energy:  -384.07960743830722
    Total Energy =                       -384.0796074383071073
  Basis Set: CC-PVTZ
  Basis Set:
  Basis Set: CC-PVTZ
  Basis Set:
  @DF-RHF Final Energy:  -384.08079070060103
    Total Energy =                       -384.0807907006009145
  Basis Set: CC-PVTZ
  Basis Set:
  Basis Set: CC-PVTZ
  Basis Set:
  @DF-RHF Final Energy:  -384.08068767625156
    Total Energy =                       -384.0806876762518414
  Basis Set: CC-PVTZ
  Basis Set:
  Basis Set: CC-PVTZ
  Basis Set:
  @DF-RHF Final Energy:  -384.08089813425329
    Total Energy =                       -384.0808981342531752
  Basis Set: CC-PVTZ
  Basis Set:
  Charge       = 0
  Multiplicity = 1
  Basis Set: CC-PVTZ
  Basis Set:

    Orbital Energies (a.u.)
    -----------------------

    Doubly Occupied:

       1A    -20.595207     2A    -20.533249     3A    -11.367243
       4A    -11.280234     5A    -11.232081     6A    -11.223952
       7A    -11.217785     8A    -11.210522     9A     -1.472181
      10A     -1.366091    11A     -1.083449    12A     -1.029268
      13A     -0.980697    14A     -0.882078    15A     -0.819065
      16A     -0.764987    17A     -0.693019    18A     -0.691343
      19A     -0.671225    20A     -0.635518    21A     -0.595270
      22A     -0.594419    23A     -0.574311    24A     -0.548789
      25A     -0.546477    26A     -0.536367    27A     -0.508429
      28A     -0.483923    29A     -0.478063    30A     -0.469551
      31A     -0.446506    32A     -0.442670

  @DF-RHF Final Energy:  -384.08090531958624

   => Energetics <=

    Nuclear Repulsion Energy =            386.8651813176885526
    One-Electron Energy =               -1289.9442339963375161
    Two-Electron Energy =                 518.9981473590628411
    DFT Exchange-Correlation Energy =       0.0000000000000000
    Empirical Dispersion Energy =           0.0000000000000000
    PCM Polarization Energy =               0.0000000000000000
    EFP Energy =                            0.0000000000000000
    Total Energy =                       -384.0809053195861225
    Molecular point group: c1
  Basis Set: CC-PVTZ
  Basis Set:

  -Total Gradient:
     Atom            X                  Y                   Z
    ------   -----------------  -----------------  -----------------
       1       -0.000037976777    -0.000141379149    -0.000097516944
       2        0.000231946894     0.000144832599     0.000186897871
       3        0.000013708208     0.000021841061    -0.000030822727
       4       -0.000232200584     0.000066132048    -0.000052536878
       5       -0.000015542917     0.000002203406     0.000002381752
       6        0.000039055746    -0.000025125611    -0.000007661370
       7        0.000000005262     0.000013417234     0.000020669167
       8       -0.001442848225     0.006733464940    -0.000182209015
       9        0.001934278185    -0.001577139329    -0.005324892595
      10        0.000776453308    -0.005389125396     0.001472131510
      11       -0.000000792375     0.000027414735     0.000026836160
      12       -0.001278284412     0.000086804470     0.004053771416
      13       -0.000018249675    -0.000028354626    -0.000035466134
      14        0.000001890947    -0.000002694986     0.000019008509
      15        0.000024651002     0.000023606320    -0.000030816849
      16        0.000017203467     0.000006856910    -0.000032215018
      17       -0.000048980574     0.000049442176     0.000019611822
      18        0.000011280674     0.000019805659     0.000006330986
      19        0.000042685164    -0.000018248010    -0.000029945137
      20       -0.000018283326    -0.000013754453     0.000016443476

  **** Optimization is complete! (in 6 steps) ****
    Final optimized geometry and variables:
    Molecular point group: c1

    Geometry (in Angstrom), charge = 0, multiplicity = 1:

    O           -2.340217714588    -1.077107929996    -0.719762246561
    C           -1.874320779530    -0.086233733808    -0.270436575512
    C           -2.648851398369     1.166323751779     0.027520510759
    O           -0.595495238496     0.050402826524     0.030696851966
    H           -2.238922583441     1.990937811385    -0.541254918065
    H           -3.685567297240     1.018630775240    -0.227349174040
    H           -2.554122516866     1.411636220188     1.077490593798
    C            0.257659923680    -1.058527381909    -0.200115883119
    C            1.693179307720    -0.732792331247     0.224388038074
    H            0.207860535798    -1.351295297672    -1.239376683945
    H           -0.117310487618    -1.901402565480     0.363203621276
    C            2.055532041061     0.750707651003     0.275382527518
    H            2.364261620145    -1.252672776753    -0.450926488337
    H            1.871187465614    -1.152350658250     1.209599436379
    C            3.521627668109     0.967763754160     0.635469335646
    H            1.846522813324     1.216053450656    -0.683243775582
    H            1.424995370257     1.250192512305     0.999214831663
    H            3.758449522569     2.024286829254     0.683206303170
    H            4.179952052198     0.514357642853    -0.098217882992
    H            3.756630977793     0.533126626128     1.601620477099

  Mulliken Charges: (a.u.)
   Center  Symbol    Alpha    Beta     Spin     Total
       1     O     4.19739  4.19739  0.00000 -0.39477
       2     C     2.80972  2.80972  0.00000  0.38056
       3     C     3.13845  3.13845  0.00000 -0.27690
       4     O     4.14773  4.14773  0.00000 -0.29547
       5     H     0.44580  0.44580  0.00000  0.10839
       6     H     0.43737  0.43737  0.00000  0.12525
       7     H     0.44598  0.44598  0.00000  0.10804
       8     C     2.98663  2.98663  0.00000  0.02675
       9     C     3.09821  3.09821  0.00000 -0.19643
      10     H     0.45203  0.45203  0.00000  0.09595
      11     H     0.44968  0.44968  0.00000  0.10065
      12     C     3.07718  3.07718  0.00000 -0.15436
      13     H     0.45058  0.45058  0.00000  0.09884
      14     H     0.45193  0.45193  0.00000  0.09614
      15     C     3.15190  3.15190  0.00000 -0.30379
      16     H     0.45347  0.45347  0.00000  0.09306
      17     H     0.44783  0.44783  0.00000  0.10434
      18     H     0.44742  0.44742  0.00000  0.10515
      19     H     0.45552  0.45552  0.00000  0.08896
      20     H     0.45519  0.45519  0.00000  0.08963

   Total alpha = 32.00000, Total beta = 32.00000, Total charge = -0.00000

*** Psi4 exiting successfully. Buy a developer a beer!
