  ==> Input File <==

--------------------------------------------------------------------------
set {
	reference rhf
	basis cc-pvtz
}

set_num_threads( 4 )
memory 2 gb

molecule MOL {
0 1

H	 1.130023	 -1.242328	 -0.083109
O	 1.292517	 -0.483084	 -0.613766
C	 0.706474	 0.636793	 -0.025501
C	 -0.793473	 0.591216	 0.050087
H	 1.007692	 1.489700	 -0.622257
H	 1.103840	 0.802397	 0.974187
C	 -1.534243	 -0.493009	 -0.013340
H	 -1.266611	 1.552628	 0.164437
H	 -1.101195	 -1.466332	 -0.144046
H	 -2.604242	 -0.437780	 0.050785

	symmetry c1
}
set optking {
	frozen_dihedral = ("
		5 3 4 7
	")
}

ee = optimize('scf')
oeprop('DIPOLE', 'QUADRUPOLE', 'MULLIKEN_CHARGES')
f=open( 'psi4out.xyz', 'w' )
f.write( "10  " )
f.write( str(ee) + "\n" )
f.write( MOL.save_string_xyz() )
f.close()
--------------------------------------------------------------------------

    Molecular point group: c1
  Charge       = 0
  Multiplicity = 1
  Basis Set: CC-PVTZ
  Basis Set:
  @DF-RHF Final Energy:  -191.99624445592525
    Total Energy =                       -191.9962444559251651
    Molecular point group: c1
  Basis Set: CC-PVTZ
  Basis Set:
  Basis Set: CC-PVTZ
  Basis Set:
  @DF-RHF Final Energy:  -191.99677223093016
    Total Energy =                       -191.9967722309301905
  Basis Set: CC-PVTZ
  Basis Set:
  Basis Set: CC-PVTZ
  Basis Set:
  @DF-RHF Final Energy:  -191.99685863191868
    Total Energy =                       -191.9968586319187125
  Basis Set: CC-PVTZ
  Basis Set:
  Basis Set: CC-PVTZ
  Basis Set:
  @DF-RHF Final Energy:  -191.99686650386366
    Total Energy =                       -191.9968665038636573
  Basis Set: CC-PVTZ
  Basis Set:
  Basis Set: CC-PVTZ
  Basis Set:
  @DF-RHF Final Energy:  -191.99686848404684
    Total Energy =                       -191.9968684840467290
  Basis Set: CC-PVTZ
  Basis Set:
  Basis Set: CC-PVTZ
  Basis Set:
  @DF-RHF Final Energy:  -191.99630326082806
    Total Energy =                       -191.9963032608280855
  Basis Set: CC-PVTZ
  Basis Set:
  Basis Set: CC-PVTZ
  Basis Set:
  @DF-RHF Final Energy:  -191.99686663949328
    Total Energy =                       -191.9968666394932484
  Basis Set: CC-PVTZ
  Basis Set:
  Charge       = 0
  Multiplicity = 1
  Basis Set: CC-PVTZ
  Basis Set:

    Orbital Energies (a.u.)
    -----------------------

    Doubly Occupied:

       1A    -20.555424     2A    -11.278689     3A    -11.230219
       4A    -11.216703     5A     -1.375758     6A     -1.062520
       7A     -0.932981     8A     -0.769648     9A     -0.698610
      10A     -0.664788    11A     -0.623051    12A     -0.573246
      13A     -0.530970    14A     -0.507237    15A     -0.449923
      16A     -0.368498

  @DF-RHF Final Energy:  -191.99686870426964

   => Energetics <=

    Nuclear Repulsion Energy =            119.2932421920354784
    One-Electron Energy =                -496.9036914681547614
    Two-Electron Energy =                 185.6135805718496954
    DFT Exchange-Correlation Energy =       0.0000000000000000
    Empirical Dispersion Energy =           0.0000000000000000
    PCM Polarization Energy =               0.0000000000000000
    EFP Energy =                            0.0000000000000000
    Total Energy =                       -191.9968687042696160
    Molecular point group: c1
  Basis Set: CC-PVTZ
  Basis Set:

  -Total Gradient:
     Atom            X                  Y                   Z
    ------   -----------------  -----------------  -----------------
       1        0.000000230088     0.000003405111    -0.000008599187
       2       -0.000025513773     0.000041757559     0.000029920188
       3       -0.000050139994    -0.003244281427    -0.002297025614
       4       -0.000323729173     0.001205624569    -0.005297460900
       5        0.000146322670     0.002397750129     0.003502004130
       6        0.000009529470     0.000013400594     0.000017736756
       7        0.000225799264    -0.000417708275     0.004054747173
       8        0.000005977452    -0.000002507457     0.000002804338
       9        0.000006734460     0.000001822518    -0.000000323675
      10        0.000004789539     0.000000736679    -0.000003803209

  **** Optimization is complete! (in 8 steps) ****
    Final optimized geometry and variables:
    Molecular point group: c1

    Geometry (in Angstrom), charge = 0, multiplicity = 1:

    H            1.259856503110    -1.247444777510     0.176725884891
    O            1.306449282559    -0.533703672481    -0.432521364263
    C            0.715646748230     0.602321865102     0.115621443252
    C           -0.784944623674     0.566894971889     0.202343815131
    H            1.023811367746     1.453933654790    -0.477838259508
    H            1.104131826055     0.793755018711     1.115623306946
    C           -1.538714476218    -0.507812497902     0.139746700064
    H           -1.242181154917     1.520886624816     0.407454603252
    H           -1.130292824000    -1.478724034199    -0.068998511164
    H           -2.603296306580    -0.447370061309     0.261563023752

  Mulliken Charges: (a.u.)
   Center  Symbol    Alpha    Beta     Spin     Total
       1     H     0.39066  0.39066  0.00000  0.21867
       2     O     4.19777  4.19777  0.00000 -0.39553
       3     C     2.95180  2.95180  0.00000  0.09639
       4     C     3.07366  3.07366  0.00000 -0.14732
       5     H     0.45419  0.45419  0.00000  0.09163
       6     H     0.47079  0.47079  0.00000  0.05842
       7     C     3.17913  3.17913  0.00000 -0.35825
       8     H     0.42271  0.42271  0.00000  0.15458
       9     H     0.43159  0.43159  0.00000  0.13682
      10     H     0.42770  0.42770  0.00000  0.14461

   Total alpha = 16.00000, Total beta = 16.00000, Total charge =  0.00000
