  ==> Input File <==

--------------------------------------------------------------------------
set {
	reference rhf
	basis cc-pvtz
}

set_num_threads( 4 )
memory 2 gb

molecule MOL {
0 1

H	 -2.816458	 -0.841657	 -0.064679
N	 -1.878861	 -0.711874	 0.250184
C	 -1.341419	 0.551458	 -0.220231
H	 -1.333674	 -1.468530	 -0.105118
C	 0.082190	 0.731516	 0.254705
H	 -1.357065	 0.652078	 -1.304747
H	 -1.939897	 1.357530	 0.189797
O	 0.154336	 0.381421	 1.603755
H	 0.749798	 0.101504	 -0.331432
H	 0.384467	 1.767440	 0.118992
C	 1.403374	 0.569000	 2.181629
H	 1.340117	 0.264302	 3.216300
H	 2.164524	 -0.030740	 1.687000
H	 1.707760	 1.612212	 2.141368

	symmetry c1
}
set optking {
	frozen_dihedral = ("
		8 5 3 6
	")
}

ee = optimize('scf')
oeprop('DIPOLE', 'QUADRUPOLE', 'MULLIKEN_CHARGES')
f=open( 'psi4out.xyz', 'w' )
f.write( "14  " )
f.write( str(ee) + "\n" )
f.write( MOL.save_string_xyz() )
f.close()
--------------------------------------------------------------------------

    Molecular point group: c1
  Charge       = 0
  Multiplicity = 1
  Basis Set: CC-PVTZ
  Basis Set:
  @DF-RHF Final Energy:  -248.21793689912619
    Total Energy =                       -248.2179368991261299
    Molecular point group: c1
  Basis Set: CC-PVTZ
  Basis Set:
  Basis Set: CC-PVTZ
  Basis Set:
  @DF-RHF Final Energy:  -248.21885287248529
    Total Energy =                       -248.2188528724853995
  Basis Set: CC-PVTZ
  Basis Set:
  Basis Set: CC-PVTZ
  Basis Set:
  @DF-RHF Final Energy:  -248.21908233025090
    Total Energy =                       -248.2190823302507852
  Basis Set: CC-PVTZ
  Basis Set:
  Basis Set: CC-PVTZ
  Basis Set:
  @DF-RHF Final Energy:  -248.21909615542279
    Total Energy =                       -248.2190961554227897
  Basis Set: CC-PVTZ
  Basis Set:
  Basis Set: CC-PVTZ
  Basis Set:
  @DF-RHF Final Energy:  -248.21910252307180
    Total Energy =                       -248.2191025230719106
  Basis Set: CC-PVTZ
  Basis Set:
  Basis Set: CC-PVTZ
  Basis Set:
  @DF-RHF Final Energy:  -248.21910483818738
    Total Energy =                       -248.2191048381873770
  Basis Set: CC-PVTZ
  Basis Set:
  Charge       = 0
  Multiplicity = 1
  Basis Set: CC-PVTZ
  Basis Set:

    Orbital Energies (a.u.)
    -----------------------

    Doubly Occupied:

       1A    -20.545664     2A    -15.523257     3A    -11.267508
       4A    -11.260868     5A    -11.242245     6A     -1.382560
       7A     -1.175380     8A     -0.999481     9A     -0.906996
      10A     -0.817116    11A     -0.684945    12A     -0.667198
      13A     -0.653760    14A     -0.613991    15A     -0.583089
      16A     -0.576291    17A     -0.516658    18A     -0.501220
      19A     -0.466979    20A     -0.415328    21A     -0.380802

  @DF-RHF Final Energy:  -248.21910529916909

   => Energetics <=

    Nuclear Repulsion Energy =            194.2929903591818857
    One-Electron Energy =                -722.6615185398220547
    Two-Electron Energy =                 280.1494228814711960
    DFT Exchange-Correlation Energy =       0.0000000000000000
    Empirical Dispersion Energy =           0.0000000000000000
    PCM Polarization Energy =               0.0000000000000000
    EFP Energy =                            0.0000000000000000
    Total Energy =                       -248.2191052991689730
    Molecular point group: c1
  Basis Set: CC-PVTZ
  Basis Set:

  -Total Gradient:
     Atom            X                  Y                   Z
    ------   -----------------  -----------------  -----------------
       1        0.000003662930     0.000004459858     0.000001729999
       2        0.000004513171    -0.000008648463     0.000005264239
       3       -0.000650292785     0.004547701779     0.000137938462
       4        0.000000521273    -0.000004113246    -0.000001912086
       5       -0.000926727326     0.004019674381     0.001297654960
       6        0.000750372191    -0.004831237928    -0.000392979579
       7        0.000000296215     0.000010712165     0.000003371526
       8        0.000797203894    -0.003745339551    -0.001025807824
       9        0.000009259124     0.000002545556    -0.000024481316
      10        0.000007050887     0.000002392788    -0.000001950429
      11        0.000004867207     0.000001454402     0.000005522057
      12       -0.000003262328     0.000000565403    -0.000004075582
      13        0.000001033999     0.000000944993    -0.000000086216
      14        0.000001501550    -0.000001112136    -0.000000188213

  **** Optimization is complete! (in 7 steps) ****
    Final optimized geometry and variables:
    Molecular point group: c1

    Geometry (in Angstrom), charge = 0, multiplicity = 1:

    H           -2.491416204088    -1.167149805550    -1.071120512440
    N           -1.616012153721    -1.012407981652    -0.618789737966
    C           -1.045656450106     0.259884042198    -1.025376037781
    H           -1.014706671171    -1.772991213964    -0.857067342895
    C            0.377088814964     0.436482777002    -0.525058525039
    H           -1.000945643553     0.356398048953    -2.110975263991
    H           -1.672137783678     1.053905373085    -0.637993110577
    O            0.482392769080     0.113697521931     0.820142158201
    H            1.044049772990    -0.204848519825    -1.105572984617
    H            0.689334870338     1.464595678355    -0.704617143812
    C            1.756018458110     0.276471123742     1.346261887874
    H            1.722779990361    -0.010474250496     2.387140178852
    H            2.483237863023    -0.350928635471     0.833902168555
    H            2.089228747333     1.310367531535     1.278783222006

  Mulliken Charges: (a.u.)
   Center  Symbol    Alpha    Beta     Spin     Total
       1     H     0.43111  0.43111  0.00000  0.13777
       2     N     3.67767  3.67767  0.00000 -0.35534
       3     C     3.02474  3.02474  0.00000 -0.04949
       4     H     0.43366  0.43366  0.00000  0.13267
       5     C     2.97218  2.97218  0.00000  0.05563
       6     H     0.47071  0.47071  0.00000  0.05857
       7     H     0.45633  0.45633  0.00000  0.08735
       8     O     4.16341  4.16341  0.00000 -0.32682
       9     H     0.47749  0.47749  0.00000  0.04501
      10     H     0.46847  0.46847  0.00000  0.06305
      11     C     3.03164  3.03164  0.00000 -0.06328
      12     H     0.44575  0.44575  0.00000  0.10850
      13     H     0.47396  0.47396  0.00000  0.05209
      14     H     0.47286  0.47286  0.00000  0.05428

   Total alpha = 21.00000, Total beta = 21.00000, Total charge = -0.00000
