  ==> Input File <==

--------------------------------------------------------------------------
set {
	reference rhf
	basis 6-31G*
}

set_num_threads( 4 )
memory 2 gb

molecule MOL {
0 1

H	 0.020137	 3.902321	 -1.534554
O	 -0.422647	 3.134067	 -1.866391
C	 -0.287455	 2.079460	 -0.951780
C	 1.113674	 1.495298	 -0.987275
H	 -0.527228	 2.393016	 0.060421
H	 -1.002001	 1.320982	 -1.239156
O	 1.171513	 0.459272	 -0.058250
H	 1.847529	 2.267158	 -0.747131
H	 1.334608	 1.136606	 -1.990825
C	 2.397842	 -0.198080	 -0.002151
H	 2.508049	 -0.905315	 -0.822092
H	 3.173794	 0.550865	 -0.078850
H	 2.517602	 -0.735921	 0.936026

	symmetry c1
}
set optking {
	frozen_dihedral = ("
		4 7 10 13
	")
}

ee = optimize('scf')
oeprop('DIPOLE', 'QUADRUPOLE', 'MULLIKEN_CHARGES')
f=open( 'psi4out.xyz', 'w' )
f.write( "13  " )
f.write( str(ee) + "\n" )
f.write( MOL.save_string_xyz() )
f.close()
--------------------------------------------------------------------------

    Molecular point group: c1
  Charge       = 0
  Multiplicity = 1
  Basis Set: 6-31G*
  Basis Set:
  @DF-RHF Final Energy:  -267.94856742637722
    Total Energy =                       -267.9485674263771671
    Molecular point group: c1
  Basis Set: 6-31G*
  Basis Set:
  Basis Set: 6-31G*
  Basis Set:
  @DF-RHF Final Energy:  -267.94942645124979
    Total Energy =                       -267.9494264512499058
  Basis Set: 6-31G*
  Basis Set:
  Basis Set: 6-31G*
  Basis Set:
  @DF-RHF Final Energy:  -267.94967189386307
    Total Energy =                       -267.9496718938628419
  Basis Set: 6-31G*
  Basis Set:
  Charge       = 0
  Multiplicity = 1
  Basis Set: 6-31G*
  Basis Set:

    Orbital Energies (a.u.)
    -----------------------

    Doubly Occupied:

       1A    -20.561501     2A    -20.560059     3A    -11.270991
       4A    -11.270167     5A    -11.268840     6A     -1.387752
       7A     -1.364995     8A     -1.018484     9A     -0.913409
      10A     -0.841907    11A     -0.709198    12A     -0.673766
      13A     -0.660041    14A     -0.636585    15A     -0.597125
      16A     -0.567335    17A     -0.547803    18A     -0.488179
      19A     -0.482385    20A     -0.438344    21A     -0.421006

  @DF-RHF Final Energy:  -267.94967301128725

   => Energetics <=

    Nuclear Repulsion Energy =            190.1736892070401552
    One-Electron Energy =                -742.8869783859290692
    Two-Electron Energy =                 284.7636161676015263
    DFT Exchange-Correlation Energy =       0.0000000000000000
    Empirical Dispersion Energy =           0.0000000000000000
    PCM Polarization Energy =               0.0000000000000000
    EFP Energy =                            0.0000000000000000
    Total Energy =                       -267.9496730112873593
    Molecular point group: c1
  Basis Set: 6-31G*
  Basis Set:

  -Total Gradient:
     Atom            X                  Y                   Z
    ------   -----------------  -----------------  -----------------
       1        0.000007154293     0.000010954482    -0.000004054753
       2        0.000084171954    -0.000067688008     0.000056017799
       3       -0.000078825437    -0.000083074344     0.000062758845
       4        0.000811208951     0.001359633871     0.001383163897
       5       -0.000014109232     0.000019861668     0.000002307858
       6       -0.000011284769    -0.000006792850     0.000004905459
       7       -0.000701558276    -0.001452747361    -0.001831004115
       8        0.000015097788    -0.000019812046     0.000025118293
       9        0.000005931150    -0.000013440392     0.000005241541
      10       -0.001043658368    -0.001962485147    -0.000748972030
      11       -0.000067418791     0.000033901068    -0.000003557366
      12       -0.000006755626     0.000046004040    -0.000014097311
      13        0.001000046364     0.002135685021     0.001062171880

  **** Optimization is complete! (in 4 steps) ****
    Final optimized geometry and variables:
    Molecular point group: c1

    Geometry (in Angstrom), charge = 0, multiplicity = 1:

    H           -0.792168515570     2.482406285496    -0.740040529872
    O           -1.231557258258     1.713465461734    -1.074780916687
    C           -1.087794090616     0.654438860933    -0.166455665746
    C            0.316210333392     0.077890294099    -0.210147800545
    H           -1.324490755496     0.961602304980     0.848406967419
    H           -1.800004238429    -0.105888112877    -0.454630076012
    O            0.383213187896    -0.957372207568     0.719786500568
    H            1.047510609835     0.851955106265     0.028498825587
    H            0.532556635241    -0.277122477211    -1.216052081499
    C            1.609984018376    -1.616958554054     0.775818278585
    H            1.710172615051    -2.337954032829    -0.031632120187
    H            2.439650634122    -0.915387497678     0.717846079346
    H            1.667920762124    -2.126229500395     1.728239554148

  Mulliken Charges: (a.u.)
   Center  Symbol    Alpha    Beta     Spin     Total
       1     H     0.28128  0.28128  0.00000  0.43744
       2     O     4.37089  4.37089  0.00000 -0.74178
       3     C     3.00479  3.00479  0.00000 -0.00957
       4     C     2.99661  2.99661  0.00000  0.00678
       5     H     0.42229  0.42229  0.00000  0.15542
       6     H     0.40842  0.40842  0.00000  0.18316
       7     O     4.30863  4.30863  0.00000 -0.61726
       8     H     0.43701  0.43701  0.00000  0.12597
       9     H     0.42361  0.42361  0.00000  0.15277
      10     C     3.07885  3.07885  0.00000 -0.15771
      11     H     0.42517  0.42517  0.00000  0.14966
      12     H     0.43033  0.43033  0.00000  0.13934
      13     H     0.41211  0.41211  0.00000  0.17578

   Total alpha = 21.00000, Total beta = 21.00000, Total charge =  0.00000
