  ==> Input File <==

--------------------------------------------------------------------------
set {
	reference rhf
	basis 6-31G*
}

set_num_threads( 1 )
memory 2 gb

molecule MOL {
0 1

O	 2.862325	 1.357334	 0.000267
C	 2.843464	 0.164689	 -0.000222
C	 1.546494	 -0.624492	 -0.000609
C	 4.124123	 -0.644674	 -0.000428
C	 0.291004	 0.242674	 0.000989
H	 1.557904	 -1.283758	 -0.867573
H	 1.558622	 -1.285963	 0.864672
C	 -0.841683	 -0.364083	 -0.828847
H	 0.539330	 1.228837	 -0.378413
H	 -0.038828	 0.389246	 1.024647
C	 -2.105450	 0.497648	 -0.835591
H	 -0.502997	 -0.511597	 -1.853336
H	 -1.084562	 -1.353520	 -0.444021
C	 -3.243013	 -0.102533	 -1.663690
H	 -1.863985	 1.486767	 -1.220764
H	 -2.445422	 0.645053	 0.187975
C	 -4.501847	 0.764080	 -1.665768
H	 -2.904746	 -0.249234	 -2.687348
H	 -3.486306	 -1.090675	 -1.278667
H	 -4.299059	 1.748873	 -2.077120
H	 -5.289593	 0.312879	 -2.261229
H	 -4.885423	 0.900523	 -0.658595
H	 4.165367	 -1.288615	 -0.874074
H	 4.976217	 0.020734	 -0.001915
H	 4.166763	 -1.286207	 0.874930

	symmetry c1
}
set optking {
	frozen_dihedral = ("
		9 5 8 12,
		15 11 8 12,
		15 11 14 18,
		1 2 3 6
	")
}

ee = energy('scf')
oeprop('DIPOLE', 'QUADRUPOLE', 'MULLIKEN_CHARGES')
f=open( 'psi4out.xyz', 'w' )
f.write( "25  " )
f.write( str(ee) + "\n" )
f.write( MOL.save_string_xyz() )
f.close()
--------------------------------------------------------------------------

    Molecular point group: c1

    Geometry (in Angstrom), charge = 0, multiplicity = 1:

       Center              X                  Y                   Z               Mass
    ------------   -----------------  -----------------  -----------------  -----------------
           O          2.759093299491     1.206843641578     0.559646145186    15.994914619560
           C          2.740232299491     0.014198641578     0.559157145186    12.000000000000
           C          1.443262299491    -0.774982358422     0.558770145186    12.000000000000
           C          4.020891299491    -0.795164358422     0.558951145186    12.000000000000
           C          0.187772299491     0.092183641578     0.560368145186    12.000000000000
           H          1.454672299491    -1.434248358422    -0.308193854814     1.007825032070
           H          1.455390299491    -1.436453358422     1.424051145186     1.007825032070
           C         -0.944914700509    -0.514573358422    -0.269467854814    12.000000000000
           H          0.436098299491     1.078346641578     0.180966145186     1.007825032070
           H         -0.142059700509     0.238755641578     1.584026145186     1.007825032070
           C         -2.208681700509     0.347157641578    -0.276211854814    12.000000000000
           H         -0.606228700509    -0.662087358422    -1.293956854814     1.007825032070
           H         -1.187793700509    -1.504010358422     0.115358145186     1.007825032070
           C         -3.346244700509    -0.253023358422    -1.104310854814    12.000000000000
           H         -1.967216700509     1.336276641578    -0.661384854814     1.007825032070
           H         -2.548653700509     0.494562641578     0.747354145186     1.007825032070
           C         -4.605078700509     0.613589641578    -1.106388854814    12.000000000000
           H         -3.007977700509    -0.399724358422    -2.127968854814     1.007825032070
           H         -3.589537700509    -1.241165358422    -0.719287854814     1.007825032070
           H         -4.402290700509     1.598382641578    -1.517740854814     1.007825032070
           H         -5.392824700509     0.162388641578    -1.701849854814     1.007825032070
           H         -4.988654700509     0.750032641578    -0.099215854814     1.007825032070
           H          4.062135299491    -1.439105358422    -0.314694854814     1.007825032070
           H          4.872985299491    -0.129756358422     0.557464145186     1.007825032070
           H          4.063531299491    -1.436697358422     1.434309145186     1.007825032070

  Charge       = 0
  Multiplicity = 1
  Basis Set: 6-31G*
  Basis Set:

    Orbital Energies (a.u.)
    -----------------------

    Doubly Occupied:

       1A    -20.551055     2A    -11.326901     3A    -11.230883
       4A    -11.228820     5A    -11.216000     6A    -11.214611
       7A    -11.213567     8A    -11.212421     9A    -11.207713
      10A     -1.396707    11A     -1.092691    12A     -1.055760
      13A     -1.014419    14A     -0.968776    15A     -0.889927
      16A     -0.814008    17A     -0.790306    18A     -0.729904
      19A     -0.665240    20A     -0.647548    21A     -0.631960
      22A     -0.623799    23A     -0.594964    24A     -0.583493
      25A     -0.570191    26A     -0.559049    27A     -0.536944
      28A     -0.525564    29A     -0.513110    30A     -0.493422
      31A     -0.484049    32A     -0.471238    33A     -0.463578
      34A     -0.460276    35A     -0.447541    36A     -0.400939

  @DF-RHF Final Energy:  -387.13324584303268

   => Energetics <=

    Nuclear Repulsion Energy =            439.6229135445842076
    One-Electron Energy =               -1395.8572188725886463
    Two-Electron Energy =                 569.1010594849731206
    DFT Exchange-Correlation Energy =       0.0000000000000000
    Empirical Dispersion Energy =           0.0000000000000000
    PCM Polarization Energy =               0.0000000000000000
    EFP Energy =                            0.0000000000000000
    Total Energy =                       -387.1332458430313181

  Mulliken Charges: (a.u.)
   Center  Symbol    Alpha    Beta     Spin     Total
       1     O     4.26018  4.26018  0.00000 -0.52036
       2     C     2.73817  2.73817  0.00000  0.52367
       3     C     3.21332  3.21332  0.00000 -0.42664
       4     C     3.28681  3.28681  0.00000 -0.57361
       5     C     3.15426  3.15426  0.00000 -0.30853
       6     H     0.40845  0.40845  0.00000  0.18309
       7     H     0.40770  0.40770  0.00000  0.18461
       8     C     3.15562  3.15562  0.00000 -0.31125
       9     H     0.39736  0.39736  0.00000  0.20527
      10     H     0.41874  0.41874  0.00000  0.16252
      11     C     3.15123  3.15123  0.00000 -0.30246
      12     H     0.42375  0.42375  0.00000  0.15251
      13     H     0.42544  0.42544  0.00000  0.14911
      14     C     3.15145  3.15145  0.00000 -0.30290
      15     H     0.42142  0.42142  0.00000  0.15716
      16     H     0.42358  0.42358  0.00000  0.15285
      17     C     3.23929  3.23929  0.00000 -0.47857
      18     H     0.42336  0.42336  0.00000  0.15329
      19     H     0.42383  0.42383  0.00000  0.15234
      20     H     0.42114  0.42114  0.00000  0.15771
      21     H     0.41966  0.41966  0.00000  0.16068
      22     H     0.42176  0.42176  0.00000  0.15648
      23     H     0.40859  0.40859  0.00000  0.18283
      24     H     0.39640  0.39640  0.00000  0.20721
      25     H     0.40850  0.40850  0.00000  0.18300

   Total alpha = 36.00000, Total beta = 36.00000, Total charge = -0.00000
