  ==> Input File <==

--------------------------------------------------------------------------
set {
	reference rhf
	basis cc-pvtz
}

set_num_threads( 4 )
memory 2 gb

molecule MOL {
0 1

H	 -3.079423	 1.830359	 0.977455
C	 -2.744196	 0.813625	 0.963923
C	 -1.651011	 0.503718	 0.311045
H	 -3.314524	 0.073122	 1.489451
O	 -1.189946	 -0.765863	 0.237511
H	 -1.067241	 1.239150	 -0.211909
C	 0.026572	 -0.995256	 -0.379403
C	 1.057223	 0.049888	 -0.004615
H	 -0.054361	 -1.010670	 -1.459674
H	 0.397526	 -1.952058	 -0.044198
F	 2.203233	 -0.234060	 -0.590375
F	 0.698147	 1.254887	 -0.392621
F	 1.266440	 0.094219	 1.288722

	symmetry c1
}
set optking {
	frozen_dihedral = ("
		3 5 7 9
	")
}

ee = optimize('scf')
oeprop('DIPOLE', 'QUADRUPOLE', 'MULLIKEN_CHARGES')
f=open( 'psi4out.xyz', 'w' )
f.write( "13  " )
f.write( str(ee) + "\n" )
f.write( MOL.save_string_xyz() )
f.close()
--------------------------------------------------------------------------

    Molecular point group: c1
  Charge       = 0
  Multiplicity = 1
  Basis Set: CC-PVTZ
  Basis Set:
  @DF-RHF Final Energy:  -527.72451696620703
    Total Energy =                       -527.7245169662071476
    Molecular point group: c1
  Basis Set: CC-PVTZ
  Basis Set:
  Basis Set: CC-PVTZ
  Basis Set:
  @DF-RHF Final Energy:  -527.73373790505741
    Total Energy =                       -527.7337379050576374
  Basis Set: CC-PVTZ
  Basis Set:
  Basis Set: CC-PVTZ
  Basis Set:
  @DF-RHF Final Energy:  -527.73600524777567
    Total Energy =                       -527.7360052477754380
  Basis Set: CC-PVTZ
  Basis Set:
  Basis Set: CC-PVTZ
  Basis Set:
  @DF-RHF Final Energy:  -527.73645481086896
    Total Energy =                       -527.7364548108688496
  Basis Set: CC-PVTZ
  Basis Set:
  Basis Set: CC-PVTZ
  Basis Set:
  @DF-RHF Final Energy:  -527.73659575534725
    Total Energy =                       -527.7365957553472526
  Basis Set: CC-PVTZ
  Basis Set:
  Basis Set: CC-PVTZ
  Basis Set:
  @DF-RHF Final Energy:  -527.73662934561912
    Total Energy =                       -527.7366293456190078
  Basis Set: CC-PVTZ
  Basis Set:
  Basis Set: CC-PVTZ
  Basis Set:
  @DF-RHF Final Energy:  -527.73663694839092
    Total Energy =                       -527.7366369483909239
  Basis Set: CC-PVTZ
  Basis Set:
  Charge       = 0
  Multiplicity = 1
  Basis Set: CC-PVTZ
  Basis Set:

    Orbital Energies (a.u.)
    -----------------------

    Doubly Occupied:

       1A    -26.343519     2A    -26.343413     3A    -26.341257
       4A    -20.599480     5A    -11.502645     6A    -11.318683
       7A    -11.294220     8A    -11.214861     9A     -1.753565
      10A     -1.649036    11A     -1.648736    12A     -1.437425
      13A     -1.085572    14A     -1.022724    15A     -0.934476
      16A     -0.844994    17A     -0.841923    18A     -0.838034
      19A     -0.780416    20A     -0.727755    21A     -0.721353
      22A     -0.700975    23A     -0.683109    24A     -0.669739
      25A     -0.663077    26A     -0.653599    27A     -0.645445
      28A     -0.594800    29A     -0.564393    30A     -0.528034
      31A     -0.497772    32A     -0.359832

  @DF-RHF Final Energy:  -527.73663764320384

   => Energetics <=

    Nuclear Repulsion Energy =            417.4686649099395481
    One-Electron Energy =               -1558.8008665698946515
    Two-Electron Energy =                 613.5955640167513820
    DFT Exchange-Correlation Energy =       0.0000000000000000
    Empirical Dispersion Energy =           0.0000000000000000
    PCM Polarization Energy =               0.0000000000000000
    EFP Energy =                            0.0000000000000000
    Total Energy =                       -527.7366376432036077
    Molecular point group: c1
  Basis Set: CC-PVTZ
  Basis Set:

  -Total Gradient:
     Atom            X                  Y                   Z
    ------   -----------------  -----------------  -----------------
       1        0.000000015728     0.000009013119    -0.000001967863
       2       -0.000007180224    -0.000043258638     0.000010651680
       3        0.001905108274     0.000669342990     0.004663780344
       4       -0.000000353932     0.000010118097     0.000002557374
       5       -0.003168692576    -0.002637687557    -0.007028654177
       6       -0.000008432526    -0.000008626922     0.000000426228
       7        0.002010354465     0.007928787424     0.002364987022
       8       -0.000031181816     0.000089135268    -0.000017867069
       9       -0.000800716040    -0.005898561384    -0.000027065274
      10        0.000007925291    -0.000002473582     0.000001999343
      11        0.000072973861    -0.000052752757    -0.000023417036
      12       -0.000018475268    -0.000055061623     0.000032138401
      13        0.000038654762    -0.000007974435     0.000022431029

  **** Optimization is complete! (in 8 steps) ****
    Final optimized geometry and variables:
    Molecular point group: c1

    Geometry (in Angstrom), charge = 0, multiplicity = 1:

    H           -3.263883884932     1.688046409725     0.857011898897
    C           -2.809188943522     0.718419993416     0.865671011382
    C           -1.920833278440     0.411764041628    -0.046929340676
    H           -3.101357622798     0.016513289067     1.621982986007
    O           -1.371855020957    -0.826256113661    -0.119223286772
    H           -1.617542688226     1.104140133535    -0.809608095213
    C           -0.095358121992    -1.003782455080    -0.631752602831
    C            0.978259215025    -0.060622335338    -0.123033181401
    H           -0.089527341153    -0.999360590543    -1.716439069155
    H            0.213624496892    -1.990512611627    -0.319998179858
    F            2.149426401853    -0.502739003387    -0.534156695657
    F            0.849386309499     1.170512303733    -0.572700612698
    F            1.003015131740    -0.004078780075     1.186307053581

  Mulliken Charges: (a.u.)
   Center  Symbol    Alpha    Beta     Spin     Total
       1     H     0.42535  0.42535  0.00000  0.14931
       2     C     3.18854  3.18854  0.00000 -0.37708
       3     C     2.96934  2.96934  0.00000  0.06132
       4     H     0.42423  0.42423  0.00000  0.15155
       5     O     4.14708  4.14708  0.00000 -0.29416
       6     H     0.42842  0.42842  0.00000  0.14315
       7     C     3.01516  3.01516  0.00000 -0.03033
       8     C     2.68255  2.68255  0.00000  0.63489
       9     H     0.45111  0.45111  0.00000  0.09777
      10     H     0.44025  0.44025  0.00000  0.11949
      11     F     4.60931  4.60931  0.00000 -0.21863
      12     F     4.61217  4.61217  0.00000 -0.22434
      13     F     4.60648  4.60648  0.00000 -0.21296

   Total alpha = 32.00000, Total beta = 32.00000, Total charge = -0.00000
