  ==> Input File <==

--------------------------------------------------------------------------
set {
	reference rhf
	basis 6-31G*
}

set_num_threads( 1 )
memory 2 gb

molecule MOL {
0 1

H	 2.288329	 -1.829100	 0.533243
O	 2.826016	 -1.159218	 0.122261
C	 2.077727	 -0.067559	 -0.035091
C	 0.624473	 -0.343591	 0.253101
O	 2.542965	 0.974826	 -0.363729
C	 -0.265902	 0.883932	 0.072916
H	 0.324016	 -1.163849	 -0.390541
H	 0.565024	 -0.726111	 1.268924
C	 -1.728698	 0.646073	 0.462102
H	 -0.209144	 1.219470	 -0.958188
H	 0.135059	 1.692851	 0.673903
C	 -2.482460	 -0.343073	 -0.431425
H	 -2.245265	 1.602650	 0.432430
H	 -1.779332	 0.308348	 1.496285
C	 -3.960546	 -0.461025	 -0.060175
H	 -2.395034	 -0.026811	 -1.468912
H	 -2.024850	 -1.327147	 -0.371646
H	 -4.472726	 -1.168004	 -0.705284
H	 -4.465146	 0.496508	 -0.151489
H	 -4.081218	 -0.800940	 0.964585

	symmetry c1
}
set optking {
	frozen_dihedral = ("
		16 12 9 6,
		7 4 6 10,
		12 9 6 10,
		5 3 4 7
	")
}

ee = energy('scf')
oeprop('DIPOLE', 'QUADRUPOLE', 'MULLIKEN_CHARGES')
f=open( 'psi4out.xyz', 'w' )
f.write( "20  " )
f.write( str(ee) + "\n" )
f.write( MOL.save_string_xyz() )
f.close()
--------------------------------------------------------------------------

    Molecular point group: c1

    Geometry (in Angstrom), charge = 0, multiplicity = 1:

       Center              X                  Y                   Z               Mass
    ------------   -----------------  -----------------  -----------------  -----------------
           H          2.300840970026    -1.821279256636     0.528000741659     1.007825032070
           O          2.838527970026    -1.151397256636     0.117018741659    15.994914619560
           C          2.090238970026    -0.059738256636    -0.040333258341    12.000000000000
           C          0.636984970026    -0.335770256636     0.247858741659    12.000000000000
           O          2.555476970026     0.982646743364    -0.368971258341    15.994914619560
           C         -0.253390029974     0.891752743364     0.067673741659    12.000000000000
           H          0.336527970026    -1.156028256636    -0.395783258341     1.007825032070
           H          0.577535970026    -0.718290256636     1.263681741659     1.007825032070
           C         -1.716186029974     0.653893743364     0.456859741659    12.000000000000
           H         -0.196632029974     1.227290743364    -0.963430258341     1.007825032070
           H          0.147570970026     1.700671743364     0.668660741659     1.007825032070
           C         -2.469948029974    -0.335252256636    -0.436667258341    12.000000000000
           H         -2.232753029974     1.610470743364     0.427187741659     1.007825032070
           H         -1.766820029974     0.316168743364     1.491042741659     1.007825032070
           C         -3.948034029974    -0.453204256636    -0.065417258341    12.000000000000
           H         -2.382522029974    -0.018990256636    -1.474154258341     1.007825032070
           H         -2.012338029974    -1.319326256636    -0.376888258341     1.007825032070
           H         -4.460214029974    -1.160183256636    -0.710526258341     1.007825032070
           H         -4.452634029974     0.504328743364    -0.156731258341     1.007825032070
           H         -4.068706029974    -0.793119256636     0.959342741659     1.007825032070

  Charge       = 0
  Multiplicity = 1
  Basis Set: 6-31G*
  Basis Set:

    Orbital Energies (a.u.)
    -----------------------

    Doubly Occupied:

       1A    -20.615018     2A    -20.548959     3A    -11.380921
       4A    -11.252432     5A    -11.230046     6A    -11.226597
       7A    -11.225996     8A    -11.217228     9A     -1.470794
      10A     -1.370371    11A     -1.103145    12A     -1.046502
      13A     -0.963205    14A     -0.866645    15A     -0.829253
      16A     -0.795341    17A     -0.721616    18A     -0.672138
      19A     -0.661298    20A     -0.637560    21A     -0.613028
      22A     -0.602326    23A     -0.572731    24A     -0.566393
      25A     -0.548048    26A     -0.517997    27A     -0.502939
      28A     -0.477553    29A     -0.474749    30A     -0.473292
      31A     -0.463547    32A     -0.439808

  @DF-RHF Final Energy:  -383.93577582624209

   => Energetics <=

    Nuclear Repulsion Energy =            376.6280041208541434
    One-Electron Energy =               -1268.9525683781139378
    Two-Electron Energy =                 508.3887884310182699
    DFT Exchange-Correlation Energy =       0.0000000000000000
    Empirical Dispersion Energy =           0.0000000000000000
    PCM Polarization Energy =               0.0000000000000000
    EFP Energy =                            0.0000000000000000
    Total Energy =                       -383.9357758262415246

  Mulliken Charges: (a.u.)
   Center  Symbol    Alpha    Beta     Spin     Total
       1     H     0.26744  0.26744  0.00000  0.46513
       2     O     4.34930  4.34930  0.00000 -0.69861
       3     C     2.60053  2.60053  0.00000  0.79894
       4     C     3.24645  3.24645  0.00000 -0.49290
       5     O     4.26890  4.26890  0.00000 -0.53781
       6     C     3.15292  3.15292  0.00000 -0.30584
       7     H     0.39938  0.39938  0.00000  0.20123
       8     H     0.40655  0.40655  0.00000  0.18690
       9     C     3.15641  3.15641  0.00000 -0.31282
      10     H     0.40866  0.40866  0.00000  0.18267
      11     H     0.40474  0.40474  0.00000  0.19053
      12     C     3.15462  3.15462  0.00000 -0.30924
      13     H     0.41615  0.41615  0.00000  0.16770
      14     H     0.42428  0.42428  0.00000  0.15143
      15     C     3.23932  3.23932  0.00000 -0.47865
      16     H     0.42005  0.42005  0.00000  0.15990
      17     H     0.42565  0.42565  0.00000  0.14870
      18     H     0.41770  0.41770  0.00000  0.16459
      19     H     0.41950  0.41950  0.00000  0.16099
      20     H     0.42143  0.42143  0.00000  0.15715

   Total alpha = 32.00000, Total beta = 32.00000, Total charge =  0.00000
