                              Psi4 1.0.54 Driver

  ==> Input File <==

--------------------------------------------------------------------------
set {
	reference rhf
	basis cc-pvtz
}

set_num_threads( 4 )
memory 2 gb

molecule MOL {
0 1

H	 3.212971	 0.034114	 0.401242
N	 2.433987	 -0.362316	 -0.080024
C	 1.263552	 0.494993	 0.021953
H	 2.258083	 -1.255801	 0.329949
C	 -0.016533	 -0.325589	 -0.026925
H	 1.280915	 1.180773	 -0.818522
H	 1.263064	 1.106893	 0.925038
C	 -1.280353	 0.525521	 0.047747
H	 -0.016686	 -0.912532	 -0.939714
H	 -0.014099	 -1.037598	 0.796369
C	 -2.560681	 -0.301323	 -0.007747
H	 -1.279957	 1.241025	 -0.770189
H	 -1.270445	 1.110526	 0.963468
H	 -2.617064	 -0.872870	 -0.928010
H	 -3.439525	 0.331102	 0.043462
H	 -2.609427	 -1.002736	 0.818585

	symmetry c1
}
set optking {
	frozen_dihedral = ("
		1 2 3 6
	")
}

ee,wfn = optimize('scf', return_wfn=True)
oeprop( wfn, 'DIPOLE', 'QUADRUPOLE', 'MULLIKEN_CHARGES')
f=open( 'psi4out.xyz', 'w' )
f.write( "16  " )
f.write( str(ee) + "\n" )
f.write( MOL.save_string_xyz() )
f.close()
--------------------------------------------------------------------------

    Molecular point group: c1
  Charge       = 0
  Multiplicity = 1
  Basis Set: CC-PVTZ
  Basis Set:
  @DF-RHF Final Energy:  -212.39812500826440
    Total Energy =                       -212.3981250082645147
    Molecular point group: c1
  Basis Set: CC-PVTZ
  Basis Set:
  Basis Set: CC-PVTZ
  Basis Set:
  @DF-RHF Final Energy:  -212.39818805929153
    Total Energy =                       -212.3981880592915559
  Basis Set: CC-PVTZ
  Basis Set:
  Basis Set: CC-PVTZ
  Basis Set:
  @DF-RHF Final Energy:  -212.39832538029103
    Total Energy =                       -212.3983253802908848
  Basis Set: CC-PVTZ
  Basis Set:
  Basis Set: CC-PVTZ
  Basis Set:
  @DF-RHF Final Energy:  -212.39832920461930
    Total Energy =                       -212.3983292046191309
  Basis Set: CC-PVTZ
  Basis Set:
  Charge       = 0
  Multiplicity = 1
  Basis Set: CC-PVTZ
  Basis Set:

    Orbital Energies (a.u.)
    -----------------------

    Doubly Occupied:

       1A    -15.525790     2A    -11.237807     3A    -11.215194
       4A    -11.212459     5A    -11.207725     6A     -1.177726
       7A     -1.062874     8A     -0.960968     9A     -0.845875
      10A     -0.796431    11A     -0.653161    12A     -0.650178
      13A     -0.601577    14A     -0.577856    15A     -0.572145
      16A     -0.521121    17A     -0.508950    18A     -0.472085
      19A     -0.468478    20A     -0.461422    21A     -0.384727

  @DF-RHF Final Energy:  -212.39832948666248

   => Energetics <=

    Nuclear Repulsion Energy =            186.6943387070388667
    One-Electron Energy =                -655.9562452429222503
    Two-Electron Energy =                 256.8635770492209645
    DFT Exchange-Correlation Energy =       0.0000000000000000
    Empirical Dispersion Energy =           0.0000000000000000
    PCM Polarization Energy =               0.0000000000000000
    EFP Energy =                            0.0000000000000000
    Total Energy =                       -212.3983294866624192
    Molecular point group: c1
  Basis Set: CC-PVTZ
  Basis Set:

  -Total Gradient:
     Atom            X                  Y                   Z
    ------   -----------------  -----------------  -----------------
       1       -0.000862155036    -0.001759119647     0.002608300269
       2        0.000694814749     0.001792974944    -0.003688343547
       3        0.001576552962     0.001929128974     0.002849181171
       4       -0.000008269610    -0.000024451487    -0.000002481364
       5        0.000016410787    -0.000020897948     0.000015936692
       6       -0.001389873051    -0.001910598346    -0.001770179698
       7       -0.000014124579     0.000000914710    -0.000015149907
       8        0.000006375326     0.000016191172     0.000007414845
       9       -0.000002635018    -0.000002859266     0.000004530819
      10       -0.000008282447    -0.000016649474     0.000000231946
      11       -0.000005937339    -0.000010945788    -0.000002589350
      12        0.000004453218     0.000006521180     0.000002617995
      13       -0.000004644346     0.000001849071    -0.000004183857
      14       -0.000005034093    -0.000000664653     0.000001274123
      15        0.000004553003    -0.000002181327    -0.000003318646
      16       -0.000002204529     0.000000787883    -0.000003241493

  **** Optimization is complete! (in 5 steps) ****
    Final optimized geometry and variables:
    Molecular point group: c1

    Geometry (in Angstrom), charge = 0, multiplicity = 1:

    H            3.205389361895     0.183860637674     0.520950436061
    N            2.459070474495    -0.223315293779    -0.001526287499
    C            1.235730230771     0.561260963391     0.128117114132
    H            2.325203166633    -1.137333530834     0.378535192621
    C            0.003880517597    -0.320221584690    -0.024791699109
    H            1.218598121510     1.303950545493    -0.663070265126
    H            1.179294747127     1.092316435721     1.076570496427
    C           -1.304406220031     0.463850767276    -0.005211499618
    H            0.085481413944    -0.872391391452    -0.956901761769
    H           -0.008428590038    -1.059407070162     0.774114231099
    C           -2.534787400653    -0.425102980926    -0.152999699614
    H           -1.293987677597     1.198585285527    -0.805202094036
    H           -1.375729188542     1.024451787139     0.922868821392
    H           -2.510057715924    -0.974264547892    -1.088210585619
    H           -3.446404783815     0.160989290561    -0.137651760347
    H           -2.593757452613    -1.149314371893     0.652719692175

  Mulliken Charges: (a.u.)
   Center  Symbol    Alpha    Beta     Spin     Total
       1     H     0.43209  0.43209  0.00000  0.13582
       2     N     3.68668  3.68668  0.00000 -0.37335
       3     C     3.01848  3.01848  0.00000 -0.03696
       4     H     0.43267  0.43267  0.00000  0.13466
       5     C     3.08585  3.08585  0.00000 -0.17170
       6     H     0.46150  0.46150  0.00000  0.07699
       7     H     0.46790  0.46790  0.00000  0.06421
       8     C     3.08849  3.08849  0.00000 -0.17697
       9     H     0.44926  0.44926  0.00000  0.10148
      10     H     0.46094  0.46094  0.00000  0.07811
      11     C     3.14908  3.14908  0.00000 -0.29817
      12     H     0.45326  0.45326  0.00000  0.09349
      13     H     0.45564  0.45564  0.00000  0.08871
      14     H     0.45425  0.45425  0.00000  0.09150
      15     H     0.44843  0.44843  0.00000  0.10314
      16     H     0.45548  0.45548  0.00000  0.08904

   Total alpha = 21.00000, Total beta = 21.00000, Total charge = -0.00000

*** Psi4 exiting successfully. Buy a developer a beer!
