  ==> Input File <==

--------------------------------------------------------------------------
set {
	reference rhf
	basis 6-31G*
}

set_num_threads( 1 )
memory 2 gb

molecule MOL {
0 1

O	 -2.924347	 1.101589	 0.635819
C	 -2.668563	 0.129746	 -0.000350
C	 -3.657111	 -0.572066	 -0.895616
O	 -1.481751	 -0.454642	 0.000584
H	 -4.012745	 0.130744	 -1.639554
H	 -3.220614	 -1.432028	 -1.381799
H	 -4.509075	 -0.878339	 -0.300440
C	 -0.334255	 0.388708	 0.000906
C	 0.891947	 -0.504646	 0.000751
H	 -0.365390	 1.025305	 -0.873475
H	 -0.365484	 1.024911	 0.875569
C	 2.191998	 0.301789	 0.000897
H	 0.855148	 -1.151283	 -0.871571
H	 0.855132	 -1.151660	 0.872805
C	 3.441114	 -0.581407	 0.000108
H	 2.215074	 0.954890	 -0.869742
H	 2.215465	 0.953923	 0.872248
C	 4.739576	 0.224112	 -0.001102
H	 3.419457	 -1.233487	 -0.870178
H	 3.420834	 -1.233096	 0.870717
H	 4.804918	 0.861552	 -0.878265
H	 5.606527	 -0.429058	 -0.001824
H	 4.806469	 0.861674	 0.875853

	symmetry c1
}
set optking {
	frozen_dihedral = ("
		13 9 8 10,
		2 4 8 10,
		16 12 9 13,
		19 15 12 16
	")
}

ee = energy('scf')
oeprop('DIPOLE', 'QUADRUPOLE', 'MULLIKEN_CHARGES')
f=open( 'psi4out.xyz', 'w' )
f.write( "23  " )
f.write( str(ee) + "\n" )
f.write( MOL.save_string_xyz() )
f.close()
--------------------------------------------------------------------------

    Molecular point group: c1

    Geometry (in Angstrom), charge = 0, multiplicity = 1:

       Center              X                  Y                   Z               Mass
    ------------   -----------------  -----------------  -----------------  -----------------
           O         -2.929190073949     1.091800550949     0.665790647639    15.994914619560
           C         -2.673406073949     0.119957550949     0.029621647639    12.000000000000
           C         -3.661954073949    -0.581854449051    -0.865644352361    12.000000000000
           O         -1.486594073949    -0.464430449051     0.030555647639    15.994914619560
           H         -4.017588073949     0.120955550949    -1.609582352361     1.007825032070
           H         -3.225457073949    -1.441816449051    -1.351827352361     1.007825032070
           H         -4.513918073949    -0.888127449051    -0.270468352361     1.007825032070
           C         -0.339098073949     0.378919550949     0.030877647639    12.000000000000
           C          0.887103926051    -0.514434449051     0.030722647639    12.000000000000
           H         -0.370233073949     1.015516550949    -0.843503352361     1.007825032070
           H         -0.370327073949     1.015122550949     0.905540647639     1.007825032070
           C          2.187154926051     0.292000550949     0.030868647639    12.000000000000
           H          0.850304926051    -1.161071449051    -0.841599352361     1.007825032070
           H          0.850288926051    -1.161448449051     0.902776647639     1.007825032070
           C          3.436270926051    -0.591195449051     0.030079647639    12.000000000000
           H          2.210230926051     0.945101550949    -0.839770352361     1.007825032070
           H          2.210621926051     0.944134550949     0.902219647639     1.007825032070
           C          4.734732926051     0.214323550949     0.028869647639    12.000000000000
           H          3.414613926051    -1.243275449051    -0.840206352361     1.007825032070
           H          3.415990926051    -1.242884449051     0.900688647639     1.007825032070
           H          4.800074926051     0.851763550949    -0.848293352361     1.007825032070
           H          5.601683926051    -0.438846449051     0.028147647639     1.007825032070
           H          4.801625926051     0.851885550949     0.905824647639     1.007825032070

  Charge       = 0
  Multiplicity = 1
  Basis Set: 6-31G*
  Basis Set:

    Orbital Energies (a.u.)
    -----------------------

    Doubly Occupied:

       1A    -20.594212     2A    -20.543729     3A    -11.374481
       4A    -11.285543     5A    -11.231837     6A    -11.225569
       7A    -11.224870     8A    -11.222407     9A    -11.213567
      10A     -1.465236    11A     -1.361406    12A     -1.094909
      13A     -1.041209    14A     -1.004076    15A     -0.932622
      16A     -0.842620    17A     -0.803885    18A     -0.774904
      19A     -0.696046    20A     -0.682514    21A     -0.662796
      22A     -0.647619    23A     -0.609864    24A     -0.589220
      25A     -0.583041    26A     -0.570079    27A     -0.556399
      28A     -0.545610    29A     -0.516423    30A     -0.504328
      31A     -0.491917    32A     -0.478645    33A     -0.472175
      34A     -0.468276    35A     -0.448616    36A     -0.432980

  @DF-RHF Final Energy:  -422.97041523278438

   => Energetics <=

    Nuclear Repulsion Energy =            449.4789581085441341
    One-Electron Energy =               -1466.5115184484484416
    Two-Electron Energy =                 594.0621451071197043
    DFT Exchange-Correlation Energy =       0.0000000000000000
    Empirical Dispersion Energy =           0.0000000000000000
    PCM Polarization Energy =               0.0000000000000000
    EFP Energy =                            0.0000000000000000
    Total Energy =                       -422.9704152327846032

  Mulliken Charges: (a.u.)
   Center  Symbol    Alpha    Beta     Spin     Total
       1     O     4.27541  4.27541  0.00000 -0.55082
       2     C     2.61572  2.61572  0.00000  0.76857
       3     C     3.29092  3.29092  0.00000 -0.58185
       4     O     4.31560  4.31560  0.00000 -0.63120
       5     H     0.39784  0.39784  0.00000  0.20433
       6     H     0.40033  0.40033  0.00000  0.19934
       7     H     0.39724  0.39724  0.00000  0.20552
       8     C     2.99729  2.99729  0.00000  0.00543
       9     C     3.16463  3.16463  0.00000 -0.32925
      10     H     0.41870  0.41870  0.00000  0.16259
      11     H     0.40447  0.40447  0.00000  0.19105
      12     C     3.16047  3.16047  0.00000 -0.32093
      13     H     0.41483  0.41483  0.00000  0.17033
      14     H     0.41149  0.41149  0.00000  0.17703
      15     C     3.15152  3.15152  0.00000 -0.30304
      16     H     0.42195  0.42195  0.00000  0.15610
      17     H     0.41989  0.41989  0.00000  0.16022
      18     C     3.23990  3.23990  0.00000 -0.47980
      19     H     0.42154  0.42154  0.00000  0.15693
      20     H     0.42075  0.42075  0.00000  0.15849
      21     H     0.42117  0.42117  0.00000  0.15766
      22     H     0.41780  0.41780  0.00000  0.16440
      23     H     0.42055  0.42055  0.00000  0.15890

   Total alpha = 36.00000, Total beta = 36.00000, Total charge = -0.00000
