                              Psi4 1.0.54 Driver

  ==> Input File <==

--------------------------------------------------------------------------
set {
	reference rhf
	basis cc-pvtz
}

set_num_threads( 4 )
memory 2 gb

molecule MOL {
0 1

H	 2.210855	 -0.465919	 1.357069
C	 1.948180	 -0.217873	 0.320185
C	 0.692262	 0.592428	 0.156232
O	 2.634251	 -0.588423	 -0.568428
C	 -0.554654	 -0.292621	 0.086567
H	 0.791858	 1.203694	 -0.731051
H	 0.617379	 1.254358	 1.016534
C	 -1.846385	 0.513195	 -0.016346
H	 -0.473986	 -0.956115	 -0.769708
H	 -0.597929	 -0.929215	 0.966651
C	 -3.089953	 -0.365049	 -0.098564
H	 -1.798267	 1.154820	 -0.891143
H	 -1.925398	 1.173265	 0.842889
H	 -3.055079	 -1.012299	 -0.968245
H	 -3.988403	 0.236438	 -0.170014
H	 -3.183055	 -0.995885	 0.779079

	symmetry c1
}
set optking {
	frozen_dihedral = ("
		4 2 3 6
	")
}

ee,wfn = optimize('scf', return_wfn=True)
oeprop( wfn, 'DIPOLE', 'QUADRUPOLE', 'MULLIKEN_CHARGES')
f=open( 'psi4out.xyz', 'w' )
f.write( "16  " )
f.write( str(ee) + "\n" )
f.write( MOL.save_string_xyz() )
f.close()
--------------------------------------------------------------------------

    Molecular point group: c1
  Charge       = 0
  Multiplicity = 1
  Basis Set: CC-PVTZ
  Basis Set:
  @DF-RHF Final Energy:  -270.11823434447444
    Total Energy =                       -270.1182343444745015
    Molecular point group: c1
  Basis Set: CC-PVTZ
  Basis Set:
  Basis Set: CC-PVTZ
  Basis Set:
  @DF-RHF Final Energy:  -270.11700850046032
    Total Energy =                       -270.1170085004602583
  Basis Set: CC-PVTZ
  Basis Set:
  Basis Set: CC-PVTZ
  Basis Set:
  @DF-RHF Final Energy:  -270.11834931539869
    Total Energy =                       -270.1183493153985751
  Basis Set: CC-PVTZ
  Basis Set:
  Basis Set: CC-PVTZ
  Basis Set:
  @DF-RHF Final Energy:  -270.11842259745981
    Total Energy =                       -270.1184225974598121
  Basis Set: CC-PVTZ
  Basis Set:
  Charge       = 0
  Multiplicity = 1
  Basis Set: CC-PVTZ
  Basis Set:

    Orbital Energies (a.u.)
    -----------------------

    Doubly Occupied:

       1A    -20.552042     2A    -11.321360     3A    -11.233877
       4A    -11.233281     5A    -11.226261     6A    -11.215509
       7A     -1.407001     8A     -1.096033     9A     -1.018610
      10A     -0.906630    11A     -0.812929    12A     -0.789839
      13A     -0.684356    14A     -0.647364    15A     -0.632564
      16A     -0.604216    17A     -0.578329    18A     -0.554011
      19A     -0.528408    20A     -0.512289    21A     -0.487008
      22A     -0.480132    23A     -0.479007    24A     -0.410846

  @DF-RHF Final Energy:  -270.11842322205052

   => Energetics <=

    Nuclear Repulsion Energy =            230.4622316523450252
    One-Electron Energy =                -822.3375027082690849
    Two-Electron Energy =                 321.7568478338735076
    DFT Exchange-Correlation Energy =       0.0000000000000000
    Empirical Dispersion Energy =           0.0000000000000000
    PCM Polarization Energy =               0.0000000000000000
    EFP Energy =                            0.0000000000000000
    Total Energy =                       -270.1184232220505237
    Molecular point group: c1
  Basis Set: CC-PVTZ
  Basis Set:

  -Total Gradient:
     Atom            X                  Y                   Z
    ------   -----------------  -----------------  -----------------
       1       -0.000064186864     0.000056367567    -0.000067406865
       2        0.001476035218     0.001960057242     0.000210860779
       3       -0.001194976803    -0.001918089038    -0.001031657646
       4       -0.000867606667    -0.001234127257    -0.000014358031
       5        0.000071063079     0.000098824676     0.000084418163
       6        0.000632375725     0.001122711856     0.000779406369
       7        0.000024244051    -0.000012284745     0.000030338542
       8       -0.000046050603    -0.000032915014    -0.000021358309
       9        0.000032751813    -0.000022750670     0.000040528444
      10       -0.000049410010    -0.000026727479     0.000032534391
      11       -0.000011537993     0.000020007839    -0.000026463850
      12        0.000000992411     0.000018104111    -0.000010885008
      13        0.000011810607    -0.000022328933     0.000002342365
      14       -0.000005470660    -0.000010146944    -0.000009361874
      15       -0.000018787412    -0.000000224484    -0.000005361938
      16        0.000008754107     0.000003521272     0.000006424469

  **** Optimization is complete! (in 5 steps) ****
    Final optimized geometry and variables:
    Molecular point group: c1

    Geometry (in Angstrom), charge = 0, multiplicity = 1:

    H            2.256261133500    -0.461750904240     1.359020420238
    C            1.987616665484    -0.168804790591     0.336299808116
    C            0.747036939222     0.673497707285     0.201296405144
    O            2.634260819897    -0.550733395585    -0.577053233143
    C           -0.503239601075    -0.210681293225     0.128178757552
    H            0.840219806330     1.281993769448    -0.689425662574
    H            0.676332208071     1.335933823362     1.059024488757
    C           -1.792544759091     0.598452680715     0.022179848390
    H           -0.414027258845    -0.871405931896    -0.727778799803
    H           -0.550099128866    -0.847877272729     1.008067139660
    C           -3.036932986904    -0.278111055711    -0.067323732401
    H           -1.739033689965     1.241058018334    -0.851695961068
    H           -1.874912010959     1.257128019311     0.882122126189
    H           -2.997911085671    -0.924954408983    -0.937063590495
    H           -3.934218134385     0.324683342075    -0.143254490003
    H           -3.135542797298    -0.909268690210     0.809489869973

  Mulliken Charges: (a.u.)
   Center  Symbol    Alpha    Beta     Spin     Total
       1     H     0.46095  0.46095  0.00000  0.07811
       2     C     2.91312  2.91312  0.00000  0.17376
       3     C     3.07785  3.07785  0.00000 -0.15569
       4     O     4.16709  4.16709  0.00000 -0.33418
       5     C     3.09824  3.09824  0.00000 -0.19648
       6     H     0.44286  0.44286  0.00000  0.11428
       7     H     0.45174  0.45174  0.00000  0.09652
       8     C     3.08501  3.08501  0.00000 -0.17002
       9     H     0.44259  0.44259  0.00000  0.11482
      10     H     0.45219  0.45219  0.00000  0.09563
      11     C     3.14919  3.14919  0.00000 -0.29839
      12     H     0.45115  0.45115  0.00000  0.09771
      13     H     0.45361  0.45361  0.00000  0.09279
      14     H     0.45278  0.45278  0.00000  0.09443
      15     H     0.44701  0.44701  0.00000  0.10598
      16     H     0.45464  0.45464  0.00000  0.09073

   Total alpha = 24.00000, Total beta = 24.00000, Total charge = -0.00000

*** Psi4 exiting successfully. Buy a developer a beer!
