                              Psi4 1.0.54 Driver

  ==> Input File <==

--------------------------------------------------------------------------
set {
	reference rhf
	basis cc-pvtz
}

set_num_threads( 4 )
memory 2 gb

molecule MOL {
0 1

O	 0.623960	 1.347295	 -0.000777
C	 0.485096	 0.171470	 -0.000134
C	 1.606955	 -0.836147	 0.000174
O	 -0.695565	 -0.422352	 0.000602
C	 2.988777	 -0.202475	 -0.000115
H	 1.465099	 -1.474591	 -0.864821
H	 1.465198	 -1.474023	 0.865596
H	 3.131756	 0.419727	 -0.873407
H	 3.750865	 -0.972261	 0.000098
H	 3.131872	 0.420318	 0.872742
C	 -1.852381	 0.402308	 0.000718
C	 -3.063349	 -0.501043	 -0.000437
H	 -1.831743	 1.039496	 -0.872158
H	 -1.832504	 1.038355	 0.874430
H	 -3.071955	 -1.133678	 -0.879113
H	 -3.966313	 0.098030	 -0.000483
H	 -3.072775	 -1.134780	 0.877435

	symmetry c1
}
ee,wfn = energy('scf', return_wfn=True)
oeprop( wfn, 'DIPOLE', 'QUADRUPOLE', 'MULLIKEN_CHARGES')
oeprop( wfn, 'GRID_ESP')
f=open( 'psi4out.xyz', 'w' )
f.write( "17  " )
f.write( str(ee) + "\n" )
f.write( MOL.save_string_xyz() )
f.close()
--------------------------------------------------------------------------

    Molecular point group: c1

    Geometry (in Angstrom), charge = 0, multiplicity = 1:

       Center              X                  Y                   Z               Mass
    ------------   -----------------  -----------------  -----------------  -----------------
           O          0.623971154814     1.347241101647    -0.000776944999    15.994914619560
           C          0.485107154814     0.171416101647    -0.000133944999    12.000000000000
           C          1.606966154814    -0.836200898353     0.000174055001    12.000000000000
           O         -0.695553845186    -0.422405898353     0.000602055001    15.994914619560
           C          2.988788154814    -0.202528898353    -0.000114944999    12.000000000000
           H          1.465110154814    -1.474644898353    -0.864820944999     1.007825032070
           H          1.465209154814    -1.474076898353     0.865596055001     1.007825032070
           H          3.131767154814     0.419673101647    -0.873406944999     1.007825032070
           H          3.750876154814    -0.972314898353     0.000098055001     1.007825032070
           H          3.131883154814     0.420264101647     0.872742055001     1.007825032070
           C         -1.852369845186     0.402254101647     0.000718055001    12.000000000000
           C         -3.063337845186    -0.501096898353    -0.000436944999    12.000000000000
           H         -1.831731845186     1.039442101647    -0.872157944999     1.007825032070
           H         -1.832492845186     1.038301101647     0.874430055001     1.007825032070
           H         -3.071943845186    -1.133731898353    -0.879112944999     1.007825032070
           H         -3.966301845186     0.097976101647    -0.000482944999     1.007825032070
           H         -3.072763845186    -1.134833898353     0.877435055001     1.007825032070

  Charge       = 0
  Multiplicity = 1
  Basis Set: CC-PVTZ
  Basis Set:

    Orbital Energies (a.u.)
    -----------------------

    Doubly Occupied:

       1A    -20.593467     2A    -20.532880     3A    -11.363484
       4A    -11.282589     5A    -11.235871     6A    -11.220322
       7A    -11.213812     8A     -1.470498     9A     -1.364874
      10A     -1.070895    11A     -1.032552    12A     -0.911859
      13A     -0.847629    14A     -0.774850    15A     -0.698062
      16A     -0.692588    17A     -0.667828    18A     -0.630428
      19A     -0.584331    20A     -0.573816    21A     -0.558627
      22A     -0.524729    23A     -0.519953    24A     -0.515178
      25A     -0.505749    26A     -0.493950    27A     -0.456042
      28A     -0.439323

  @DF-RHF Final Energy:  -345.04064469554567

   => Energetics <=

    Nuclear Repulsion Energy =            315.2201995214527415
    One-Electron Energy =               -1094.9691076657204576
    Two-Electron Energy =                 434.7082634487218229
    DFT Exchange-Correlation Energy =       0.0000000000000000
    Empirical Dispersion Energy =           0.0000000000000000
    PCM Polarization Energy =               0.0000000000000000
    EFP Energy =                            0.0000000000000000
    Total Energy =                       -345.0406446955458932

  Mulliken Charges: (a.u.)
   Center  Symbol    Alpha    Beta     Spin     Total
       1     O     4.19685  4.19685  0.00000 -0.39370
       2     C     2.80913  2.80913  0.00000  0.38174
       3     C     3.09348  3.09348  0.00000 -0.18696
       4     O     4.15120  4.15120  0.00000 -0.30241
       5     C     3.13969  3.13969  0.00000 -0.27938
       6     H     0.44166  0.44166  0.00000  0.11668
       7     H     0.44165  0.44165  0.00000  0.11670
       8     H     0.44843  0.44843  0.00000  0.10313
       9     H     0.45057  0.45057  0.00000  0.09886
      10     H     0.44844  0.44844  0.00000  0.10312
      11     C     2.98047  2.98047  0.00000  0.03906
      12     C     3.13307  3.13307  0.00000 -0.26614
      13     H     0.45400  0.45400  0.00000  0.09199
      14     H     0.45403  0.45403  0.00000  0.09195
      15     H     0.45143  0.45143  0.00000  0.09714
      16     H     0.45446  0.45446  0.00000  0.09108
      17     H     0.45143  0.45143  0.00000  0.09714

   Total alpha = 28.00000, Total beta = 28.00000, Total charge = -0.00000

*** Psi4 exiting successfully. Buy a developer a beer!
