                              Psi4 1.0.54 Driver

  ==> Input File <==

--------------------------------------------------------------------------
set {
	reference rhf
	basis cc-pvtz
}

set_num_threads( 4 )
memory 2 gb

molecule MOL {
0 1

H	 -3.941973	 0.934228	 -0.390224
C	 -3.240162	 0.342701	 0.161016
C	 -2.105997	 -0.000418	 -0.398703
H	 -3.485368	 0.047206	 1.162193
O	 -1.189946	 -0.765863	 0.237511
H	 -1.846458	 0.297311	 -1.398265
C	 0.026572	 -0.995256	 -0.379403
C	 1.057223	 0.049888	 -0.004615
H	 -0.054361	 -1.010670	 -1.459674
H	 0.397526	 -1.952058	 -0.044198
F	 1.927657	 -0.473548	 0.835290
F	 1.724076	 0.480400	 -1.054126
F	 0.513839	 1.091836	 0.576363

	symmetry c1
}
set optking {
	frozen_dihedral = ("
		11 8 7 9
	")
}

ee,wfn = optimize('scf', return_wfn=True)
oeprop( wfn, 'DIPOLE', 'QUADRUPOLE', 'MULLIKEN_CHARGES')
f=open( 'psi4out.xyz', 'w' )
f.write( "13  " )
f.write( str(ee) + "\n" )
f.write( MOL.save_string_xyz() )
f.close()
--------------------------------------------------------------------------

    Molecular point group: c1
  Charge       = 0
  Multiplicity = 1
  Basis Set: CC-PVTZ
  Basis Set:
  @DF-RHF Final Energy:  -527.73523934429807
    Total Energy =                       -527.7352393442981793
    Molecular point group: c1
  Basis Set: CC-PVTZ
  Basis Set:
  Basis Set: CC-PVTZ
  Basis Set:
  @DF-RHF Final Energy:  -527.73598758170215
    Total Energy =                       -527.7359875817021475
  Basis Set: CC-PVTZ
  Basis Set:
  Basis Set: CC-PVTZ
  Basis Set:
  @DF-RHF Final Energy:  -527.73623518993782
    Total Energy =                       -527.7362351899380428
  Basis Set: CC-PVTZ
  Basis Set:
  Basis Set: CC-PVTZ
  Basis Set:
  @DF-RHF Final Energy:  -527.73625726284922
    Total Energy =                       -527.7362572628489943
  Basis Set: CC-PVTZ
  Basis Set:
  Basis Set: CC-PVTZ
  Basis Set:
  @DF-RHF Final Energy:  -527.73626320192182
    Total Energy =                       -527.7362632019218154
  Basis Set: CC-PVTZ
  Basis Set:
  Basis Set: CC-PVTZ
  Basis Set:
  @DF-RHF Final Energy:  -527.73626675405103
    Total Energy =                       -527.7362667540511438
  Basis Set: CC-PVTZ
  Basis Set:
  Basis Set: CC-PVTZ
  Basis Set:
  @DF-RHF Final Energy:  -527.73626829860314
    Total Energy =                       -527.7362682986032496
  Basis Set: CC-PVTZ
  Basis Set:
  Charge       = 0
  Multiplicity = 1
  Basis Set: CC-PVTZ
  Basis Set:

    Orbital Energies (a.u.)
    -----------------------

    Doubly Occupied:

       1A    -26.341656     2A    -26.338919     3A    -26.338361
       4A    -20.603800     5A    -11.499580     6A    -11.319673
       7A    -11.298623     8A    -11.214399     9A     -1.750698
      10A     -1.647872    11A     -1.643390    12A     -1.444629
      13A     -1.084783    14A     -1.019358    15A     -0.932682
      16A     -0.843630    17A     -0.838790    18A     -0.827917
      19A     -0.795900    20A     -0.732409    21A     -0.722476
      22A     -0.702212    23A     -0.680085    24A     -0.668433
      25A     -0.661647    26A     -0.650004    27A     -0.635304
      28A     -0.587297    29A     -0.564927    30A     -0.529678
      31A     -0.516253    32A     -0.357148

  @DF-RHF Final Energy:  -527.73626886583736

   => Energetics <=

    Nuclear Repulsion Energy =            412.6670596918544334
    One-Electron Energy =               -1549.2215898885551724
    Two-Electron Energy =                 608.8182613308636064
    DFT Exchange-Correlation Energy =       0.0000000000000000
    Empirical Dispersion Energy =           0.0000000000000000
    PCM Polarization Energy =               0.0000000000000000
    EFP Energy =                            0.0000000000000000
    Total Energy =                       -527.7362688658372463
    Molecular point group: c1
  Basis Set: CC-PVTZ
  Basis Set:

  -Total Gradient:
     Atom            X                  Y                   Z
    ------   -----------------  -----------------  -----------------
       1        0.000007961823     0.000005818088     0.000004262118
       2        0.000001386423     0.000005912798     0.000008853966
       3        0.000028001079    -0.000009700980    -0.000018760112
       4        0.000008823353     0.000002600608    -0.000004348812
       5       -0.000049112654    -0.000036652514     0.000032841489
       6        0.000002267252     0.000001331052     0.000005620632
       7       -0.002427606869     0.002665325080    -0.000611152948
       8       -0.001592576804     0.000563153694     0.002972803624
       9        0.002450745387    -0.002381544515    -0.000130912828
      10       -0.000026873489     0.000012912986     0.000008200072
      11        0.001678416729    -0.000875109463    -0.002201709875
      12       -0.000028714793     0.000007403058    -0.000018816150
      13       -0.000052717450     0.000038550108    -0.000046881180

  **** Optimization is complete! (in 8 steps) ****
    Final optimized geometry and variables:
    Molecular point group: c1

    Geometry (in Angstrom), charge = 0, multiplicity = 1:

    H           -3.949122636091     0.926335170301    -0.294773620092
    C           -3.268610732613     0.268505447098     0.205687280780
    C           -2.099207186044     0.019820792519    -0.330758279985
    H           -3.562634469651    -0.167909305404     1.140015985599
    O           -1.201962397318    -0.811980222334     0.245678392881
    H           -1.792657213369     0.457853799840    -1.263646176330
    C            0.013870146186    -0.997194524865    -0.382556261673
    C            1.058858033859     0.068143941352    -0.020786045195
    H           -0.072109866906    -1.029697837874    -1.461039746900
    H            0.403066713841    -1.947941437544    -0.053727010256
    F            1.953717605084    -0.400489265213     0.823205205102
    F            1.720734035773     0.441878294353    -1.101322110432
    F            0.526429712595     1.140362326338     0.507591582393

  Mulliken Charges: (a.u.)
   Center  Symbol    Alpha    Beta     Spin     Total
       1     H     0.42540  0.42540  0.00000  0.14919
       2     C     3.19633  3.19633  0.00000 -0.39267
       3     C     2.95660  2.95660  0.00000  0.08680
       4     H     0.42504  0.42504  0.00000  0.14992
       5     O     4.13991  4.13991  0.00000 -0.27982
       6     H     0.43472  0.43472  0.00000  0.13056
       7     C     3.03490  3.03490  0.00000 -0.06979
       8     C     2.67127  2.67127  0.00000  0.65746
       9     H     0.45430  0.45430  0.00000  0.09140
      10     H     0.43588  0.43588  0.00000  0.12823
      11     F     4.60946  4.60946  0.00000 -0.21893
      12     F     4.61357  4.61357  0.00000 -0.22714
      13     F     4.60261  4.60261  0.00000 -0.20521

   Total alpha = 32.00000, Total beta = 32.00000, Total charge = -0.00000

*** Psi4 exiting successfully. Buy a developer a beer!
