                              Psi4 1.0.54 Driver

  ==> Input File <==

--------------------------------------------------------------------------
set {
	reference rhf
	basis cc-pvtz
}

set_num_threads( 4 )
memory 2 gb

molecule MOL {
0 1

H	 2.342730	 0.877684	 -1.045694
C	 2.360424	 0.000000	 -0.411793
C	 1.173749	 0.000000	 0.526870
H	 3.286567	 0.000000	 0.151574
H	 2.342730	 -0.877684	 -1.045694
O	 0.000000	 0.000000	 -0.223739
H	 1.203779	 0.876757	 1.172538
H	 1.203779	 -0.876757	 1.172538
C	 -1.173749	 0.000000	 0.526870
C	 -1.008867	 0.939111	 1.701676
H	 -1.392380	 -1.007804	 0.877616
H	 -2.012742	 0.314660	 -0.092462
H	 -0.184969	 0.621606	 2.328459
H	 -1.912001	 0.955098	 2.301023
H	 -0.805987	 1.945469	 1.357355

	symmetry c1
}
set optking {
	frozen_dihedral = ("
		11 9 6 3
	")
}

ee,wfn = optimize('scf', return_wfn=True)
oeprop( wfn, 'DIPOLE', 'QUADRUPOLE', 'MULLIKEN_CHARGES')
f=open( 'psi4out.xyz', 'w' )
f.write( "15  " )
f.write( str(ee) + "\n" )
f.write( MOL.save_string_xyz() )
f.close()
--------------------------------------------------------------------------

    Molecular point group: c1
  Charge       = 0
  Multiplicity = 1
  Basis Set: CC-PVTZ
  Basis Set:
  @DF-RHF Final Energy:  -232.21884781518764
    Total Energy =                       -232.2188478151877007
    Molecular point group: c1
  Basis Set: CC-PVTZ
  Basis Set:
  Basis Set: CC-PVTZ
  Basis Set:
  @DF-RHF Final Energy:  -231.55102810332369
    Total Energy =                       -231.5510281033238869
  Basis Set: CC-PVTZ
  Basis Set:
  Basis Set: CC-PVTZ
  Basis Set:
  @DF-RHF Final Energy:  -231.73819204402940
    Total Energy =                       -231.7381920440293186
  Basis Set: CC-PVTZ
  Basis Set:
  Basis Set: CC-PVTZ
  Basis Set:
  @DF-RHF Final Energy:  -231.17179648619762
    Total Energy =                       -231.1717964861976782
  Basis Set: CC-PVTZ
  Basis Set:
  @DF-RHF Final Energy:  -231.48650456266088
    Total Energy =                       -231.4865045626607980
  @DF-RHF Final Energy:  -231.79613708846040
    Total Energy =                       -231.7961370884603980
  @DF-RHF Final Energy:  -231.17939821219025
    Total Energy =                       -231.1793982121902218
  @DF-RHF Final Energy:  -231.49513136331169
    Total Energy =                       -231.4951313633115149
  @DF-RHF Final Energy:  -231.61132733746939
    Total Energy =                       -231.6113273374694472
  @DF-RHF Final Energy:  -231.85371493344741
    Total Energy =                       -231.8537149334474066
  @DF-RHF Final Energy:  -232.01552618424887
    Total Energy =                       -232.0155261842486993
  @DF-RHF Final Energy:  -231.82096657457501
    Total Energy =                       -231.8209665745748111
  @DF-RHF Final Energy:  -231.73724101784396
    Total Energy =                       -231.7372410178441839
  @DF-RHF Final Energy:  -231.96838362172150
    Total Energy =                       -231.9683836217215287
  @DF-RHF Final Energy:  -232.12712110114671
    Total Energy =                       -232.1271211011467130
  @DF-RHF Final Energy:  -232.20462712083884
    Total Energy =                       -232.2046271208388930
  @DF-RHF Final Energy:  -232.21293171744443
    Total Energy =                       -232.2129317174444623
  @DF-RHF Final Energy:  -232.22380964432793
    Total Energy =                       -232.2238096443278437
  @DF-RHF Final Energy:  -232.22060864611140
    Total Energy =                       -232.2206086461113728
  @DF-RHF Final Energy:  -232.21192059893036
    Total Energy =                       -232.2119205989304191
  @DF-RHF Final Energy:  -232.22476594220601
    Total Energy =                       -232.2247659422058632
  @DF-RHF Final Energy:  -232.22686141253433
    Total Energy =                       -232.2268614125342765
  @DF-RHF Final Energy:  -232.22714069789677
    Total Energy =                       -232.2271406978968571
  @DF-RHF Final Energy:  -232.22805206883254
    Total Energy =                       -232.2280520688326533
  Basis Set: CC-PVTZ
  Basis Set:
  @DF-RHF Final Energy:  -232.22823476843126
    Total Energy =                       -232.2282347684312072
  Basis Set: CC-PVTZ
  Basis Set:
  Basis Set: CC-PVTZ
  Basis Set:
  @DF-RHF Final Energy:  -232.22821513399867
    Total Energy =                       -232.2282151339986171
  Basis Set: CC-PVTZ
  Basis Set:
  Basis Set: CC-PVTZ
  Basis Set:
  @DF-RHF Final Energy:  -232.22824670691210
    Total Energy =                       -232.2282467069120457
  Basis Set: CC-PVTZ
  Basis Set:
  Charge       = 0
  Multiplicity = 1
  Basis Set: CC-PVTZ
  Basis Set:

    Orbital Energies (a.u.)
    -----------------------

    Doubly Occupied:

       1A    -20.542616     2A    -11.266259     3A    -11.264883
       4A    -11.212926     5A    -11.205848     6A     -1.375812
       7A     -1.040881     8A     -0.990306     9A     -0.870437
      10A     -0.801878    11A     -0.676016    12A     -0.658718
      13A     -0.628277    14A     -0.592043    15A     -0.548044
      16A     -0.538645    17A     -0.524669    18A     -0.504490
      19A     -0.492008    20A     -0.452990    21A     -0.409186

  @DF-RHF Final Energy:  -232.22824685615760

   => Energetics <=

    Nuclear Repulsion Energy =            193.4180938812108081
    One-Electron Energy =                -698.0988184916591308
    Two-Electron Energy =                 272.4524777542906691
    DFT Exchange-Correlation Energy =       0.0000000000000000
    Empirical Dispersion Energy =           0.0000000000000000
    PCM Polarization Energy =               0.0000000000000000
    EFP Energy =                            0.0000000000000000
    Total Energy =                       -232.2282468561576820
    Molecular point group: c1
  Basis Set: CC-PVTZ
  Basis Set:

  -Total Gradient:
     Atom            X                  Y                   Z
    ------   -----------------  -----------------  -----------------
       1       -0.000113485112    -0.000030791813    -0.000095750800
       2        0.000215870305    -0.000025812752     0.000031850481
       3        0.002449017949     0.002559837640     0.000377367927
       4       -0.000084232755     0.000070664229     0.000021501492
       5       -0.000000335916     0.000005472994    -0.000004128011
       6       -0.003268867712    -0.004797865829    -0.000312409744
       7        0.000025815645    -0.000004221166    -0.000007174194
       8        0.000088936542     0.000033821863     0.000068337344
       9       -0.001604862666     0.005738763524    -0.001413491017
      10        0.000193343859     0.000103315074     0.000017532586
      11        0.002280010714    -0.003608607118     0.001395077098
      12       -0.000007904749    -0.000016507495    -0.000001849600
      13       -0.000014010376     0.000029224803    -0.000021923540
      14       -0.000034853466     0.000029153689     0.000027088662
      15       -0.000124442261    -0.000086447643    -0.000082028682

  **** Optimization is complete! (in 27 steps) ****
    Final optimized geometry and variables:
    Molecular point group: c1

    Geometry (in Angstrom), charge = 0, multiplicity = 1:

    H           -0.272782045589     0.535380541902     2.639317955420
    C           -1.129278888079     0.379197408097     1.995586473096
    C           -0.714983692244     0.446051120797     0.541285255861
    H           -1.867945147600     1.142817927325     2.213141289935
    H           -1.554992439930    -0.589280864967     2.226331125074
    O            0.245027164911    -0.539510038382     0.311628016583
    H           -0.317858507314     1.431219603235     0.316094975701
    H           -1.581417659820     0.289398629064    -0.100771434316
    C            0.643170029675    -0.770167170397    -1.008603835187
    C            0.958962497324     0.466357008750    -1.834147148865
    H           -0.096602651251    -1.393100792230    -1.509712253785
    H            1.538296002592    -1.374056997958    -0.929443185625
    H            0.081627699326     1.066402415868    -2.039688681084
    H            1.374837666626     0.156296976977    -2.785937052905
    H            1.691079228098     1.088661074778    -1.333043616153

  Mulliken Charges: (a.u.)
   Center  Symbol    Alpha    Beta     Spin     Total
       1     H     0.45137  0.45137  0.00000  0.09725
       2     C     3.13616  3.13616  0.00000 -0.27233
       3     C     2.96684  2.96684  0.00000  0.06632
       4     H     0.45954  0.45954  0.00000  0.08093
       5     H     0.45160  0.45160  0.00000  0.09681
       6     O     4.18044  4.18044  0.00000 -0.36088
       7     H     0.46987  0.46987  0.00000  0.06025
       8     H     0.47400  0.47400  0.00000  0.05200
       9     C     2.98024  2.98024  0.00000  0.03951
      10     C     3.15902  3.15902  0.00000 -0.31804
      11     H     0.46775  0.46775  0.00000  0.06450
      12     H     0.45441  0.45441  0.00000  0.09117
      13     H     0.45231  0.45231  0.00000  0.09538
      14     H     0.44695  0.44695  0.00000  0.10610
      15     H     0.44949  0.44949  0.00000  0.10102

   Total alpha = 21.00000, Total beta = 21.00000, Total charge =  0.00000

*** Psi4 exiting successfully. Buy a developer a beer!
