  ==> Input File <==

--------------------------------------------------------------------------
set {
	reference rhf
	basis cc-pvtz
}

set_num_threads( 4 )
memory 2 gb

molecule MOL {
0 1

H	 1.469018	 1.154996	 0.554158
C	 0.848385	 0.440008	 0.000011
C	 -0.623497	 0.751021	 0.000090
O	 1.346793	 -0.486929	 -0.538154
C	 -1.523725	 -0.474323	 -0.000013
H	 -0.813143	 1.382932	 -0.864897
H	 -0.813071	 1.382716	 0.865253
H	 -1.342980	 -1.087348	 -0.873016
H	 -2.565269	 -0.177464	 0.000070
H	 -1.342898	 -1.087564	 0.872820

	symmetry c1
}
set optking {
	frozen_dihedral = ("
		4 2 3 6
	")
}

ee = optimize('scf')
oeprop('DIPOLE', 'QUADRUPOLE', 'MULLIKEN_CHARGES')
f=open( 'psi4out.xyz', 'w' )
f.write( "10  " )
f.write( str(ee) + "\n" )
f.write( MOL.save_string_xyz() )
f.close()
--------------------------------------------------------------------------

    Molecular point group: c1
  Charge       = 0
  Multiplicity = 1
  Basis Set: CC-PVTZ
  Basis Set:
  @DF-RHF Final Energy:  -192.02261981581404
    Total Energy =                       -192.0226198158140392
    Molecular point group: c1
  Basis Set: CC-PVTZ
  Basis Set:
  Basis Set: CC-PVTZ
  Basis Set:
  @DF-RHF Final Energy:  -192.02188764072991
    Total Energy =                       -192.0218876407299149
  Basis Set: CC-PVTZ
  Basis Set:
  Basis Set: CC-PVTZ
  Basis Set:
  @DF-RHF Final Energy:  -192.02288140365258
    Total Energy =                       -192.0228814036526330
  Basis Set: CC-PVTZ
  Basis Set:
  Basis Set: CC-PVTZ
  Basis Set:
  @DF-RHF Final Energy:  -192.02312702218450
    Total Energy =                       -192.0231270221846103
  Basis Set: CC-PVTZ
  Basis Set:
  Charge       = 0
  Multiplicity = 1
  Basis Set: CC-PVTZ
  Basis Set:

    Orbital Energies (a.u.)
    -----------------------

    Doubly Occupied:

       1A    -20.553503     2A    -11.323684     3A    -11.239069
       4A    -11.219749     5A     -1.409230     6A     -1.060986
       7A     -0.909523     8A     -0.777066     9A     -0.686217
      10A     -0.640231    11A     -0.625990    12A     -0.552137
      13A     -0.536129    14A     -0.516657    15A     -0.494753
      16A     -0.415679

  @DF-RHF Final Energy:  -192.02312744736628

   => Energetics <=

    Nuclear Repulsion Energy =            119.1980560363296036
    One-Electron Energy =                -496.5211617182651480
    Two-Electron Energy =                 185.2999782345692097
    DFT Exchange-Correlation Energy =       0.0000000000000000
    Empirical Dispersion Energy =           0.0000000000000000
    PCM Polarization Energy =               0.0000000000000000
    EFP Energy =                            0.0000000000000000
    Total Energy =                       -192.0231274473663348
    Molecular point group: c1
  Basis Set: CC-PVTZ
  Basis Set:

  -Total Gradient:
     Atom            X                  Y                   Z
    ------   -----------------  -----------------  -----------------
       1       -0.000030489603     0.000007224742     0.000008903186
       2       -0.000441787860    -0.002266396182     0.002835481931
       3        0.000614154681     0.002841077358     0.000570499740
       4        0.000214937697     0.001307650563    -0.002142037329
       5        0.000064351728     0.000038071937    -0.000007308224
       6       -0.000439235485    -0.001938469627    -0.001251877618
       7        0.000017367525     0.000017054418     0.000006373616
       8       -0.000008380751    -0.000031113720    -0.000016173819
       9        0.000001616656     0.000014022215    -0.000001556005
      10        0.000007465409     0.000010878297    -0.000002305479

  **** Optimization is complete! (in 5 steps) ****
    Final optimized geometry and variables:
    Molecular point group: c1

    Geometry (in Angstrom), charge = 0, multiplicity = 1:

    H            1.501624880767     1.140999028027     0.612488881251
    C            0.847447671840     0.401428667756     0.135444363884
    C           -0.626441767162     0.721982021685     0.163088104774
    O            1.315064634426    -0.544597624671    -0.397461025833
    C           -1.521439850697    -0.511323601849     0.124551318350
    H           -0.810684466597     1.334479845125    -0.717555016681
    H           -0.837712057007     1.342903323462     1.026494970428
    H           -1.306315678725    -1.114430822786    -0.746007965382
    H           -2.563915480971    -0.219828681339     0.093421019320
    H           -1.369983055000    -1.128979275655     1.001566850636

  Mulliken Charges: (a.u.)
   Center  Symbol    Alpha    Beta     Spin     Total
       1     H     0.45393  0.45393  0.00000  0.09214
       2     C     2.91552  2.91552  0.00000  0.16896
       3     C     3.08348  3.08348  0.00000 -0.16697
       4     O     4.16593  4.16593  0.00000 -0.33186
       5     C     3.14196  3.14196  0.00000 -0.28392
       6     H     0.44706  0.44706  0.00000  0.10587
       7     H     0.44838  0.44838  0.00000  0.10324
       8     H     0.44246  0.44246  0.00000  0.11508
       9     H     0.44926  0.44926  0.00000  0.10148
      10     H     0.45202  0.45202  0.00000  0.09597

   Total alpha = 16.00000, Total beta = 16.00000, Total charge = -0.00000
