  ==> Input File <==

--------------------------------------------------------------------------
set {
	reference rhf
	basis 6-31G*
}

set_num_threads( 4 )
memory 2 gb

molecule MOL {
0 1

H	 -1.854057	 -0.951449	 3.729205
C	 -1.098224	 -0.867843	 2.969733
C	 -1.078513	 -1.748990	 1.893900
C	 -0.132731	 0.114692	 3.046543
H	 -1.823316	 -2.521180	 1.817623
C	 -0.110899	 -1.644862	 0.918155
H	 -0.132306	 0.805086	 3.871432
C	 0.850640	 0.233246	 2.070129
H	 -0.084090	 -2.318717	 0.082072
C	 0.861068	 -0.650157	 1.002154
H	 1.587639	 1.007701	 2.157987
O	 1.765256	 -0.628444	 0.000000
C	 2.778419	 0.335181	 0.000000
H	 2.731280	 0.961222	 -0.884976
H	 3.711703	 -0.207767	 0.000000
H	 2.731280	 0.961222	 0.884976

	symmetry c1
}
set optking {
	frozen_dihedral = ("
		10 12 13 14
	")
}

ee = optimize('scf')
oeprop('DIPOLE', 'QUADRUPOLE', 'MULLIKEN_CHARGES')
f=open( 'psi4out.xyz', 'w' )
f.write( "16  " )
f.write( str(ee) + "\n" )
f.write( MOL.save_string_xyz() )
f.close()
--------------------------------------------------------------------------

    Molecular point group: c1
  Charge       = 0
  Multiplicity = 1
  Basis Set: 6-31G*
  Basis Set:
  @DF-RHF Final Energy:  -344.57369174443369
    Total Energy =                       -344.5736917444338587
    Molecular point group: c1
  Basis Set: 6-31G*
  Basis Set:
  Basis Set: 6-31G*
  Basis Set:
  @DF-RHF Final Energy:  -344.57180041218908
    Total Energy =                       -344.5718004121890203
  Basis Set: 6-31G*
  Basis Set:
  Basis Set: 6-31G*
  Basis Set:
  @DF-RHF Final Energy:  -344.57630581471523
    Total Energy =                       -344.5763058147150559
  Basis Set: 6-31G*
  Basis Set:
  Basis Set: 6-31G*
  Basis Set:
  @DF-RHF Final Energy:  -344.57668196467932
    Total Energy =                       -344.5766819646793806
  Basis Set: 6-31G*
  Basis Set:
  @DF-RHF Final Energy:  -344.57675214253152
    Total Energy =                       -344.5767521425314044
  @DF-RHF Final Energy:  -344.57710310279373
    Total Energy =                       -344.5771031027937852
  @DF-RHF Final Energy:  -344.57714474909238
    Total Energy =                       -344.5771447490923265
  @DF-RHF Final Energy:  -344.57816214978595
    Total Energy =                       -344.5781621497861806
  @DF-RHF Final Energy:  -344.57824976024807
    Total Energy =                       -344.5782497602480134
  @DF-RHF Final Energy:  -344.57832743641518
    Total Energy =                       -344.5783274364153499
  @DF-RHF Final Energy:  -344.57838313045272
    Total Energy =                       -344.5783831304526075
  @DF-RHF Final Energy:  -344.57841893822552
    Total Energy =                       -344.5784189382254681
  Basis Set: 6-31G*
  Basis Set:
  @DF-RHF Final Energy:  -344.57842770118066
    Total Energy =                       -344.5784277011809422
  Basis Set: 6-31G*
  Basis Set:
  Basis Set: 6-31G*
  Basis Set:
  @DF-RHF Final Energy:  -344.57843045327468
    Total Energy =                       -344.5784304532746773
  Basis Set: 6-31G*
  Basis Set:
  Basis Set: 6-31G*
  Basis Set:
  @DF-RHF Final Energy:  -344.57843212677017
    Total Energy =                       -344.5784321267704513
  Basis Set: 6-31G*
  Basis Set:
  Charge       = 0
  Multiplicity = 1
  Basis Set: 6-31G*
  Basis Set:

    Orbital Energies (a.u.)
    -----------------------

    Doubly Occupied:

       1A    -20.575806     2A    -11.290832     3A    -11.277602
       4A    -11.233214     5A    -11.231716     6A    -11.224824
       7A    -11.222066     8A    -11.220644     9A     -1.404028
      10A     -1.146269    11A     -1.019192    12A     -1.013552
      13A     -0.937809    14A     -0.832217    15A     -0.805083
      16A     -0.716892    17A     -0.664300    18A     -0.661323
      19A     -0.645446    20A     -0.613779    21A     -0.591277
      22A     -0.581963    23A     -0.526705    24A     -0.511482
      25A     -0.506852    26A     -0.480850    27A     -0.446315
      28A     -0.334413    29A     -0.310409

  @DF-RHF Final Energy:  -344.57843298250634

   => Energetics <=

    Nuclear Repulsion Energy =            347.5572491915461342
    One-Electron Energy =               -1156.2176470575548137
    Two-Electron Energy =                 464.0819648835025077
    DFT Exchange-Correlation Energy =       0.0000000000000000
    Empirical Dispersion Energy =           0.0000000000000000
    PCM Polarization Energy =               0.0000000000000000
    EFP Energy =                            0.0000000000000000
    Total Energy =                       -344.5784329825061718
    Molecular point group: c1
  Basis Set: 6-31G*
  Basis Set:

  -Total Gradient:
     Atom            X                  Y                   Z
    ------   -----------------  -----------------  -----------------
       1        0.000000477969    -0.000000842398     0.000000132528
       2        0.000005476870     0.000013725355     0.000008219584
       3        0.000006149618    -0.000001778374    -0.000014933413
       4       -0.000015031027    -0.000010514750     0.000005688271
       5       -0.000000074170    -0.000000214634     0.000000175708
       6       -0.000023124143    -0.000003170417    -0.000004840925
       7        0.000001280579     0.000000522397    -0.000000511008
       8        0.000022029847    -0.000014052545    -0.000009668707
       9        0.000002337739     0.000000041541     0.000000997240
      10        0.000359927885    -0.001107124171     0.000061204506
      11       -0.000000392756     0.000003332300    -0.000001770608
      12       -0.000425269511     0.001480385762    -0.000365510885
      13       -0.000311689757     0.000294720288     0.001468235613
      14        0.000370304384    -0.000656375865    -0.001147414266
      15        0.000004610575     0.000003001882    -0.000002108115
      16        0.000002985893    -0.000001656370     0.000002104479

  **** Optimization is complete! (in 16 steps) ****
    Final optimized geometry and variables:
    Molecular point group: c1

    Geometry (in Angstrom), charge = 0, multiplicity = 1:

    H           -2.220239896117    -0.621316713502     2.426785615556
    C           -1.541819923827    -0.432071970774     1.614785334533
    C           -1.449277289118    -1.322785165795     0.555390968737
    C           -0.754631952780     0.706194857140     1.611326840356
    H           -2.057234457896    -2.209974632699     0.544027450676
    C           -0.573387929508    -1.085670751553    -0.488299698655
    H           -0.824341743771     1.411140073503     2.420728230107
    C            0.119613103337     0.959522953164     0.565255133846
    H           -0.488814320142    -1.768437987703    -1.313259196098
    C            0.216327311566     0.055682189376    -0.483021365020
    H            0.707125095265     1.859390025613     0.559260384127
    O            1.022658246757     0.260416835776    -1.552482343119
    C            2.349570322543     0.684746955904    -1.361162405829
    H            2.497531228352     1.636872150557    -1.855549636708
    H            3.008426321691    -0.046173219797    -1.814075642590
    H            2.598290310541     0.777595487620    -0.312520871456

  Mulliken Charges: (a.u.)
   Center  Symbol    Alpha    Beta     Spin     Total
       1     H     0.40072  0.40072  0.00000  0.19857
       2     C     3.10972  3.10972  0.00000 -0.21944
       3     C     3.09395  3.09395  0.00000 -0.18789
       4     C     3.09357  3.09357  0.00000 -0.18715
       5     H     0.39867  0.39867  0.00000  0.20266
       6     C     3.12398  3.12398  0.00000 -0.24796
       7     H     0.39917  0.39917  0.00000  0.20167
       8     C     3.13185  3.13185  0.00000 -0.26369
       9     H     0.39339  0.39339  0.00000  0.21321
      10     C     2.79137  2.79137  0.00000  0.41727
      11     H     0.39746  0.39746  0.00000  0.20508
      12     O     4.33233  4.33233  0.00000 -0.66465
      13     C     3.08490  3.08490  0.00000 -0.16979
      14     H     0.41594  0.41594  0.00000  0.16812
      15     H     0.41321  0.41321  0.00000  0.17358
      16     H     0.41979  0.41979  0.00000  0.16043

   Total alpha = 29.00000, Total beta = 29.00000, Total charge =  0.00000
