  ==> Input File <==

--------------------------------------------------------------------------
set {
	reference rhf
	basis cc-pvtz
}

set_num_threads( 4 )
memory 2 gb

molecule MOL {
0 1

H	 1.994885	 -1.443739	 -0.165903
O	 1.675515	 -0.612943	 -0.465627
C	 1.135873	 0.113391	 0.608264
C	 0.027642	 1.012027	 0.090274
H	 1.902972	 0.727968	 1.072615
H	 0.756163	 -0.561896	 1.370018
C	 -1.138737	 0.285728	 -0.581921
H	 0.464661	 1.708096	 -0.618252
H	 -0.340737	 1.603071	 0.925246
C	 -1.933983	 -0.631436	 0.343653
H	 -0.763151	 -0.285569	 -1.422081
H	 -1.808359	 1.035291	 -0.992333
H	 -2.789188	 -1.049673	 -0.174718
H	 -1.335629	 -1.461368	 0.700418
H	 -2.305435	 -0.092167	 1.209725

	symmetry c1
}
set optking {
	frozen_dihedral = ("
		1 2 3 4
	")
}

ee = optimize('scf')
oeprop('DIPOLE', 'QUADRUPOLE', 'MULLIKEN_CHARGES')
f=open( 'psi4out.xyz', 'w' )
f.write( "15  " )
f.write( str(ee) + "\n" )
f.write( MOL.save_string_xyz() )
f.close()
--------------------------------------------------------------------------

    Molecular point group: c1
  Charge       = 0
  Multiplicity = 1
  Basis Set: CC-PVTZ
  Basis Set:
  @DF-RHF Final Energy:  -232.23676523733749
    Total Energy =                       -232.2367652373375790
    Molecular point group: c1
  Basis Set: CC-PVTZ
  Basis Set:
  Basis Set: CC-PVTZ
  Basis Set:
  @DF-RHF Final Energy:  -232.23681487008437
    Total Energy =                       -232.2368148700845722
  Basis Set: CC-PVTZ
  Basis Set:
  Basis Set: CC-PVTZ
  Basis Set:
  @DF-RHF Final Energy:  -232.23683278288868
    Total Energy =                       -232.2368327828888823
  Basis Set: CC-PVTZ
  Basis Set:
  Charge       = 0
  Multiplicity = 1
  Basis Set: CC-PVTZ
  Basis Set:

    Orbital Energies (a.u.)
    -----------------------

    Doubly Occupied:

       1A    -20.545978     2A    -11.265540     3A    -11.210878
       4A    -11.208769     5A    -11.205631     6A     -1.363639
       7A     -1.066364     8A     -0.972843     9A     -0.871142
      10A     -0.776563    11A     -0.707984    12A     -0.649386
      13A     -0.609034    14A     -0.579761    15A     -0.564187
      16A     -0.535588    17A     -0.510022    18A     -0.478920
      19A     -0.469263    20A     -0.454689    21A     -0.431940

  @DF-RHF Final Energy:  -232.23683298462490

   => Energetics <=

    Nuclear Repulsion Energy =            191.6731767395990289
    One-Electron Energy =                -694.8637753722726984
    Two-Electron Energy =                 270.9537656480488863
    DFT Exchange-Correlation Energy =       0.0000000000000000
    Empirical Dispersion Energy =           0.0000000000000000
    PCM Polarization Energy =               0.0000000000000000
    EFP Energy =                            0.0000000000000000
    Total Energy =                       -232.2368329846247548
    Molecular point group: c1
  Basis Set: CC-PVTZ
  Basis Set:

  -Total Gradient:
     Atom            X                  Y                   Z
    ------   -----------------  -----------------  -----------------
       1       -0.001403431525    -0.000436629422    -0.000368133171
       2        0.001491187173     0.000411387701     0.000526786654
       3        0.000435771902     0.000850407054    -0.000193722173
       4       -0.000609096808    -0.000835806099     0.000037286093
       5       -0.000006838170    -0.000051549571    -0.000010304390
       6       -0.000100602907    -0.000011999994    -0.000037956798
       7       -0.000046465665     0.000139340803     0.000050483456
       8        0.000019715878     0.000018404624    -0.000037642999
       9        0.000095622680    -0.000018736447     0.000004384252
      10        0.000025152144     0.000009777881     0.000004427890
      11        0.000000982771     0.000013094379    -0.000045787502
      12        0.000018216057    -0.000002589917     0.000008760934
      13        0.000014658159    -0.000034069428     0.000000565786
      14        0.000070592032    -0.000032564402     0.000093426263
      15       -0.000005463718    -0.000018467164    -0.000032574293

  **** Optimization is complete! (in 4 steps) ****
    Final optimized geometry and variables:
    Molecular point group: c1

    Geometry (in Angstrom), charge = 0, multiplicity = 1:

    H            2.047209142046    -1.416373958851    -0.195380056228
    O            1.720468219758    -0.582859767360    -0.475202017904
    C            1.136382285302     0.103784730295     0.603608978163
    C            0.024736409616     1.002574869440     0.091801238892
    H            1.886757795201     0.708532581575     1.104925893867
    H            0.747899625624    -0.598305780199     1.334718943157
    C           -1.142624441138     0.277101621499    -0.578069648281
    H            0.459987326926     1.700116994024    -0.616784016389
    H           -0.339966716849     1.594075374546     0.928229808029
    C           -1.953241349953    -0.619396754721     0.354785141891
    H           -0.765109356977    -0.308256740679    -1.407924756869
    H           -1.803971431003     1.024795790999    -1.004550357991
    H           -2.799587719964    -1.050353735278    -0.167608096617
    H           -1.362687288765    -1.441219730024     0.743117168368
    H           -2.338908316403    -0.060188023266     1.201536386371

  Mulliken Charges: (a.u.)
   Center  Symbol    Alpha    Beta     Spin     Total
       1     H     0.39350  0.39350  0.00000  0.21300
       2     O     4.20304  4.20304  0.00000 -0.40609
       3     C     2.97717  2.97717  0.00000  0.04566
       4     C     3.09230  3.09230  0.00000 -0.18460
       5     H     0.46061  0.46061  0.00000  0.07879
       6     H     0.47179  0.47179  0.00000  0.05643
       7     C     3.08981  3.08981  0.00000 -0.17963
       8     H     0.44756  0.44756  0.00000  0.10487
       9     H     0.45449  0.45449  0.00000  0.09102
      10     C     3.15410  3.15410  0.00000 -0.30819
      11     H     0.44676  0.44676  0.00000  0.10649
      12     H     0.44995  0.44995  0.00000  0.10010
      13     H     0.44624  0.44624  0.00000  0.10752
      14     H     0.45667  0.45667  0.00000  0.08665
      15     H     0.45601  0.45601  0.00000  0.08799

   Total alpha = 21.00000, Total beta = 21.00000, Total charge = -0.00000
