  ==> Input File <==

--------------------------------------------------------------------------
set {
	reference rhf
	basis 6-31G*
}

set_num_threads( 1 )
memory 2 gb

molecule MOL {
0 1

H	 -2.172150	 0.880146	 0.502514
C	 -2.018062	 -0.000025	 -0.114509
O	 -0.774054	 0.001095	 -0.743181
H	 -2.760490	 0.003458	 -0.901350
H	 -2.173624	 -0.884374	 0.496163
C	 -0.664056	 0.457856	 -2.079519
C	 0.823408	 0.308089	 -2.391018
C	 -1.487660	 -0.415401	 -3.031510
C	 -1.076998	 1.928511	 -2.196864
H	 1.124967	 -0.727672	 -2.282878
H	 1.411005	 0.903432	 -1.701329
H	 1.045212	 0.630147	 -3.403314
H	 -1.239437	 -1.462054	 -2.890331
H	 -1.276269	 -0.150559	 -4.062420
H	 -2.554603	 -0.294138	 -2.878267
H	 -0.540047	 2.528498	 -1.469711
H	 -0.846123	 2.305844	 -3.187747
H	 -2.140571	 2.068977	 -2.036507

	symmetry c1
}
set optking {
	frozen_dihedral = ("
		2 3 6 7
	")
}

ee = energy('scf')
oeprop('DIPOLE', 'QUADRUPOLE', 'MULLIKEN_CHARGES')
f=open( 'psi4out.xyz', 'w' )
f.write( "18  " )
f.write( str(ee) + "\n" )
f.write( MOL.save_string_xyz() )
f.close()
--------------------------------------------------------------------------

    Molecular point group: c1

    Geometry (in Angstrom), charge = 0, multiplicity = 1:

       Center              X                  Y                   Z               Mass
    ------------   -----------------  -----------------  -----------------  -----------------
           H         -1.290331693180     0.503106327511     2.246772770628     1.007825032070
           C         -1.136243693180    -0.377064672489     1.629749770628    12.000000000000
           O          0.107764306820    -0.375944672489     1.001077770628    15.994914619560
           H         -1.878671693180    -0.373581672489     0.842908770628     1.007825032070
           H         -1.291805693180    -1.261413672489     2.240421770628     1.007825032070
           C          0.217762306820     0.080816327511    -0.335260229372    12.000000000000
           C          1.705226306820    -0.068950672489    -0.646759229372    12.000000000000
           C         -0.605841693180    -0.792440672489    -1.287251229372    12.000000000000
           C         -0.195179693180     1.551471327511    -0.452605229372    12.000000000000
           H          2.006785306820    -1.104711672489    -0.538619229372     1.007825032070
           H          2.292823306820     0.526392327511     0.042929770628     1.007825032070
           H          1.927030306820     0.253107327511    -1.659055229372     1.007825032070
           H         -0.357618693180    -1.839093672489    -1.146072229372     1.007825032070
           H         -0.394450693180    -0.527598672489    -2.318161229372     1.007825032070
           H         -1.672784693180    -0.671177672489    -1.134008229372     1.007825032070
           H          0.341771306820     2.151458327511     0.274547770628     1.007825032070
           H          0.035695306820     1.928804327511    -1.443488229372     1.007825032070
           H         -1.258752693180     1.691937327511    -0.292248229372     1.007825032070

  Charge       = 0
  Multiplicity = 1
  Basis Set: 6-31G*
  Basis Set:

    Orbital Energies (a.u.)
    -----------------------

    Doubly Occupied:

       1A    -20.544015     2A    -11.282624     3A    -11.260553
       4A    -11.209353     5A    -11.208931     6A    -11.203532
       7A     -1.369203     8A     -1.072973     9A     -0.947016
      10A     -0.940205    11A     -0.911488    12A     -0.752858
      13A     -0.655133    14A     -0.644559    15A     -0.641235
      16A     -0.590975    17A     -0.574435    18A     -0.549081
      19A     -0.537175    20A     -0.525103    21A     -0.515467
      22A     -0.489922    23A     -0.487024    24A     -0.435266
      25A     -0.402449

  @DF-RHF Final Energy:  -271.17106916393192

   => Energetics <=

    Nuclear Repulsion Energy =            272.5016784318193572
    One-Electron Energy =                -907.8440854363799417
    Two-Electron Energy =                 364.1713378406286097
    DFT Exchange-Correlation Energy =       0.0000000000000000
    Empirical Dispersion Energy =           0.0000000000000000
    PCM Polarization Energy =               0.0000000000000000
    EFP Energy =                            0.0000000000000000
    Total Energy =                       -271.1710691639319180

  Mulliken Charges: (a.u.)
   Center  Symbol    Alpha    Beta     Spin     Total
       1     H     0.42569  0.42569  0.00000  0.14862
       2     C     3.07358  3.07358  0.00000 -0.14717
       3     O     4.32132  4.32132  0.00000 -0.64264
       4     H     0.43339  0.43339  0.00000  0.13323
       5     H     0.41697  0.41697  0.00000  0.16606
       6     C     2.84533  2.84533  0.00000  0.30934
       7     C     3.23255  3.23255  0.00000 -0.46510
       8     C     3.24718  3.24718  0.00000 -0.49436
       9     C     3.24568  3.24568  0.00000 -0.49136
      10     H     0.41393  0.41393  0.00000  0.17215
      11     H     0.41381  0.41381  0.00000  0.17239
      12     H     0.42523  0.42523  0.00000  0.14954
      13     H     0.41280  0.41280  0.00000  0.17441
      14     H     0.41930  0.41930  0.00000  0.16140
      15     H     0.41942  0.41942  0.00000  0.16117
      16     H     0.41307  0.41307  0.00000  0.17386
      17     H     0.41994  0.41994  0.00000  0.16011
      18     H     0.42082  0.42082  0.00000  0.15836

   Total alpha = 25.00000, Total beta = 25.00000, Total charge =  0.00000
