  ==> Input File <==

--------------------------------------------------------------------------
set {
	reference rhf
	basis 6-31G*
}

set_num_threads( 1 )
memory 2 gb

molecule MOL {
0 1

H	 3.893188	 0.355400	 -0.101367
N	 3.092854	 -0.246221	 -0.068770
C	 1.865559	 0.531981	 0.018834
H	 3.199514	 -0.826043	 0.741946
C	 0.645745	 -0.382037	 -0.029944
H	 1.841966	 1.207024	 -0.831236
H	 1.815756	 1.155410	 0.915079
C	 -0.679275	 0.379305	 0.025956
H	 0.698998	 -0.976915	 -0.937203
H	 0.693479	 -1.083846	 0.802235
C	 -0.569317	 1.728851	 0.738002
H	 -1.425295	 -0.231589	 0.532030
H	 -1.051294	 0.538189	 -0.985086
C	 -1.896540	 2.484317	 0.795109
H	 -0.199060	 1.572485	 1.748781
H	 0.173622	 2.342518	 0.232919
H	 -2.651812	 1.910435	 1.324769
H	 -1.786290	 3.435934	 1.305866
H	 -2.276077	 2.686581	 -0.202604

	symmetry c1
}
set optking {
	frozen_dihedral = ("
		6 3 5 9,
		12 8 11 15,
		1 2 3 6
	")
}

ee = energy('scf')
oeprop('DIPOLE', 'QUADRUPOLE', 'MULLIKEN_CHARGES')
f=open( 'psi4out.xyz', 'w' )
f.write( "19  " )
f.write( str(ee) + "\n" )
f.write( MOL.save_string_xyz() )
f.close()
--------------------------------------------------------------------------

    Molecular point group: c1

    Geometry (in Angstrom), charge = 0, multiplicity = 1:

       Center              X                  Y                   Z               Mass
    ------------   -----------------  -----------------  -----------------  -----------------
           H          3.449433761579    -0.398190004521    -0.356165763711     1.007825032070
           N          2.649099761579    -0.999811004521    -0.323568763711    14.003074004780
           C          1.421804761579    -0.221609004521    -0.235964763711    12.000000000000
           H          2.755759761579    -1.579633004521     0.487147236289     1.007825032070
           C          0.201990761579    -1.135627004521    -0.284742763711    12.000000000000
           H          1.398211761579     0.453433995479    -1.086034763711     1.007825032070
           H          1.372001761579     0.401819995479     0.660280236289     1.007825032070
           C         -1.123029238421    -0.374285004521    -0.228842763711    12.000000000000
           H          0.255243761579    -1.730505004521    -1.192001763711     1.007825032070
           H          0.249724761579    -1.837436004521     0.547436236289     1.007825032070
           C         -1.013071238421     0.975260995479     0.483203236289    12.000000000000
           H         -1.869049238421    -0.985179004521     0.277231236289     1.007825032070
           H         -1.495048238421    -0.215401004521    -1.239884763711     1.007825032070
           C         -2.340294238421     1.730726995479     0.540310236289    12.000000000000
           H         -0.642814238421     0.818894995479     1.493982236289     1.007825032070
           H         -0.270132238421     1.588927995479    -0.021879763711     1.007825032070
           H         -3.095566238421     1.156844995479     1.069970236289     1.007825032070
           H         -2.230044238421     2.682343995479     1.051067236289     1.007825032070
           H         -2.719831238421     1.932990995479    -0.457402763711     1.007825032070

  Charge       = 0
  Multiplicity = 1
  Basis Set: 6-31G*
  Basis Set:

    Orbital Energies (a.u.)
    -----------------------

    Doubly Occupied:

       1A    -15.531145     2A    -11.238065     3A    -11.214412
       4A    -11.212078     5A    -11.208629     6A    -11.207755
       7A     -1.175926     8A     -1.075575     9A     -0.995174
      10A     -0.897424    11A     -0.839860    12A     -0.766242
      13A     -0.659230    14A     -0.640878    15A     -0.628424
      16A     -0.582707    17A     -0.574250    18A     -0.544713
      19A     -0.527531    20A     -0.505507    21A     -0.489737
      22A     -0.463261    23A     -0.450759    24A     -0.447937
      25A     -0.378158

  @DF-RHF Final Energy:  -251.34194597819365

   => Energetics <=

    Nuclear Repulsion Energy =            252.0688824913250699
    One-Electron Energy =                -838.3109497303929629
    Two-Electron Energy =                 334.9001212608748119
    DFT Exchange-Correlation Energy =       0.0000000000000000
    Empirical Dispersion Energy =           0.0000000000000000
    PCM Polarization Energy =               0.0000000000000000
    EFP Energy =                            0.0000000000000000
    Total Energy =                       -251.3419459781930527

  Mulliken Charges: (a.u.)
   Center  Symbol    Alpha    Beta     Spin     Total
       1     H     0.33290  0.33290  0.00000  0.33420
       2     N     3.92265  3.92265  0.00000 -0.84531
       3     C     3.06635  3.06635  0.00000 -0.13271
       4     H     0.33576  0.33576  0.00000  0.32848
       5     C     3.15327  3.15327  0.00000 -0.30654
       6     H     0.42086  0.42086  0.00000  0.15828
       7     H     0.42912  0.42912  0.00000  0.14177
       8     C     3.15457  3.15457  0.00000 -0.30913
       9     H     0.41058  0.41058  0.00000  0.17884
      10     H     0.42672  0.42672  0.00000  0.14656
      11     C     3.16157  3.16157  0.00000 -0.32313
      12     H     0.42103  0.42103  0.00000  0.15795
      13     H     0.42153  0.42153  0.00000  0.15693
      14     C     3.23715  3.23715  0.00000 -0.47431
      15     H     0.42269  0.42269  0.00000  0.15462
      16     H     0.41924  0.41924  0.00000  0.16151
      17     H     0.42214  0.42214  0.00000  0.15572
      18     H     0.42008  0.42008  0.00000  0.15983
      19     H     0.42178  0.42178  0.00000  0.15643

   Total alpha = 25.00000, Total beta = 25.00000, Total charge = -0.00000
