  ==> Input File <==

--------------------------------------------------------------------------
set {
	reference rhf
	basis 6-31G*
}

set_num_threads( 1 )
memory 2 gb

molecule MOL {
0 1

H	 2.178968	 -0.896894	 -0.518057
C	 1.951159	 -0.223429	 0.317018
C	 0.692068	 0.589600	 0.160137
O	 2.675573	 -0.172956	 1.257660
C	 -0.558097	 -0.297372	 0.091132
H	 0.791645	 1.202255	 -0.728243
H	 0.616171	 1.253469	 1.020572
C	 -1.850991	 0.512573	 -0.019058
H	 -0.476753	 -0.965681	 -0.762987
H	 -0.604799	 -0.930658	 0.975228
C	 -3.096943	 -0.368295	 -0.099594
H	 -1.800724	 1.150330	 -0.898172
H	 -1.931651	 1.177355	 0.838044
H	 -3.060452	 -1.020287	 -0.967456
H	 -3.996858	 0.233488	 -0.175704
H	 -3.191959	 -0.995686	 0.782074

	symmetry c1
}
set optking {
	frozen_dihedral = ("
		9 5 8 12,
		6 3 5 9
	")
}

ee = energy('scf')
oeprop('DIPOLE', 'QUADRUPOLE', 'MULLIKEN_CHARGES')
f=open( 'psi4out.xyz', 'w' )
f.write( "16  " )
f.write( str(ee) + "\n" )
f.write( MOL.save_string_xyz() )
f.close()
--------------------------------------------------------------------------

    Molecular point group: c1

    Geometry (in Angstrom), charge = 0, multiplicity = 1:

       Center              X                  Y                   Z               Mass
    ------------   -----------------  -----------------  -----------------  -----------------
           H          2.215266207469    -0.896891952158    -0.809363608611     1.007825032070
           C          1.987457207469    -0.223426952158     0.025711391389    12.000000000000
           C          0.728366207469     0.589602047842    -0.131169608611    12.000000000000
           O          2.711871207469    -0.172953952158     0.966353391389    15.994914619560
           C         -0.521798792531    -0.297369952158    -0.200174608611    12.000000000000
           H          0.827943207469     1.202257047842    -1.019549608611     1.007825032070
           H          0.652469207469     1.253471047842     0.729265391389     1.007825032070
           C         -1.814692792531     0.512575047842    -0.310364608611    12.000000000000
           H         -0.440454792531    -0.965678952158    -1.054293608611     1.007825032070
           H         -0.568500792531    -0.930655952158     0.683921391389     1.007825032070
           C         -3.060644792531    -0.368292952158    -0.390900608611    12.000000000000
           H         -1.764425792531     1.150332047842    -1.189478608611     1.007825032070
           H         -1.895352792531     1.177357047842     0.546737391389     1.007825032070
           H         -3.024153792531    -1.020284952158    -1.258762608611     1.007825032070
           H         -3.960559792531     0.233490047842    -0.467010608611     1.007825032070
           H         -3.155660792531    -0.995683952158     0.490767391389     1.007825032070

  Charge       = 0
  Multiplicity = 1
  Basis Set: 6-31G*
  Basis Set:

    Orbital Energies (a.u.)
    -----------------------

    Doubly Occupied:

       1A    -20.562754     2A    -11.326536     3A    -11.236670
       4A    -11.234952     5A    -11.229171     6A    -11.218275
       7A     -1.402428     8A     -1.096172     9A     -1.018634
      10A     -0.906215    11A     -0.812176    12A     -0.792610
      13A     -0.679180    14A     -0.646149    15A     -0.630256
      16A     -0.604118    17A     -0.580835    18A     -0.550313
      19A     -0.526005    20A     -0.509848    21A     -0.487558
      22A     -0.480342    23A     -0.479882    24A     -0.408842

  @DF-RHF Final Energy:  -270.01957491971461

   => Energetics <=

    Nuclear Repulsion Energy =            229.0224656383240642
    One-Electron Energy =                -819.2442002070204126
    Two-Electron Energy =                 320.2021596489817057
    DFT Exchange-Correlation Energy =       0.0000000000000000
    Empirical Dispersion Energy =           0.0000000000000000
    PCM Polarization Energy =               0.0000000000000000
    EFP Energy =                            0.0000000000000000
    Total Energy =                       -270.0195749197146142

  Mulliken Charges: (a.u.)
   Center  Symbol    Alpha    Beta     Spin     Total
       1     H     0.43225  0.43225  0.00000  0.13550
       2     C     2.83058  2.83058  0.00000  0.33884
       3     C     3.20777  3.20777  0.00000 -0.41555
       4     O     4.23630  4.23630  0.00000 -0.47261
       5     C     3.16399  3.16399  0.00000 -0.32798
       6     H     0.40930  0.40930  0.00000  0.18140
       7     H     0.40102  0.40102  0.00000  0.19795
       8     C     3.15154  3.15154  0.00000 -0.30308
       9     H     0.41951  0.41951  0.00000  0.16098
      10     H     0.41201  0.41201  0.00000  0.17599
      11     C     3.24053  3.24053  0.00000 -0.48105
      12     H     0.42078  0.42078  0.00000  0.15845
      13     H     0.41827  0.41827  0.00000  0.16347
      14     H     0.42049  0.42049  0.00000  0.15903
      15     H     0.41640  0.41640  0.00000  0.16719
      16     H     0.41927  0.41927  0.00000  0.16147

   Total alpha = 24.00000, Total beta = 24.00000, Total charge =  0.00000
