  ==> Input File <==

--------------------------------------------------------------------------
set {
	reference rhf
	basis 6-31G*
}

set_num_threads( 4 )
memory 2 gb

molecule MOL {
0 1

H	 -0.916873	 3.008049	 3.466266
O	 -0.229930	 2.422974	 3.180431
C	 -0.615722	 1.788324	 1.988385
C	 0.507252	 0.860284	 1.560110
H	 -1.533091	 1.220143	 2.136412
H	 -0.809774	 2.523396	 1.208415
C	 0.198102	 0.111031	 0.262842
H	 0.693130	 0.154390	 2.365027
H	 1.413020	 1.449442	 1.446292
C	 1.331804	 -0.827780	 -0.158768
H	 -0.722995	 -0.453214	 0.386855
H	 0.013588	 0.828120	 -0.536068
C	 2.723619	 -0.410569	 0.329459
H	 1.342964	 -0.912588	 -1.244120
H	 1.116806	 -1.824343	 0.220779
C	 3.243875	 0.895854	 -0.272975
H	 3.424222	 -1.207124	 0.091250
H	 2.714788	 -0.329854	 1.414619
H	 3.251977	 0.848779	 -1.358681
H	 2.637085	 1.747371	 0.016682
H	 4.259473	 1.094070	 0.055697

	symmetry c1
}
set optking {
	frozen_dihedral = ("
		4 7 10 14
	")
}

ee = optimize('scf')
oeprop('DIPOLE', 'QUADRUPOLE', 'MULLIKEN_CHARGES')
f=open( 'psi4out.xyz', 'w' )
f.write( "21  " )
f.write( str(ee) + "\n" )
f.write( MOL.save_string_xyz() )
f.close()
--------------------------------------------------------------------------

    Molecular point group: c1
  Charge       = 0
  Multiplicity = 1
  Basis Set: 6-31G*
  Basis Set:
  @DF-RHF Final Energy:  -310.20216762720941
    Total Energy =                       -310.2021676272090644
    Molecular point group: c1
  Basis Set: 6-31G*
  Basis Set:
  Basis Set: 6-31G*
  Basis Set:
  @DF-RHF Final Energy:  -310.20559323831930
    Total Energy =                       -310.2055932383194659
  Basis Set: 6-31G*
  Basis Set:
  Basis Set: 6-31G*
  Basis Set:
  @DF-RHF Final Energy:  -310.20630606594767
    Total Energy =                       -310.2063060659476719
  Basis Set: 6-31G*
  Basis Set:
  Basis Set: 6-31G*
  Basis Set:
  @DF-RHF Final Energy:  -310.20640443095721
    Total Energy =                       -310.2064044309577184
  Basis Set: 6-31G*
  Basis Set:
  Basis Set: 6-31G*
  Basis Set:
  @DF-RHF Final Energy:  -310.20641346679940
    Total Energy =                       -310.2064134667992903
  Basis Set: 6-31G*
  Basis Set:
  Charge       = 0
  Multiplicity = 1
  Basis Set: 6-31G*
  Basis Set:

    Orbital Energies (a.u.)
    -----------------------

    Doubly Occupied:

       1A    -20.552002     2A    -11.267173     3A    -11.216606
       4A    -11.214287     5A    -11.212581     6A    -11.210470
       7A    -11.206561     8A     -1.358841     9A     -1.084340
      10A     -1.029052    11A     -0.955291    12A     -0.874309
      13A     -0.820492    14A     -0.763342    15A     -0.688731
      16A     -0.661037    17A     -0.626952    18A     -0.617296
      19A     -0.569748    20A     -0.564095    21A     -0.545999
      22A     -0.526378    23A     -0.502604    24A     -0.493893
      25A     -0.477756    26A     -0.452007    27A     -0.448337
      28A     -0.446090    29A     -0.434356

  @DF-RHF Final Energy:  -310.20641378449119

   => Energetics <=

    Nuclear Repulsion Energy =            320.0760044629668641
    One-Electron Energy =               -1054.9235833645686853
    Two-Electron Energy =                 424.6411651171104609
    DFT Exchange-Correlation Energy =       0.0000000000000000
    Empirical Dispersion Energy =           0.0000000000000000
    PCM Polarization Energy =               0.0000000000000000
    EFP Energy =                            0.0000000000000000
    Total Energy =                       -310.2064137844913034
    Molecular point group: c1
  Basis Set: 6-31G*
  Basis Set:

  -Total Gradient:
     Atom            X                  Y                   Z
    ------   -----------------  -----------------  -----------------
       1       -0.000005398723    -0.000006093335    -0.000014031828
       2        0.000008430422    -0.000027702287    -0.000020995982
       3        0.000002060424    -0.000008785056     0.000000028577
       4        0.002648395216     0.004337013376    -0.002761401301
       5       -0.000005431672     0.000000827127     0.000008258073
       6        0.000010065166     0.000000237225     0.000014899257
       7       -0.002674583058    -0.004883687228     0.003978680722
       8        0.000014117822     0.000007724461    -0.000015957170
       9       -0.000054880990    -0.000006278521     0.000031382192
      10       -0.004870348963    -0.005076777530    -0.001128715233
      11        0.000004044496    -0.000018328079    -0.000023817160
      12        0.000009992670     0.000000478557    -0.000002198900
      13       -0.000005704599     0.000012017184     0.000022455508
      14        0.004954233421     0.005699312785    -0.000068423730
      15       -0.000005659794    -0.000018853640     0.000002406105
      16        0.000000708344     0.000015036741    -0.000018100749
      17       -0.000025403023     0.000001613193    -0.000008979291
      18       -0.000002267784    -0.000014835601     0.000001564909
      19       -0.000013986195     0.000011724347     0.000018636355
      20        0.000020345550    -0.000016569816    -0.000013817223
      21       -0.000008728728    -0.000008073903    -0.000001873140

  **** Optimization is complete! (in 6 steps) ****
    Final optimized geometry and variables:
    Molecular point group: c1

    Geometry (in Angstrom), charge = 0, multiplicity = 1:

    H           -2.128481256357     2.216393875053     2.470307363082
    O           -1.399410421108     1.673307532740     2.206767373926
    C           -1.703942436601     1.028773152275     0.996609651655
    C           -0.513778704497     0.169560749378     0.605795618129
    H           -2.592954300269     0.409295589947     1.105652829839
    H           -1.909266087700     1.759212805914     0.215017831856
    C           -0.742786199260    -0.556098235394    -0.723280629661
    H           -0.333378704606    -0.541232124400     1.408096003347
    H            0.358226526776     0.810192146633     0.554572650893
    C            0.368283295124    -1.531333291115    -1.176917513198
    H           -1.681157543243    -1.103640569460    -0.679444114300
    H           -0.880911437482     0.200122602810    -1.493677943551
    C            1.805518137255    -1.187000612571    -0.754644566741
    H            0.376569880680    -1.551451758694    -2.264003688956
    H            0.135171047656    -2.532970660365    -0.828415717855
    C            2.379702587863     0.044023905034    -1.459376422502
    H            2.435044336425    -2.041321951816    -0.991813494438
    H            1.868904618351    -1.060097423774     0.321585775539
    H            2.392620808363    -0.099273706400    -2.536540026327
    H            1.801782455207     0.939588987023    -1.256111291045
    H            3.399950005235     0.234138301925    -1.140488469959

  Mulliken Charges: (a.u.)
   Center  Symbol    Alpha    Beta     Spin     Total
       1     H     0.28114  0.28114  0.00000  0.43772
       2     O     4.37210  4.37210  0.00000 -0.74420
       3     C     2.98912  2.98912  0.00000  0.02176
       4     C     3.16404  3.16404  0.00000 -0.32807
       5     H     0.43267  0.43267  0.00000  0.13466
       6     H     0.43303  0.43303  0.00000  0.13394
       7     C     3.16352  3.16352  0.00000 -0.32703
       8     H     0.41512  0.41512  0.00000  0.16976
       9     H     0.41099  0.41099  0.00000  0.17803
      10     C     3.15291  3.15291  0.00000 -0.30583
      11     H     0.42085  0.42085  0.00000  0.15831
      12     H     0.42280  0.42280  0.00000  0.15439
      13     C     3.15752  3.15752  0.00000 -0.31505
      14     H     0.42221  0.42221  0.00000  0.15557
      15     H     0.42010  0.42010  0.00000  0.15979
      16     C     3.24109  3.24109  0.00000 -0.48217
      17     H     0.42093  0.42093  0.00000  0.15815
      18     H     0.41800  0.41800  0.00000  0.16401
      19     H     0.42283  0.42283  0.00000  0.15433
      20     H     0.42022  0.42022  0.00000  0.15957
      21     H     0.41882  0.41882  0.00000  0.16236

   Total alpha = 29.00000, Total beta = 29.00000, Total charge = -0.00000
