  ==> Input File <==

--------------------------------------------------------------------------
set {
	reference rhf
	basis 6-31G*
}

set_num_threads( 4 )
memory 2 gb

molecule MOL {
0 1

O	 3.098794	 0.968299	 0.843446
C	 2.843464	 0.164689	 -0.000222
C	 1.546494	 -0.624492	 -0.000609
C	 3.806110	 -0.121483	 -1.134495
C	 0.291004	 0.242674	 0.000989
H	 1.557904	 -1.283758	 -0.867573
H	 1.558622	 -1.285963	 0.864672
C	 -0.994322	 -0.586602	 0.000262
H	 0.309117	 0.896430	 -0.865270
H	 0.309661	 0.894078	 0.869017
C	 -2.259874	 0.272531	 0.000494
H	 -1.004862	 -1.240012	 -0.870939
H	 -1.005220	 -1.241071	 0.870675
C	 -3.549786	 -0.549746	 -0.000374
H	 -2.250389	 0.926680	 -0.869574
H	 -2.250838	 0.925513	 0.871430
C	 -4.809590	 0.315458	 -0.000369
H	 -3.560515	 -1.202009	 -0.871156
H	 -3.561123	 -1.202955	 0.869711
H	 -4.844746	 0.956611	 -0.876632
H	 -5.706986	 -0.295590	 -0.001609
H	 -4.845960	 0.954827	 0.877144
H	 3.333893	 0.078457	 -2.091915
H	 4.686835	 0.496819	 -1.030287
H	 4.095612	 -1.168291	 -1.130444

	symmetry c1
}
set optking {
	frozen_dihedral = ("
		1 2 3 6
	")
}

ee = optimize('scf')
oeprop('DIPOLE', 'QUADRUPOLE', 'MULLIKEN_CHARGES')
f=open( 'psi4out.xyz', 'w' )
f.write( "25  " )
f.write( str(ee) + "\n" )
f.write( MOL.save_string_xyz() )
f.close()
--------------------------------------------------------------------------

    Molecular point group: c1
  Charge       = 0
  Multiplicity = 1
  Basis Set: 6-31G*
  Basis Set:
  @DF-RHF Final Energy:  -387.13400590731158
    Total Energy =                       -387.1340059073115754
    Molecular point group: c1
  Basis Set: 6-31G*
  Basis Set:
  Basis Set: 6-31G*
  Basis Set:
  @DF-RHF Final Energy:  -387.13448521665879
    Total Energy =                       -387.1344852166589590
  Basis Set: 6-31G*
  Basis Set:
  Basis Set: 6-31G*
  Basis Set:
  @DF-RHF Final Energy:  -387.13300128638008
    Total Energy =                       -387.1330012863807042
  Basis Set: 6-31G*
  Basis Set:
  Basis Set: 6-31G*
  Basis Set:
  @DF-RHF Final Energy:  -387.13466014897637
    Total Energy =                       -387.1346601489765362
  Basis Set: 6-31G*
  Basis Set:
  Basis Set: 6-31G*
  Basis Set:
  @DF-RHF Final Energy:  -387.13467485906006
    Total Energy =                       -387.1346748590600555
  Basis Set: 6-31G*
  Basis Set:
  Charge       = 0
  Multiplicity = 1
  Basis Set: 6-31G*
  Basis Set:

    Orbital Energies (a.u.)
    -----------------------

    Doubly Occupied:

       1A    -20.547780     2A    -11.325419     3A    -11.229857
       4A    -11.228578     5A    -11.224243     6A    -11.219449
       7A    -11.216988     8A    -11.215855     9A    -11.209625
      10A     -1.393831    11A     -1.095899    12A     -1.056950
      13A     -1.013867    14A     -0.970367    15A     -0.892021
      16A     -0.815746    17A     -0.793182    18A     -0.731419
      19A     -0.665243    20A     -0.648183    21A     -0.635939
      22A     -0.613145    23A     -0.600697    24A     -0.585880
      25A     -0.568090    26A     -0.559735    27A     -0.540695
      28A     -0.535173    29A     -0.510865    30A     -0.494513
      31A     -0.487870    32A     -0.473550    33A     -0.465883
      34A     -0.464749    35A     -0.451178    36A     -0.396374

  @DF-RHF Final Energy:  -387.13467532606268

   => Energetics <=

    Nuclear Repulsion Energy =            438.4934425552974631
    One-Electron Energy =               -1393.4985615176906322
    Two-Electron Energy =                 567.8704436363295827
    DFT Exchange-Correlation Energy =       0.0000000000000000
    Empirical Dispersion Energy =           0.0000000000000000
    PCM Polarization Energy =               0.0000000000000000
    EFP Energy =                            0.0000000000000000
    Total Energy =                       -387.1346753260636433
    Molecular point group: c1
  Basis Set: 6-31G*
  Basis Set:

  -Total Gradient:
     Atom            X                  Y                   Z
    ------   -----------------  -----------------  -----------------
       1        0.000322372424    -0.000479221734     0.000429553273
       2       -0.000401153861     0.000602174399    -0.000451221487
       3       -0.000267516235     0.000400771255    -0.000294900438
       4        0.000017492440    -0.000075100627     0.000032985783
       5        0.000015478072     0.000010302702    -0.000063723783
       6        0.000321126209    -0.000518415580     0.000386014100
       7        0.000018418537    -0.000024230787    -0.000021965627
       8        0.000001747735    -0.000023982594     0.000016975309
       9        0.000013508480     0.000016562087    -0.000021401784
      10       -0.000008497576     0.000052845856    -0.000010556065
      11        0.000011575642    -0.000001519014     0.000035864703
      12       -0.000006216909     0.000020495012    -0.000017568600
      13        0.000001887458    -0.000037025915    -0.000004084150
      14       -0.000000411346     0.000000647585     0.000011641370
      15        0.000005735430    -0.000009610330    -0.000005004719
      16       -0.000010440443     0.000021204327     0.000007087267
      17        0.000001044746    -0.000000327748     0.000004069410
      18        0.000002450348    -0.000001859065    -0.000009911564
      19       -0.000002003857    -0.000005216050     0.000004824811
      20       -0.000000371349     0.000002600717    -0.000009112025
      21       -0.000009526097    -0.000004580006     0.000001309204
      22       -0.000000178320     0.000005978339     0.000008242199
      23       -0.000014137704     0.000016619884    -0.000037751122
      24        0.000000990815     0.000015014641     0.000007333407
      25       -0.000013374640     0.000015872644     0.000001300526

  **** Optimization is complete! (in 6 steps) ****
    Final optimized geometry and variables:
    Molecular point group: c1

    Geometry (in Angstrom), charge = 0, multiplicity = 1:

    O            3.026040062591     0.929931899477     0.909147534767
    C            2.843065064466     0.141605632344     0.032054371685
    C            1.564258861361    -0.680883548288    -0.020563242189
    C            3.867504021039    -0.087544374513    -1.055528313208
    C            0.310269480935     0.201260494878    -0.021820413700
    H            1.570421823429    -1.341717578261    -0.882280592013
    H            1.560835349485    -1.313189568097     0.864112055760
    C           -0.983420518208    -0.613411355093     0.012173707252
    H            0.315364253180     0.835018481301    -0.906734510068
    H            0.355550450588     0.864791121944     0.834652843532
    C           -2.239537063421     0.259544395778     0.019298784014
    H           -1.014803022703    -1.282109768590    -0.846536067348
    H           -0.982705347693    -1.250300724232     0.895038337268
    C           -3.537364515348    -0.549218455608     0.061416101631
    H           -2.241619573881     0.895121781720    -0.864710640795
    H           -2.206207254251     0.930157182462     0.876014190644
    C           -4.788058201174     0.329054869293     0.068311878206
    H           -3.572084158965    -1.219483770723    -0.794964168047
    H           -3.537446997372    -1.183595384908     0.945242997651
    H           -4.835225306482     0.951208082275    -0.821040349932
    H           -5.691222267746    -0.272561513643     0.099075221108
    H           -4.799718289579     0.987639379519     0.932145598614
    H            3.431218949711     0.121528918554    -2.028706860473
    H            4.726488139335     0.549271403546    -0.896440752755
    H            4.179002995042    -1.128497362214    -1.062101011557

  Mulliken Charges: (a.u.)
   Center  Symbol    Alpha    Beta     Spin     Total
       1     O     4.26358  4.26358  0.00000 -0.52715
       2     C     2.73515  2.73515  0.00000  0.52969
       3     C     3.20417  3.20417  0.00000 -0.40834
       4     C     3.28909  3.28909  0.00000 -0.57818
       5     C     3.15744  3.15744  0.00000 -0.31489
       6     H     0.41613  0.41613  0.00000  0.16773
       7     H     0.40259  0.40259  0.00000  0.19482
       8     C     3.15288  3.15288  0.00000 -0.30576
       9     H     0.42089  0.42089  0.00000  0.15822
      10     H     0.40284  0.40284  0.00000  0.19432
      11     C     3.15138  3.15138  0.00000 -0.30276
      12     H     0.42418  0.42418  0.00000  0.15164
      13     H     0.42179  0.42179  0.00000  0.15641
      14     C     3.15173  3.15173  0.00000 -0.30346
      15     H     0.42361  0.42361  0.00000  0.15278
      16     H     0.42135  0.42135  0.00000  0.15729
      17     C     3.23944  3.23944  0.00000 -0.47888
      18     H     0.42347  0.42347  0.00000  0.15306
      19     H     0.42260  0.42260  0.00000  0.15479
      20     H     0.42171  0.42171  0.00000  0.15659
      21     H     0.41913  0.41913  0.00000  0.16174
      22     H     0.42097  0.42097  0.00000  0.15806
      23     H     0.40852  0.40852  0.00000  0.18296
      24     H     0.39726  0.39726  0.00000  0.20548
      25     H     0.40808  0.40808  0.00000  0.18383

   Total alpha = 36.00000, Total beta = 36.00000, Total charge =  0.00000
