  ==> Input File <==

--------------------------------------------------------------------------
set {
	reference rhf
	basis 6-31G*
}

set_num_threads( 4 )
memory 2 gb

molecule MOL {
0 1

H	 1.693583	 -0.994824	 0.920885
C	 0.825124	 -1.094776	 0.284415
O	 0.000000	 0.000000	 0.521119
H	 1.151592	 -1.131000	 -0.753754
H	 0.322101	 -2.031471	 0.519491
C	 -1.165642	 0.000000	 -0.238270
H	 -1.228672	 0.883184	 -0.872070
H	 -2.003012	 0.000000	 0.445920
H	 -1.228672	 -0.883184	 -0.872070

	symmetry c1
}
set optking {
	frozen_dihedral = ("
		2 3 6 7
	")
}

ee = optimize('scf')
oeprop('DIPOLE', 'QUADRUPOLE', 'MULLIKEN_CHARGES')
f=open( 'psi4out.xyz', 'w' )
f.write( "9  " )
f.write( str(ee) + "\n" )
f.write( MOL.save_string_xyz() )
f.close()
--------------------------------------------------------------------------

    Molecular point group: c1
  Charge       = 0
  Multiplicity = 1
  Basis Set: 6-31G*
  Basis Set:
  @DF-RHF Final Energy:  -154.05998946531625
    Total Energy =                       -154.0599894653161641
    Molecular point group: c1
  Basis Set: 6-31G*
  Basis Set:
  Basis Set: 6-31G*
  Basis Set:
  @DF-RHF Final Energy:  -154.06042254043666
    Total Energy =                       -154.0604225404366900
  Basis Set: 6-31G*
  Basis Set:
  Basis Set: 6-31G*
  Basis Set:
  @DF-RHF Final Energy:  -154.06053126878189
    Total Energy =                       -154.0605312687820287
  Basis Set: 6-31G*
  Basis Set:
  Charge       = 0
  Multiplicity = 1
  Basis Set: 6-31G*
  Basis Set:

    Orbital Energies (a.u.)
    -----------------------

    Doubly Occupied:

       1A    -20.551975     2A    -11.265646     3A    -11.264622
       4A     -1.373684     5A     -0.974882     6A     -0.872833
       7A     -0.656036     8A     -0.653171     9A     -0.642589
      10A     -0.559341    11A     -0.527934    12A     -0.472755
      13A     -0.411321

  @DF-RHF Final Energy:  -154.06053192538630

   => Energetics <=

    Nuclear Repulsion Energy =             84.4638493914335129
    One-Electron Energy =                -376.5951855795894971
    Two-Electron Energy =                 138.0708042627696273
    DFT Exchange-Correlation Energy =       0.0000000000000000
    Empirical Dispersion Energy =           0.0000000000000000
    PCM Polarization Energy =               0.0000000000000000
    EFP Energy =                            0.0000000000000000
    Total Energy =                       -154.0605319253863286
    Molecular point group: c1
  Basis Set: 6-31G*
  Basis Set:

  -Total Gradient:
     Atom            X                  Y                   Z
    ------   -----------------  -----------------  -----------------
       1        0.000037330739    -0.000046276722    -0.000000236474
       2        0.000126343772    -0.000029496589     0.000085752430
       3       -0.000082013398     0.000015376241    -0.000102150987
       4       -0.000037174819     0.000003800148     0.000008887365
       5       -0.000037902136     0.000057315442    -0.000012252953
       6        0.000049523089    -0.000033334168    -0.000006365666
       7       -0.000037273459     0.000031122284     0.000042069208
       8       -0.000010432905     0.000001775999    -0.000007175759
       9       -0.000008400882    -0.000000282636    -0.000008527164

  **** Optimization is complete! (in 4 steps) ****
    Final optimized geometry and variables:
    Molecular point group: c1

    Geometry (in Angstrom), charge = 0, multiplicity = 1:

    H            1.821915614230    -0.597315988403     0.746998838522
    C            0.957118660172    -0.720198433860     0.109294686415
    O            0.117942100546     0.368205962454     0.331365366590
    H            1.290324633083    -0.767243428215    -0.925653896350
    H            0.470227058727    -1.660952269484     0.358720043786
    C           -1.065321154292     0.383845609609    -0.412362392994
    H           -1.097835259078     1.276000779212    -1.028751910617
    H           -1.917619243912     0.394204440758     0.258665371534
    H           -1.150490966556    -0.483493902872    -1.060412018782

  Mulliken Charges: (a.u.)
   Center  Symbol    Alpha    Beta     Spin     Total
       1     H     0.41277  0.41277  0.00000  0.17446
       2     C     3.07875  3.07875  0.00000 -0.15750
       3     O     4.30061  4.30061  0.00000 -0.60121
       4     H     0.43009  0.43009  0.00000  0.13982
       5     H     0.43008  0.43008  0.00000  0.13985
       6     C     3.07742  3.07742  0.00000 -0.15485
       7     H     0.42019  0.42019  0.00000  0.15962
       8     H     0.42003  0.42003  0.00000  0.15993
       9     H     0.43006  0.43006  0.00000  0.13988

   Total alpha = 13.00000, Total beta = 13.00000, Total charge = -0.00000
