                              Psi4 1.0.54 Driver

  ==> Input File <==

--------------------------------------------------------------------------
set {
	reference rhf
	basis cc-pvtz
}

set_num_threads( 4 )
memory 2 gb

molecule MOL {
0 1

H	 1.961958	 -0.885064	 1.192148
C	 1.948180	 -0.217873	 0.320185
C	 0.692262	 0.592428	 0.156232
O	 2.877610	 -0.179052	 -0.409394
C	 -0.554654	 -0.292621	 0.086567
H	 0.791858	 1.203694	 -0.731051
H	 0.617379	 1.254358	 1.016534
C	 -1.846385	 0.513195	 -0.016346
H	 -0.473986	 -0.956115	 -0.769708
H	 -0.597929	 -0.929215	 0.966651
C	 -3.089953	 -0.365049	 -0.098564
H	 -1.798267	 1.154820	 -0.891143
H	 -1.925398	 1.173265	 0.842889
H	 -3.055079	 -1.012299	 -0.968245
H	 -3.988403	 0.236438	 -0.170014
H	 -3.183055	 -0.995885	 0.779079

	symmetry c1
}
set optking {
	frozen_dihedral = ("
		4 2 3 6
	")
}

ee,wfn = optimize('scf', return_wfn=True)
oeprop( wfn, 'DIPOLE', 'QUADRUPOLE', 'MULLIKEN_CHARGES')
f=open( 'psi4out.xyz', 'w' )
f.write( "16  " )
f.write( str(ee) + "\n" )
f.write( MOL.save_string_xyz() )
f.close()
--------------------------------------------------------------------------

    Molecular point group: c1
  Charge       = 0
  Multiplicity = 1
  Basis Set: CC-PVTZ
  Basis Set:
  @DF-RHF Final Energy:  -270.11924497565667
    Total Energy =                       -270.1192449756566702
    Molecular point group: c1
  Basis Set: CC-PVTZ
  Basis Set:
  Basis Set: CC-PVTZ
  Basis Set:
  @DF-RHF Final Energy:  -270.11924207975227
    Total Energy =                       -270.1192420797523823
  Basis Set: CC-PVTZ
  Basis Set:
  Charge       = 0
  Multiplicity = 1
  Basis Set: CC-PVTZ
  Basis Set:

    Orbital Energies (a.u.)
    -----------------------

    Doubly Occupied:

       1A    -20.552077     2A    -11.321323     3A    -11.234673
       4A    -11.233982     5A    -11.227533     6A    -11.216728
       7A     -1.406856     8A     -1.098003     9A     -1.020217
      10A     -0.906859    11A     -0.812609    12A     -0.794110
      13A     -0.680870    14A     -0.649347    15A     -0.634254
      16A     -0.604590    17A     -0.582909    18A     -0.552326
      19A     -0.530325    20A     -0.510108    21A     -0.488702
      22A     -0.483145    23A     -0.480181    24A     -0.411585

  @DF-RHF Final Energy:  -270.11924510538256

   => Energetics <=

    Nuclear Repulsion Energy =            229.3469323210620416
    One-Electron Energy =                -820.0657351012382605
    Two-Electron Energy =                 320.5995576747936866
    DFT Exchange-Correlation Energy =       0.0000000000000000
    Empirical Dispersion Energy =           0.0000000000000000
    PCM Polarization Energy =               0.0000000000000000
    EFP Energy =                            0.0000000000000000
    Total Energy =                       -270.1192451053825607
    Molecular point group: c1
  Basis Set: CC-PVTZ
  Basis Set:

  -Total Gradient:
     Atom            X                  Y                   Z
    ------   -----------------  -----------------  -----------------
       1       -0.000001456641     0.000000121596    -0.000000452095
       2       -0.000051853738    -0.000081465084    -0.000061093710
       3        0.000065819073     0.000105931148     0.000079070035
       4        0.000031362731     0.000045339250     0.000033382355
       5       -0.000009881155    -0.000012640000    -0.000007106950
       6       -0.000027778363    -0.000051345505    -0.000036687845
       7       -0.000001545336    -0.000004252200    -0.000006845425
       8       -0.000003030304    -0.000002972958     0.000006654659
       9       -0.000005237612    -0.000003432178    -0.000002438842
      10        0.000004453261     0.000005706865    -0.000001365571
      11       -0.000001317700     0.000000585361    -0.000006124252
      12       -0.000000136675    -0.000000157418     0.000001903136
      13        0.000001289807    -0.000000771314     0.000001775892
      14       -0.000000458685    -0.000002394561     0.000000235779
      15       -0.000000299075    -0.000000369366    -0.000001946930
      16        0.000000070413     0.000002116364     0.000001039763

  **** Optimization is complete! (in 3 steps) ****
    Final optimized geometry and variables:
    Molecular point group: c1

    Geometry (in Angstrom), charge = 0, multiplicity = 1:

    H            1.961873364284    -0.885244742138     1.191968121166
    C            1.947472219863    -0.219622174377     0.318810538137
    C            0.691410511541     0.590390369060     0.154355194464
    O            2.876898439166    -0.181074849431    -0.410798706297
    C           -0.555771410252    -0.294309465678     0.085429326577
    H            0.791005421505     1.201103006112    -0.733308129798
    H            0.617001955169     1.252877727331     1.014270002061
    C           -1.847383207639     0.511775226157    -0.016807925819
    H           -0.475876400808    -0.957945800037    -0.770848552366
    H           -0.598670248582    -0.930810863873     0.965584281821
    C           -3.091086310698    -0.366213815455    -0.099738640623
    H           -1.799207351222     1.154094084003    -0.891094465965
    H           -1.926273116459     1.171196668212     0.842946995545
    H           -3.055935445518    -1.013394905499    -0.969469737177
    H           -3.989370489271     0.235472199763    -0.171572205319
    H           -3.184752747960    -0.997113878433     0.777801595339

  Mulliken Charges: (a.u.)
   Center  Symbol    Alpha    Beta     Spin     Total
       1     H     0.46541  0.46541  0.00000  0.06918
       2     C     2.90927  2.90927  0.00000  0.18146
       3     C     3.07664  3.07664  0.00000 -0.15329
       4     O     4.16409  4.16409  0.00000 -0.32818
       5     C     3.10229  3.10229  0.00000 -0.20459
       6     H     0.44239  0.44239  0.00000  0.11521
       7     H     0.45005  0.45005  0.00000  0.09989
       8     C     3.08463  3.08463  0.00000 -0.16926
       9     H     0.44586  0.44586  0.00000  0.10829
      10     H     0.45199  0.45199  0.00000  0.09602
      11     C     3.14905  3.14905  0.00000 -0.29811
      12     H     0.45065  0.45065  0.00000  0.09871
      13     H     0.45328  0.45328  0.00000  0.09345
      14     H     0.45322  0.45322  0.00000  0.09356
      15     H     0.44663  0.44663  0.00000  0.10674
      16     H     0.45454  0.45454  0.00000  0.09091

   Total alpha = 24.00000, Total beta = 24.00000, Total charge =  0.00000

*** Psi4 exiting successfully. Buy a developer a beer!
