                              Psi4 1.0.54 Driver

  ==> Input File <==

--------------------------------------------------------------------------
set {
	reference rhf
	basis cc-pvtz
}

set_num_threads( 4 )
memory 2 gb

molecule MOL {
0 1

O	 0.749630	 1.305591	 -0.000460
C	 0.576499	 0.134701	 -0.003900
C	 -0.765656	 -0.550508	 -0.002152
O	 1.564816	 -0.744612	 -0.000631
C	 -1.945526	 0.411052	 0.000603
H	 -0.794329	 -1.203792	 -0.868145
H	 -0.791555	 -1.205429	 0.862701
C	 -3.282915	 -0.321280	 0.002596
H	 -1.880300	 1.059126	 -0.864925
H	 -1.877207	 1.057892	 0.866807
H	 -3.388495	 -0.952755	 -0.873419
H	 -4.107811	 0.380864	 0.004116
H	 -3.385717	 -0.953283	 0.878571
C	 2.201059	 -1.010384	 -1.234556
H	 1.495041	 -1.404802	 -1.950116
H	 2.964908	 -1.740930	 -1.023542
H	 2.645085	 -0.111566	 -1.635817

	symmetry c1
}
set optking {
	frozen_dihedral = ("
		14 4 2 1
	")
}

ee,wfn = optimize('scf', return_wfn=True)
oeprop( wfn, 'DIPOLE', 'QUADRUPOLE', 'MULLIKEN_CHARGES')
f=open( 'psi4out.xyz', 'w' )
f.write( "17  " )
f.write( str(ee) + "\n" )
f.write( MOL.save_string_xyz() )
f.close()
--------------------------------------------------------------------------

    Molecular point group: c1
  Charge       = 0
  Multiplicity = 1
  Basis Set: CC-PVTZ
  Basis Set:
  @DF-RHF Final Energy:  -345.01613680050411
    Total Energy =                       -345.0161368005041140
    Molecular point group: c1
  Basis Set: CC-PVTZ
  Basis Set:
  Basis Set: CC-PVTZ
  Basis Set:
  @DF-RHF Final Energy:  -344.95630092577744
    Total Energy =                       -344.9563009257768726
  Basis Set: CC-PVTZ
  Basis Set:
  Basis Set: CC-PVTZ
  Basis Set:
  @DF-RHF Final Energy:  -345.01185780082460
    Total Energy =                       -345.0118578008248846
  Basis Set: CC-PVTZ
  Basis Set:
  Basis Set: CC-PVTZ
  Basis Set:
  @DF-RHF Final Energy:  -345.01713666164034
    Total Energy =                       -345.0171366616399951
  Basis Set: CC-PVTZ
  Basis Set:
  Basis Set: CC-PVTZ
  Basis Set:
  @DF-RHF Final Energy:  -345.01686719358042
    Total Energy =                       -345.0168671935804241
  Basis Set: CC-PVTZ
  Basis Set:
  Basis Set: CC-PVTZ
  Basis Set:
  @DF-RHF Final Energy:  -345.01737786852499
    Total Energy =                       -345.0173778685249886
  Basis Set: CC-PVTZ
  Basis Set:
  Basis Set: CC-PVTZ
  Basis Set:
  @DF-RHF Final Energy:  -345.01738416242540
    Total Energy =                       -345.0173841624250599
  Basis Set: CC-PVTZ
  Basis Set:
  Charge       = 0
  Multiplicity = 1
  Basis Set: CC-PVTZ
  Basis Set:

    Orbital Energies (a.u.)
    -----------------------

    Doubly Occupied:

       1A    -20.578446     2A    -20.545969     3A    -11.368063
       4A    -11.287837     5A    -11.238294     6A    -11.222913
       7A    -11.215216     8A     -1.462465     9A     -1.369769
      10A     -1.082704    11A     -0.993420    12A     -0.950243
      13A     -0.834388    14A     -0.766688    15A     -0.701522
      16A     -0.681712    17A     -0.675448    18A     -0.634550
      19A     -0.618327    20A     -0.579587    21A     -0.566347
      22A     -0.538574    23A     -0.520361    24A     -0.499426
      25A     -0.492979    26A     -0.482207    27A     -0.456632
      28A     -0.438461

  @DF-RHF Final Energy:  -345.01738507749945

   => Energetics <=

    Nuclear Repulsion Energy =            312.7748774197094122
    One-Electron Energy =               -1089.9794251452949538
    Two-Electron Energy =                 432.1871626480861437
    DFT Exchange-Correlation Energy =       0.0000000000000000
    Empirical Dispersion Energy =           0.0000000000000000
    PCM Polarization Energy =               0.0000000000000000
    EFP Energy =                            0.0000000000000000
    Total Energy =                       -345.0173850774994548
    Molecular point group: c1
  Basis Set: CC-PVTZ
  Basis Set:

  -Total Gradient:
     Atom            X                  Y                   Z
    ------   -----------------  -----------------  -----------------
       1        0.001331165745     0.000494569623     0.004726217670
       2       -0.002948010342    -0.002339690589    -0.006761980941
       3        0.000015275447     0.000049720649    -0.000044058303
       4        0.003769359258     0.005094230888     0.001733868223
       5        0.000024471859    -0.000031288288     0.000086406106
       6        0.000022620931    -0.000012822073    -0.000014296189
       7       -0.000010517726    -0.000015361817     0.000005182953
       8       -0.000032582304     0.000040437213    -0.000064273558
       9       -0.000006831425     0.000011801575    -0.000018141202
      10       -0.000005233997     0.000019282939    -0.000003941495
      11        0.000008125865    -0.000020484524     0.000007779048
      12        0.000014166858    -0.000000109097    -0.000000204957
      13        0.000013234303    -0.000016199568     0.000025848719
      14       -0.002237605169    -0.003249761955     0.000254731464
      15        0.000079446935     0.000024626188     0.000025059769
      16       -0.000031734276    -0.000000480102    -0.000003552771
      17       -0.000005351961    -0.000048471065     0.000045355464

  **** Optimization is complete! (in 8 steps) ****
    Final optimized geometry and variables:
    Molecular point group: c1

    Geometry (in Angstrom), charge = 0, multiplicity = 1:

    O            0.642987027359     1.502518416469    -0.230730605419
    C            0.638702504735     0.334606052370    -0.089336375066
    C           -0.520696984044    -0.472473532366     0.431810551904
    O            1.740784337411    -0.413255902328    -0.310092415780
    C           -1.770247839660     0.343878805174     0.727841499035
    H           -0.725586820349    -1.254754174149    -0.294196630770
    H           -0.165509401897    -0.987799688714     1.319039464937
    C           -2.909670220605    -0.517988256351     1.260536216411
    H           -2.084961150524     0.855753113990    -0.174026360599
    H           -1.526553932323     1.119053899465     1.444076335598
    H           -3.193168394782    -1.284226839247     0.546302054676
    H           -3.787060934493     0.083959626298     1.463543870079
    H           -2.629690935569    -1.015305681192     2.183370550926
    C            2.034910405078    -0.725825227405    -1.653053642416
    H            1.245861112471    -1.326241392575    -2.092669503682
    H            2.949474437900    -1.296099395915    -1.647088293783
    H            2.173596099180     0.175206484041    -2.235525318641

  Mulliken Charges: (a.u.)
   Center  Symbol    Alpha    Beta     Spin     Total
       1     O     4.17094  4.17094  0.00000 -0.34188
       2     C     2.79008  2.79008  0.00000  0.41985
       3     C     3.10847  3.10847  0.00000 -0.21694
       4     O     4.16991  4.16991  0.00000 -0.33982
       5     C     3.07995  3.07995  0.00000 -0.15990
       6     H     0.44524  0.44524  0.00000  0.10953
       7     H     0.43793  0.43793  0.00000  0.12414
       8     C     3.15033  3.15033  0.00000 -0.30065
       9     H     0.44769  0.44769  0.00000  0.10463
      10     H     0.44467  0.44467  0.00000  0.11066
      11     H     0.45640  0.45640  0.00000  0.08720
      12     H     0.44513  0.44513  0.00000  0.10974
      13     H     0.45508  0.45508  0.00000  0.08985
      14     C     3.03461  3.03461  0.00000 -0.06921
      15     H     0.46778  0.46778  0.00000  0.06444
      16     H     0.44376  0.44376  0.00000  0.11248
      17     H     0.45205  0.45205  0.00000  0.09591

   Total alpha = 28.00000, Total beta = 28.00000, Total charge = -0.00000

*** Psi4 exiting successfully. Buy a developer a beer!
