  ==> Input File <==

--------------------------------------------------------------------------
set {
	reference rhf
	basis 6-31G*
}

set_num_threads( 4 )
memory 2 gb

molecule MOL {
0 1

O	 -2.439739	 -0.935931	 -0.423848
C	 -1.921153	 0.064240	 -0.045697
C	 -2.624470	 1.379923	 0.150949
O	 -0.632575	 0.154573	 0.251549
H	 -2.168117	 2.136577	 -0.476876
H	 -3.669540	 1.273223	 -0.098610
H	 -2.519365	 1.700893	 1.180846
C	 0.160891	 -1.019931	 0.106212
C	 1.589627	 -0.672828	 0.480843
H	 0.089836	 -1.367806	 -0.916050
H	 -0.238459	 -1.792301	 0.749618
C	 2.246377	 0.346236	 -0.452210
H	 2.163194	 -1.597435	 0.473358
H	 1.604769	 -0.303424	 1.502885
C	 1.276931	 1.437844	 -0.903395
H	 3.094016	 0.802482	 0.055183
H	 2.645504	 -0.167366	 -1.320698
H	 1.765726	 2.146728	 -1.564149
H	 0.885317	 1.992230	 -0.055119
H	 0.432242	 1.014634	 -1.439559

	symmetry c1
}
set optking {
	frozen_dihedral = ("
		16 12 9 8
	")
}

ee = optimize('scf')
oeprop('DIPOLE', 'QUADRUPOLE', 'MULLIKEN_CHARGES')
f=open( 'psi4out.xyz', 'w' )
f.write( "20  " )
f.write( str(ee) + "\n" )
f.write( MOL.save_string_xyz() )
f.close()
--------------------------------------------------------------------------

    Molecular point group: c1
  Charge       = 0
  Multiplicity = 1
  Basis Set: 6-31G*
  Basis Set:
  @DF-RHF Final Energy:  -383.93136526251885
    Total Energy =                       -383.9313652625189661
    Molecular point group: c1
  Basis Set: 6-31G*
  Basis Set:
  Basis Set: 6-31G*
  Basis Set:
  @DF-RHF Final Energy:  -383.93744689050260
    Total Energy =                       -383.9374468905027697
  Basis Set: 6-31G*
  Basis Set:
  Basis Set: 6-31G*
  Basis Set:
  @DF-RHF Final Energy:  -383.93916108065099
    Total Energy =                       -383.9391610806511608
  Basis Set: 6-31G*
  Basis Set:
  Basis Set: 6-31G*
  Basis Set:
  @DF-RHF Final Energy:  -383.93969212486559
    Total Energy =                       -383.9396921248655872
  Basis Set: 6-31G*
  Basis Set:
  @DF-RHF Final Energy:  -383.93930493919999
    Total Energy =                       -383.9393049392000421
  @DF-RHF Final Energy:  -383.93997247300729
    Total Energy =                       -383.9399724730068328
  @DF-RHF Final Energy:  -383.94001770912064
    Total Energy =                       -383.9400177091208661
  @DF-RHF Final Energy:  -383.94002348220732
    Total Energy =                       -383.9400234822073799
  @DF-RHF Final Energy:  -383.94002680360052
    Total Energy =                       -383.9400268036005173
  Basis Set: 6-31G*
  Basis Set:
  @DF-RHF Final Energy:  -383.94003144293475
    Total Energy =                       -383.9400314429348100
  Basis Set: 6-31G*
  Basis Set:
  Basis Set: 6-31G*
  Basis Set:
  @DF-RHF Final Energy:  -383.94002904318194
    Total Energy =                       -383.9400290431819940
  Basis Set: 6-31G*
  Basis Set:
  Basis Set: 6-31G*
  Basis Set:
  @DF-RHF Final Energy:  -383.94003218470948
    Total Energy =                       -383.9400321847093664
  Basis Set: 6-31G*
  Basis Set:
  Charge       = 0
  Multiplicity = 1
  Basis Set: 6-31G*
  Basis Set:

    Orbital Energies (a.u.)
    -----------------------

    Doubly Occupied:

       1A    -20.601788     2A    -20.544185     3A    -11.374571
       4A    -11.282628     5A    -11.233399     6A    -11.226241
       7A    -11.222949     8A    -11.209645     9A     -1.468257
      10A     -1.362393    11A     -1.083246    12A     -1.026420
      13A     -0.979007    14A     -0.891633    15A     -0.796981
      16A     -0.778465    17A     -0.689864    18A     -0.687519
      19A     -0.665128    20A     -0.624099    21A     -0.609553
      22A     -0.584199    23A     -0.571112    24A     -0.554638
      25A     -0.548703    26A     -0.528640    27A     -0.514624
      28A     -0.480495    29A     -0.475543    30A     -0.467359
      31A     -0.445979    32A     -0.437951

  @DF-RHF Final Energy:  -383.94003173670245

   => Energetics <=

    Nuclear Repulsion Energy =            394.9321541948772278
    One-Electron Energy =               -1305.8099416248223861
    Two-Electron Energy =                 526.9377556932425932
    DFT Exchange-Correlation Energy =       0.0000000000000000
    Empirical Dispersion Energy =           0.0000000000000000
    PCM Polarization Energy =               0.0000000000000000
    EFP Energy =                            0.0000000000000000
    Total Energy =                       -383.9400317367025082
    Molecular point group: c1
  Basis Set: 6-31G*
  Basis Set:

  -Total Gradient:
     Atom            X                  Y                   Z
    ------   -----------------  -----------------  -----------------
       1       -0.000075305272    -0.000057259658     0.000059913866
       2        0.000267040632     0.000177701124    -0.000184313544
       3       -0.000063837867    -0.000020619333     0.000061563425
       4       -0.000176715373    -0.000137063230     0.000027401032
       5        0.000012196797    -0.000023772334    -0.000005445199
       6       -0.000022888003     0.000019395959     0.000014226754
       7       -0.000011207423     0.000003591043    -0.000002035966
       8       -0.001391575707     0.003154424575     0.001856228077
       9        0.001497961610    -0.003581677526    -0.002306774494
      10       -0.000015219776    -0.000018786780     0.000015720870
      11       -0.000006119746     0.000021457248    -0.000005169719
      12        0.002890306799    -0.003512964557    -0.000722936793
      13        0.000168335156     0.000050293239    -0.000047181348
      14       -0.000148321434    -0.000065854793    -0.000004535820
      15        0.000036353424     0.000126548746    -0.000063337405
      16       -0.003021956816     0.003856726462     0.001112678634
      17        0.000070549068    -0.000032993714     0.000097825942
      18       -0.000066951080    -0.000075289503     0.000017524065
      19       -0.000011670032     0.000030831210     0.000024934851
      20        0.000069025048     0.000085311827     0.000053712770

  **** Optimization is complete! (in 13 steps) ****
    Final optimized geometry and variables:
    Molecular point group: c1

    Geometry (in Angstrom), charge = 0, multiplicity = 1:

    O           -2.154481630736    -1.044626948558    -0.382373302864
    C           -1.689245487727    -0.067195246565     0.108315477054
    C           -2.461082607262     1.180318371914     0.444068521612
    O           -0.409453126017     0.053812255649     0.430623594104
    H           -2.049686036129     2.022028682742    -0.101227579243
    H           -3.500368334310     1.044441983552     0.184594854905
    H           -2.366958947456     1.396493338084     1.501927640670
    C            0.442839019970    -1.057054719947     0.169821355232
    C            1.856305672434    -0.697882400340     0.602980598942
    H            0.385510846613    -1.310049490234    -0.880736643037
    H            0.076454041314    -1.905662062525     0.731572603029
    C            2.664710955546     0.211189177179    -0.341487735991
    H            2.405942568648    -1.624472370532     0.744601148831
    H            1.781154704490    -0.234914745040     1.582807991914
    C            1.894737776479     1.362295749365    -0.996338200491
    H            3.467349685631     0.656647815995     0.239508077080
    H            3.126517750487    -0.392674045823    -1.117926284900
    H            2.571295791771     1.962291876732    -1.597084347353
    H            1.442002788824     2.009492549525    -0.253390882327
    H            1.105439023780     1.008078488296    -1.649911596151

  Mulliken Charges: (a.u.)
   Center  Symbol    Alpha    Beta     Spin     Total
       1     O     4.28335  4.28335  0.00000 -0.56670
       2     C     2.61931  2.61931  0.00000  0.76139
       3     C     3.28195  3.28195  0.00000 -0.56390
       4     O     4.30716  4.30716  0.00000 -0.61432
       5     H     0.40036  0.40036  0.00000  0.19928
       6     H     0.39688  0.39688  0.00000  0.20624
       7     H     0.40071  0.40071  0.00000  0.19858
       8     C     3.00732  3.00732  0.00000 -0.01464
       9     C     3.16564  3.16564  0.00000 -0.33127
      10     H     0.40949  0.40949  0.00000  0.18102
      11     H     0.40826  0.40826  0.00000  0.18349
      12     C     3.15546  3.15546  0.00000 -0.31092
      13     H     0.41546  0.41546  0.00000  0.16908
      14     H     0.41250  0.41250  0.00000  0.17500
      15     C     3.23766  3.23766  0.00000 -0.47531
      16     H     0.41871  0.41871  0.00000  0.16258
      17     H     0.42078  0.42078  0.00000  0.15845
      18     H     0.42112  0.42112  0.00000  0.15775
      19     H     0.41667  0.41667  0.00000  0.16665
      20     H     0.42122  0.42122  0.00000  0.15756

   Total alpha = 32.00000, Total beta = 32.00000, Total charge = -0.00000
