  ==> Input File <==

--------------------------------------------------------------------------
set {
	reference rhf
	basis 6-31G*
}

set_num_threads( 4 )
memory 2 gb

molecule MOL {
0 1

H	 2.701158	 -0.996176	 0.020319
N	 2.332695	 -0.069570	 0.000000
C	 0.936681	 -0.007078	 0.000000
H	 2.768012	 0.497283	 0.695668
C	 0.227108	 -0.002120	 -1.198267
C	 0.227108	 -0.002120	 1.198267
H	 0.761569	 -0.014657	 -2.132680
C	 -1.156334	 0.010459	 -1.192360
H	 0.761569	 -0.014657	 2.132680
C	 -1.156334	 0.010459	 1.192360
H	 -1.684791	 0.014915	 -2.129421
C	 -1.862085	 0.017996	 0.000000
H	 -1.684791	 0.014915	 2.129421
H	 -2.936703	 0.028387	 0.000000

	symmetry c1
}
set optking {
	frozen_dihedral = ("
		1 2 3 5
	")
}

ee = optimize('scf')
oeprop('DIPOLE', 'QUADRUPOLE', 'MULLIKEN_CHARGES')
f=open( 'psi4out.xyz', 'w' )
f.write( "14  " )
f.write( str(ee) + "\n" )
f.write( MOL.save_string_xyz() )
f.close()
--------------------------------------------------------------------------

    Molecular point group: c1
  Charge       = 0
  Multiplicity = 1
  Basis Set: 6-31G*
  Basis Set:
  @DF-RHF Final Energy:  -285.72371877142086
    Total Energy =                       -285.7237187714212041
    Molecular point group: c1
  Basis Set: 6-31G*
  Basis Set:
  Basis Set: 6-31G*
  Basis Set:
  @DF-RHF Final Energy:  -285.72561304146359
    Total Energy =                       -285.7256130414633617
  Basis Set: 6-31G*
  Basis Set:
  Basis Set: 6-31G*
  Basis Set:
  @DF-RHF Final Energy:  -285.72589592527078
    Total Energy =                       -285.7258959252706632
  Basis Set: 6-31G*
  Basis Set:
  Basis Set: 6-31G*
  Basis Set:
  @DF-RHF Final Energy:  -285.72590851045180
    Total Energy =                       -285.7259085104516885
  Basis Set: 6-31G*
  Basis Set:
  @DF-RHF Final Energy:  -285.72590964501592
    Total Energy =                       -285.7259096450159177
  @DF-RHF Final Energy:  -285.72550871154186
    Total Energy =                       -285.7255087115422612
  @DF-RHF Final Energy:  -285.72513717514926
    Total Energy =                       -285.7251371751494844
  @DF-RHF Final Energy:  -285.72514456510964
    Total Energy =                       -285.7251445651096446
  @DF-RHF Final Energy:  -285.72546345044060
    Total Energy =                       -285.7254634504407136
  @DF-RHF Final Energy:  -285.72584591174217
    Total Energy =                       -285.7258459117425105
  Basis Set: 6-31G*
  Basis Set:
  @DF-RHF Final Energy:  -285.72589954808569
    Total Energy =                       -285.7258995480857493
  Basis Set: 6-31G*
  Basis Set:
  Basis Set: 6-31G*
  Basis Set:
  @DF-RHF Final Energy:  -285.72590807797826
    Total Energy =                       -285.7259080779782607
  Basis Set: 6-31G*
  Basis Set:
  Basis Set: 6-31G*
  Basis Set:
  @DF-RHF Final Energy:  -285.72590937587245
    Total Energy =                       -285.7259093758727317
  Basis Set: 6-31G*
  Basis Set:
  Charge       = 0
  Multiplicity = 1
  Basis Set: 6-31G*
  Basis Set:

    Orbital Energies (a.u.)
    -----------------------

    Doubly Occupied:

       1A    -15.550920     2A    -11.261832     3A    -11.229730
       4A    -11.228089     5A    -11.224611     6A    -11.223269
       7A    -11.219727     8A     -1.209455     9A     -1.126621
      10A     -1.011196    11A     -0.985588    12A     -0.827075
      13A     -0.806866    14A     -0.701183    15A     -0.665522
      16A     -0.646227    17A     -0.617555    18A     -0.589973
      19A     -0.581788    20A     -0.507500    21A     -0.498459
      22A     -0.489750    23A     -0.420897    24A     -0.331091
      25A     -0.313921

  @DF-RHF Final Energy:  -285.72590954261614

   => Energetics <=

    Nuclear Repulsion Energy =            272.4886081660567925
    One-Electron Energy =                -925.8913419822685000
    Two-Electron Energy =                 367.6768242735957983
    DFT Exchange-Correlation Energy =       0.0000000000000000
    Empirical Dispersion Energy =           0.0000000000000000
    PCM Polarization Energy =               0.0000000000000000
    EFP Energy =                            0.0000000000000000
    Total Energy =                       -285.7259095426159092
    Molecular point group: c1
  Basis Set: 6-31G*
  Basis Set:

  -Total Gradient:
     Atom            X                  Y                   Z
    ------   -----------------  -----------------  -----------------
       1        0.000056177427     0.000017032299     0.002921319653
       2       -0.000160002014     0.001202990797    -0.003607108814
       3        0.000149413103    -0.003519178337     0.000616397274
       4       -0.000000042259    -0.000068773339    -0.000049733136
       5        0.000079023242     0.002300711602     0.000104410546
       6       -0.000042128311     0.000070246307    -0.000020156597
       7       -0.000011398757    -0.000013888175     0.000039271938
       8       -0.000115216643     0.000000831179     0.000030612201
       9        0.000024359403     0.000018133792    -0.000005633797
      10       -0.000159963237    -0.000046834515    -0.000100190726
      11       -0.000009135774    -0.000002917568    -0.000008371392
      12        0.000189224485     0.000036321716     0.000091701526
      13       -0.000002822885     0.000006574050    -0.000008453201
      14        0.000002512220    -0.000001249808    -0.000004065475

  **** Optimization is complete! (in 14 steps) ****
    Final optimized geometry and variables:
    Molecular point group: c1

    Geometry (in Angstrom), charge = 0, multiplicity = 1:

    H            2.723266894838    -0.942713396269    -0.070647239722
    N            2.354831663950    -0.010735614236    -0.045123199527
    C            0.929196920433    -0.020002077814     0.001502966865
    H            2.735858813330     0.428159561744     0.769947253834
    C            0.226396008489    -0.006719100636    -1.196668223911
    C            0.221822637680     0.007297283410     1.196506747355
    H            0.777781817107     0.003161134673    -2.119028843879
    C           -1.157771414570     0.001703475900    -1.198257939139
    H            0.756298808797     0.005380153913     2.131426033744
    C           -1.164135811739     0.036677778306     1.193708981644
    H           -1.688577084633     0.005703369255    -2.133816555252
    C           -1.859889859726     0.026684004785    -0.002937412521
    H           -1.697226769026     0.061437384576     2.127635731398
    H           -2.934968126684     0.044592275203    -0.005392810700

  Mulliken Charges: (a.u.)
   Center  Symbol    Alpha    Beta     Spin     Total
       1     H     0.32305  0.32305  0.00000  0.35390
       2     N     3.93727  3.93727  0.00000 -0.87454
       3     C     2.89468  2.89468  0.00000  0.21063
       4     H     0.32614  0.32614  0.00000  0.34771
       5     C     3.10276  3.10276  0.00000 -0.20552
       6     C     3.11653  3.11653  0.00000 -0.23306
       7     H     0.39461  0.39461  0.00000  0.21079
       8     C     3.09764  3.09764  0.00000 -0.19529
       9     H     0.40402  0.40402  0.00000  0.19197
      10     C     3.09713  3.09713  0.00000 -0.19426
      11     H     0.39981  0.39981  0.00000  0.20038
      12     C     3.10539  3.10539  0.00000 -0.21077
      13     H     0.40012  0.40012  0.00000  0.19975
      14     H     0.40085  0.40085  0.00000  0.19830

   Total alpha = 25.00000, Total beta = 25.00000, Total charge = -0.00000
