                              Psi4 1.0.54 Driver

  ==> Input File <==

--------------------------------------------------------------------------
set {
	reference rhf
	basis cc-pvtz
}

set_num_threads( 4 )
memory 2 gb

molecule MOL {
0 1

H	 -2.425637	 -0.277999	 -0.759554
N	 -1.851927	 0.161443	 -0.071573
C	 -0.561396	 -0.500007	 0.035200
H	 -2.346620	 0.119795	 0.794961
C	 0.575129	 0.507849	 -0.048832
H	 -0.478089	 -1.200753	 -0.788956
H	 -0.456191	 -1.081816	 0.952176
C	 1.951750	 -0.141983	 0.035101
H	 0.478254	 1.061643	 -0.975981
H	 0.467676	 1.231891	 0.755499
H	 2.101550	 -0.848142	 -0.774949
H	 2.738260	 0.600794	 -0.026526
H	 2.078939	 -0.679792	 0.968824

	symmetry c1
}
set optking {
	frozen_dihedral = ("
		1 2 3 6
	")
}

ee,wfn = optimize('scf', return_wfn=True)
oeprop( wfn, 'DIPOLE', 'QUADRUPOLE', 'MULLIKEN_CHARGES')
f=open( 'psi4out.xyz', 'w' )
f.write( "13  " )
f.write( str(ee) + "\n" )
f.write( MOL.save_string_xyz() )
f.close()
--------------------------------------------------------------------------

    Molecular point group: c1
  Charge       = 0
  Multiplicity = 1
  Basis Set: CC-PVTZ
  Basis Set:
  @DF-RHF Final Energy:  -173.34949742573502
    Total Energy =                       -173.3494974257349952
    Molecular point group: c1
  Basis Set: CC-PVTZ
  Basis Set:
  Basis Set: CC-PVTZ
  Basis Set:
  @DF-RHF Final Energy:  -173.34990036002455
    Total Energy =                       -173.3499003600244919
  Basis Set: CC-PVTZ
  Basis Set:
  Basis Set: CC-PVTZ
  Basis Set:
  @DF-RHF Final Energy:  -173.35001870705815
    Total Energy =                       -173.3500187070582115
  Basis Set: CC-PVTZ
  Basis Set:
  Basis Set: CC-PVTZ
  Basis Set:
  @DF-RHF Final Energy:  -173.35002332220247
    Total Energy =                       -173.3500233222025599
  Basis Set: CC-PVTZ
  Basis Set:
  Charge       = 0
  Multiplicity = 1
  Basis Set: CC-PVTZ
  Basis Set:

    Orbital Energies (a.u.)
    -----------------------

    Doubly Occupied:

       1A    -15.524734     2A    -11.239045     3A    -11.204721
       4A    -11.204085     5A     -1.174964     6A     -1.034063
       7A     -0.899112     8A     -0.795320     9A     -0.676470
      10A     -0.614500    11A     -0.603431    12A     -0.573842
      13A     -0.517884    14A     -0.492057    15A     -0.485598
      16A     -0.463427    17A     -0.379296

  @DF-RHF Final Energy:  -173.35002417341224

   => Energetics <=

    Nuclear Repulsion Energy =            131.6201287165179679
    One-Electron Energy =                -494.1752070668494525
    Two-Electron Energy =                 189.2050541769192762
    DFT Exchange-Correlation Energy =       0.0000000000000000
    Empirical Dispersion Energy =           0.0000000000000000
    PCM Polarization Energy =               0.0000000000000000
    EFP Energy =                            0.0000000000000000
    Total Energy =                       -173.3500241734122085
    Molecular point group: c1
  Basis Set: CC-PVTZ
  Basis Set:

  -Total Gradient:
     Atom            X                  Y                   Z
    ------   -----------------  -----------------  -----------------
       1        0.000638527239     0.001000155375    -0.001127208607
       2       -0.000997900600    -0.001471318465     0.001583869538
       3        0.000959194260     0.001553535457    -0.001318262285
       4        0.000007305839     0.000008650050     0.000019489923
       5       -0.000063388068    -0.000066107778     0.000049137247
       6       -0.000590990407    -0.001045003930     0.000808414142
       7        0.000028081630     0.000013948512     0.000005539804
       8        0.000016775256     0.000023278920    -0.000021413475
       9       -0.000006586293    -0.000015467248     0.000007454106
      10       -0.000007069941    -0.000004985482    -0.000004806605
      11       -0.000007460736     0.000002783790     0.000008804871
      12        0.000031553210    -0.000011565750    -0.000001586482
      13       -0.000008041382     0.000012096550    -0.000009432178

  **** Optimization is complete! (in 5 steps) ****
    Final optimized geometry and variables:
    Molecular point group: c1

    Geometry (in Angstrom), charge = 0, multiplicity = 1:

    H           -2.435700946360    -0.275079260256    -0.791151291775
    N           -1.858406477718     0.158016750871    -0.106446721409
    C           -0.556287979747    -0.488904076064     0.008955152964
    H           -2.353786828897     0.173353153164     0.756638748031
    C            0.584717493146     0.519166083743    -0.018558037837
    H           -0.433999685805    -1.196953460674    -0.804595316953
    H           -0.489537232661    -1.076431660037     0.922341934114
    C            1.956934769111    -0.133696861549     0.105177847865
    H            0.521855839220     1.086945200220    -0.940732020375
    H            0.439913353634     1.231420111669     0.788213915037
    H            2.135661895940    -0.831455362491    -0.706864164011
    H            2.747031964838     0.607527285410     0.080709877596
    H            2.050519795886    -0.683285006914     1.036451639724

  Mulliken Charges: (a.u.)
   Center  Symbol    Alpha    Beta     Spin     Total
       1     H     0.42467  0.42467  0.00000  0.15066
       2     N     3.69869  3.69869  0.00000 -0.39739
       3     C     3.03818  3.03818  0.00000 -0.07635
       4     H     0.42667  0.42667  0.00000  0.14666
       5     C     3.06143  3.06143  0.00000 -0.12286
       6     H     0.45755  0.45755  0.00000  0.08491
       7     H     0.46130  0.46130  0.00000  0.07740
       8     C     3.15574  3.15574  0.00000 -0.31148
       9     H     0.45532  0.45532  0.00000  0.08936
      10     H     0.45853  0.45853  0.00000  0.08295
      11     H     0.45699  0.45699  0.00000  0.08601
      12     H     0.44764  0.44764  0.00000  0.10471
      13     H     0.45729  0.45729  0.00000  0.08542

   Total alpha = 17.00000, Total beta = 17.00000, Total charge =  0.00000

*** Psi4 exiting successfully. Buy a developer a beer!
