                              Psi4 1.0.54 Driver

  ==> Input File <==

--------------------------------------------------------------------------
set {
	reference rhf
	basis cc-pvtz
}

set_num_threads( 4 )
memory 2 gb

molecule MOL {
0 1

O	 2.868453	 1.353349	 -0.000734
C	 2.841259	 0.166180	 -0.000295
C	 1.542794	 -0.614730	 -0.000853
C	 4.113372	 -0.651103	 0.000743
C	 0.288398	 0.247429	 0.000314
H	 1.557171	 -1.273139	 -0.866508
H	 1.557484	 -1.274998	 0.863344
C	 -0.993089	 -0.581367	 -0.000217
H	 0.305153	 0.900562	 -0.864701
H	 0.305567	 0.898805	 0.866656
C	 -2.258482	 0.271340	 0.000669
H	 -1.002280	 -1.233920	 -0.870484
H	 -1.002061	 -1.235367	 0.868958
C	 -3.540575	 -0.544391	 -0.139177
H	 -2.203844	 0.994491	 -0.809380
H	 -2.300312	 0.849597	 0.920450
C	 -4.800703	 0.314600	 -0.137555
H	 -3.500161	 -1.121823	 -1.058893
H	 -3.596664	 -1.266641	 0.670840
H	 -4.791046	 1.024852	 -0.957610
H	 -5.691766	 -0.294382	 -0.238396
H	 -4.888400	 0.878753	 0.784988
H	 4.145311	 -1.294584	 -0.871587
H	 4.970080	 0.004978	 -0.000091
H	 4.145223	 -1.291980	 0.874988

	symmetry c1
}
set optking {
	frozen_dihedral = ("
		15 11 8 12
	")
}

ee,wfn = optimize('scf', return_wfn=True)
oeprop( wfn, 'DIPOLE', 'QUADRUPOLE', 'MULLIKEN_CHARGES')
f=open( 'psi4out.xyz', 'w' )
f.write( "25  " )
f.write( str(ee) + "\n" )
f.write( MOL.save_string_xyz() )
f.close()
--------------------------------------------------------------------------

    Molecular point group: c1
  Charge       = 0
  Multiplicity = 1
  Basis Set: CC-PVTZ
  Basis Set:
  @DF-RHF Final Energy:  -387.27455058191123
    Total Energy =                       -387.2745505819113987
    Molecular point group: c1
  Basis Set: CC-PVTZ
  Basis Set:
  Basis Set: CC-PVTZ
  Basis Set:
  @DF-RHF Final Energy:  -387.27456069955650
    Total Energy =                       -387.2745606995566732
  Basis Set: CC-PVTZ
  Basis Set:
  Basis Set: CC-PVTZ
  Basis Set:
  @DF-RHF Final Energy:  -387.27457127363726
    Total Energy =                       -387.2745712736373207
  Basis Set: CC-PVTZ
  Basis Set:
  Charge       = 0
  Multiplicity = 1
  Basis Set: CC-PVTZ
  Basis Set:

    Orbital Energies (a.u.)
    -----------------------

    Doubly Occupied:

       1A    -20.538897     2A    -11.320528     3A    -11.230192
       4A    -11.226595     5A    -11.215270     6A    -11.214653
       7A    -11.213611     8A    -11.211488     9A    -11.206469
      10A     -1.398945    11A     -1.095205    12A     -1.057731
      13A     -1.015621    14A     -0.970218    15A     -0.891604
      16A     -0.814904    17A     -0.791574    18A     -0.731043
      19A     -0.662575    20A     -0.654369    21A     -0.633194
      22A     -0.626869    23A     -0.596872    24A     -0.585440
      25A     -0.567819    26A     -0.559761    27A     -0.541501
      28A     -0.527387    29A     -0.513038    30A     -0.491862
      31A     -0.490325    32A     -0.473716    33A     -0.464194
      34A     -0.462382    35A     -0.453092    36A     -0.401453

  @DF-RHF Final Energy:  -387.27457154822082

   => Energetics <=

    Nuclear Repulsion Energy =            439.1185606282263052
    One-Electron Energy =               -1395.0854768224066902
    Two-Electron Energy =                 568.6923446459594516
    DFT Exchange-Correlation Energy =       0.0000000000000000
    Empirical Dispersion Energy =           0.0000000000000000
    PCM Polarization Energy =               0.0000000000000000
    EFP Energy =                            0.0000000000000000
    Total Energy =                       -387.2745715482209334
    Molecular point group: c1
  Basis Set: CC-PVTZ
  Basis Set:

  -Total Gradient:
     Atom            X                  Y                   Z
    ------   -----------------  -----------------  -----------------
       1        0.000007904254    -0.000004799240     0.000019949613
       2       -0.000011526540    -0.000010280446    -0.000056203850
       3        0.000002605043     0.000001154448     0.000030906651
       4        0.000002067516     0.000000789861     0.000021123584
       5       -0.000001132458     0.000007274403    -0.000043093197
       6       -0.000002238656     0.000010278679     0.000005289444
       7       -0.000003287967    -0.000001986081    -0.000005039066
       8        0.000708543864     0.001054689050    -0.000508466408
       9        0.000007493815    -0.000001799517     0.000005267649
      10       -0.000007589685    -0.000013154099    -0.000005998072
      11       -0.000690178598    -0.001002583560    -0.000627862340
      12       -0.000477681989    -0.000717697790     0.000553457213
      13       -0.000002379526    -0.000010072226     0.000001545184
      14        0.000008797852    -0.000002048218    -0.000043786807
      15        0.000448528827     0.000661988158     0.000639870861
      16        0.000002508859     0.000011720951     0.000003419385
      17        0.000001217360     0.000004962177     0.000016813453
      18       -0.000011129641     0.000004226404     0.000010299140
      19       -0.000001223362     0.000023985637    -0.000017592444
      20        0.000010675621    -0.000019503450     0.000011561215
      21        0.000004456243    -0.000003529562     0.000005953931
      22        0.000009371392    -0.000003850366    -0.000016137657
      23       -0.000005297490     0.000006794815     0.000003989663
      24       -0.000000734465     0.000000893389     0.000000085430
      25        0.000000229734     0.000002546588    -0.000005352574

  **** Optimization is complete! (in 4 steps) ****
    Final optimized geometry and variables:
    Molecular point group: c1

    Geometry (in Angstrom), charge = 0, multiplicity = 1:

    O            2.868778812478     1.351756678437     0.029652751439
    C            2.841053005224     0.164682259015     0.037311663283
    C            1.542312337453    -0.615859755964     0.030793146366
    C            4.112722284940    -0.653199392736     0.054802232153
    C            0.288361158545     0.246712956901     0.014865175157
    H            1.563986054872    -1.280079414405    -0.830247072420
    H            1.549244447795    -1.270196579992     0.899555000816
    C           -0.993170823317    -0.581181638522     0.006070707303
    H            0.313916398924     0.895229387919    -0.853314538419
    H            0.297049840559     0.902731803095     0.877943642856
    C           -2.259688896022     0.270263993310     0.013666725430
    H           -1.003412994289    -1.233210565159    -0.864645350764
    H           -1.004399572285    -1.240544581310     0.871414872724
    C           -3.542958343207    -0.545477448751    -0.109255777095
    H           -2.211217148801     0.995573416328    -0.794892180885
    H           -2.291484014197     0.851193549271     0.932421457004
    C           -4.803717239238     0.311859645164    -0.076965592423
    H           -3.518933326899    -1.115053511048    -1.034319863457
    H           -3.583210428930    -1.274624735198     0.695591703561
    H           -4.809326512367     1.029642511635    -0.890455106615
    H           -5.695761970142    -0.297305164020    -0.167550710597
    H           -4.875460323067     0.867330367689     0.852160094973
    H            4.151645121191    -1.302516317232    -0.812881188837
    H            4.969897980440     0.002325761630     0.056841819944
    H            4.136617742977    -1.288107544781     0.933632265495

  Mulliken Charges: (a.u.)
   Center  Symbol    Alpha    Beta     Spin     Total
       1     O     4.17075  4.17075  0.00000 -0.34151
       2     C     2.86222  2.86222  0.00000  0.27557
       3     C     3.11405  3.11405  0.00000 -0.22811
       4     C     3.15127  3.15127  0.00000 -0.30253
       5     C     3.08289  3.08289  0.00000 -0.16578
       6     H     0.44555  0.44555  0.00000  0.10890
       7     H     0.44556  0.44556  0.00000  0.10888
       8     C     3.09028  3.09028  0.00000 -0.18056
       9     H     0.44603  0.44603  0.00000  0.10795
      10     H     0.44603  0.44603  0.00000  0.10793
      11     C     3.08625  3.08625  0.00000 -0.17249
      12     H     0.45619  0.45619  0.00000  0.08762
      13     H     0.45599  0.45599  0.00000  0.08802
      14     C     3.08423  3.08423  0.00000 -0.16846
      15     H     0.45378  0.45378  0.00000  0.09244
      16     H     0.45393  0.45393  0.00000  0.09213
      17     C     3.15036  3.15036  0.00000 -0.30072
      18     H     0.45504  0.45504  0.00000  0.08992
      19     H     0.45525  0.45525  0.00000  0.08950
      20     H     0.45468  0.45468  0.00000  0.09064
      21     H     0.44869  0.44869  0.00000  0.10263
      22     H     0.45482  0.45482  0.00000  0.09035
      23     H     0.45041  0.45041  0.00000  0.09918
      24     H     0.43535  0.43535  0.00000  0.12930
      25     H     0.45039  0.45039  0.00000  0.09921

   Total alpha = 36.00000, Total beta = 36.00000, Total charge =  0.00000

*** Psi4 exiting successfully. Buy a developer a beer!
