                              Psi4 1.0.54 Driver

  ==> Input File <==

--------------------------------------------------------------------------
set {
	reference rhf
	basis cc-pvtz
}

set_num_threads( 4 )
memory 2 gb

molecule MOL {
0 1

H	 -3.258660	 -0.290394	 1.471450
C	 -3.307964	 -0.275695	 0.374072
C	 -2.653809	 0.914422	 -0.273689
O	 -3.855140	 -1.148880	 -0.205112
C	 -3.657124	 1.830587	 -0.980565
H	 -2.087402	 1.447971	 0.478537
H	 -1.951091	 0.522062	 -1.005499
C	 -4.609191	 2.548492	 -0.026435
H	 -3.104299	 2.563940	 -1.557555
H	 -4.229670	 1.250119	 -1.699899
C	 -5.595537	 3.465843	 -0.744328
H	 -4.027606	 3.128781	 0.684994
H	 -5.160730	 1.819136	 0.561162
C	 -6.538523	 4.191682	 0.213368
H	 -5.039157	 4.186238	 -1.335782
H	 -6.182673	 2.880364	 -1.448447
C	 -7.599149	 5.060381	 -0.465113
H	 -5.954646	 4.806919	 0.894071
H	 -7.042101	 3.452977	 0.830643
C	 -7.048427	 6.267965	 -1.219787
H	 -8.290569	 5.411458	 0.294541
H	 -8.184013	 4.446449	 -1.145059
H	 -6.453118	 6.897298	 -0.565920
H	 -6.423925	 5.974917	 -2.055134
H	 -7.855282	 6.874411	 -1.614974

	symmetry c1
}
set optking {
	frozen_dihedral = ("
		6 3 2 4
	")
}

ee,wfn = optimize('scf', return_wfn=True)
oeprop( wfn, 'DIPOLE', 'QUADRUPOLE', 'MULLIKEN_CHARGES')
f=open( 'psi4out.xyz', 'w' )
f.write( "25  " )
f.write( str(ee) + "\n" )
f.write( MOL.save_string_xyz() )
f.close()
--------------------------------------------------------------------------

    Molecular point group: c1
  Charge       = 0
  Multiplicity = 1
  Basis Set: CC-PVTZ
  Basis Set:
  @DF-RHF Final Energy:  -387.25798489816930
    Total Energy =                       -387.2579848981692976
    Molecular point group: c1
  Basis Set: CC-PVTZ
  Basis Set:
  Basis Set: CC-PVTZ
  Basis Set:
  @DF-RHF Final Energy:  -387.25799159368614
    Total Energy =                       -387.2579915936861426
  Basis Set: CC-PVTZ
  Basis Set:
  Basis Set: CC-PVTZ
  Basis Set:
  @DF-RHF Final Energy:  -387.25828611357338
    Total Energy =                       -387.2582861135733765
  Basis Set: CC-PVTZ
  Basis Set:
  Basis Set: CC-PVTZ
  Basis Set:
  @DF-RHF Final Energy:  -387.25833665341526
    Total Energy =                       -387.2583366534155402
  Basis Set: CC-PVTZ
  Basis Set:
  Basis Set: CC-PVTZ
  Basis Set:
  @DF-RHF Final Energy:  -387.25833069738593
    Total Energy =                       -387.2583306973863273
  Basis Set: CC-PVTZ
  Basis Set:
  Basis Set: CC-PVTZ
  Basis Set:
  @DF-RHF Final Energy:  -387.25834731236364
    Total Energy =                       -387.2583473123635258
  Basis Set: CC-PVTZ
  Basis Set:
  Charge       = 0
  Multiplicity = 1
  Basis Set: CC-PVTZ
  Basis Set:

    Orbital Energies (a.u.)
    -----------------------

    Doubly Occupied:

       1A    -20.551520     2A    -11.321416     3A    -11.232943
       4A    -11.227923     5A    -11.220990     6A    -11.215869
       7A    -11.215359     8A    -11.214371     9A    -11.208022
      10A     -1.406882    11A     -1.102282    12A     -1.068064
      13A     -1.012428    14A     -0.942594    15A     -0.877151
      16A     -0.824836    17A     -0.781601    18A     -0.770750
      19A     -0.688343    20A     -0.654631    21A     -0.633778
      22A     -0.623258    23A     -0.598272    24A     -0.594133
      25A     -0.579689    26A     -0.549212    27A     -0.536343
      28A     -0.525838    29A     -0.505884    30A     -0.496088
      31A     -0.489738    32A     -0.477749    33A     -0.464153
      34A     -0.458257    35A     -0.441068    36A     -0.411078

  @DF-RHF Final Energy:  -387.25834743520534

   => Energetics <=

    Nuclear Repulsion Energy =            441.4625032326254086
    One-Electron Energy =               -1399.5966686459905759
    Two-Electron Energy =                 570.8758179781598301
    DFT Exchange-Correlation Energy =       0.0000000000000000
    Empirical Dispersion Energy =           0.0000000000000000
    PCM Polarization Energy =               0.0000000000000000
    EFP Energy =                            0.0000000000000000
    Total Energy =                       -387.2583474352053372
    Molecular point group: c1
  Basis Set: CC-PVTZ
  Basis Set:

  -Total Gradient:
     Atom            X                  Y                   Z
    ------   -----------------  -----------------  -----------------
       1       -0.000001518600    -0.000003029297    -0.000013034208
       2       -0.000282582608     0.000166136791     0.000027287708
       3       -0.000210426998     0.000165930473     0.000050701930
       4        0.000244630295    -0.000135254870    -0.000016682455
       5        0.000033354271    -0.000010272244     0.000005170703
       6        0.000229991689    -0.000162132796    -0.000059334768
       7       -0.000002900898    -0.000003355182     0.000010915365
       8       -0.000012988850    -0.000013591784     0.000000886834
       9       -0.000005279707     0.000002873031    -0.000006353213
      10       -0.000000974305     0.000001237148     0.000000540185
      11        0.000005874471     0.000000769419    -0.000002687736
      12        0.000001657538    -0.000010103915    -0.000001379617
      13       -0.000005736047    -0.000003940190     0.000005340473
      14        0.000004047778     0.000002629779     0.000001336518
      15       -0.000001287048     0.000004106507    -0.000006126352
      16       -0.000000208796     0.000001226429     0.000004842920
      17        0.000001217844    -0.000000471039    -0.000000413560
      18       -0.000000407793     0.000000118599     0.000001309592
      19        0.000001475163    -0.000001533275    -0.000002043112
      20        0.000000952328    -0.000000070549    -0.000000557649
      21        0.000001477571    -0.000000100166    -0.000000166947
      22       -0.000000577209     0.000000358064     0.000000482505
      23       -0.000000576907    -0.000000413060    -0.000000109074
      24        0.000001007004    -0.000000704754     0.000000456803
      25       -0.000000220186    -0.000000413123    -0.000000382842

  **** Optimization is complete! (in 7 steps) ****
    Final optimized geometry and variables:
    Molecular point group: c1

    Geometry (in Angstrom), charge = 0, multiplicity = 1:

    H            1.789876267219    -2.829904986316     1.821749467944
    C            1.733270278198    -2.789155932325     0.728016331858
    C            2.370019433522    -1.594062035299     0.055503600423
    O            1.192722429736    -3.657508908014     0.133862021945
    C            1.337926474811    -0.688384657214    -0.627063205860
    H            2.948624753083    -1.033295118256     0.781546246292
    H            3.056861516637    -1.980849569257    -0.688982135955
    C            0.382293081058     0.002925783315     0.343103293357
    H            1.871610990141     0.062172189153    -1.200837145940
    H            0.774528051327    -1.283471971834    -1.336637473045
    C           -0.617487841087     0.918771064947    -0.358096852286
    H            0.956719554561     0.582017484001     1.062617890096
    H           -0.163143800546    -0.743334088445     0.915286985138
    C           -1.570509225106     1.614691949087     0.611716539349
    H           -0.071234950709     1.656803895357    -0.937068845311
    H           -1.195294669460     0.335916624285    -1.071263528544
    C           -2.644303295674     2.478417944108    -0.052238264257
    H           -0.995933016520     2.227845926938     1.302537316827
    H           -2.063299345698     0.858341383098     1.216371675947
    C           -2.111711422904     3.705676611151    -0.787929542142
    H           -3.340478488995     2.807235573780     0.713113724290
    H           -3.220075750058     1.866597961263    -0.741552237153
    H           -1.524642128192     4.333001004856    -0.124628821717
    H           -1.484212020991     3.434886298761    -1.628453373405
    H           -2.927645947323     4.306760238819    -1.172534776038

  Mulliken Charges: (a.u.)
   Center  Symbol    Alpha    Beta     Spin     Total
       1     H     0.45486  0.45486  0.00000  0.09028
       2     C     2.91359  2.91359  0.00000  0.17282
       3     C     3.09565  3.09565  0.00000 -0.19131
       4     O     4.16938  4.16938  0.00000 -0.33877
       5     C     3.09779  3.09779  0.00000 -0.19558
       6     H     0.44836  0.44836  0.00000  0.10328
       7     H     0.43677  0.43677  0.00000  0.12646
       8     C     3.09429  3.09429  0.00000 -0.18858
       9     H     0.44679  0.44679  0.00000  0.10642
      10     H     0.44248  0.44248  0.00000  0.11504
      11     C     3.09358  3.09358  0.00000 -0.18715
      12     H     0.45460  0.45460  0.00000  0.09080
      13     H     0.45009  0.45009  0.00000  0.09982
      14     C     3.09530  3.09530  0.00000 -0.19060
      15     H     0.45162  0.45162  0.00000  0.09676
      16     H     0.45145  0.45145  0.00000  0.09711
      17     C     3.09071  3.09071  0.00000 -0.18142
      18     H     0.45450  0.45450  0.00000  0.09100
      19     H     0.44860  0.44860  0.00000  0.10281
      20     C     3.15275  3.15275  0.00000 -0.30550
      21     H     0.44815  0.44815  0.00000  0.10370
      22     H     0.45380  0.45380  0.00000  0.09241
      23     H     0.45517  0.45517  0.00000  0.08966
      24     H     0.45385  0.45385  0.00000  0.09231
      25     H     0.44587  0.44587  0.00000  0.10825

   Total alpha = 36.00000, Total beta = 36.00000, Total charge = -0.00000

*** Psi4 exiting successfully. Buy a developer a beer!
