  ==> Input File <==

--------------------------------------------------------------------------
set {
	reference rhf
	basis 6-31G*
}

set_num_threads( 4 )
memory 2 gb

molecule MOL {
0 1

H	 -3.135461	 -1.215070	 0.001379
O	 -2.310168	 -0.871793	 -0.309793
C	 -2.026376	 0.340750	 0.341611
C	 -0.673256	 0.843270	 -0.132153
H	 -2.792215	 1.080697	 0.115987
H	 -2.013526	 0.200402	 1.421792
C	 0.486613	 -0.083066	 0.235839
H	 -0.715586	 0.970948	 -1.210718
H	 -0.508072	 1.829858	 0.297090
C	 1.632798	 0.647138	 0.937891
H	 0.857034	 -0.563718	 -0.663759
H	 0.118618	 -0.878404	 0.883031
C	 2.789361	 -0.279637	 1.310879
H	 2.001839	 1.441275	 0.292234
H	 1.257437	 1.134186	 1.835851
H	 3.209052	 -0.755435	 0.429196
H	 3.588004	 0.265508	 1.804774
H	 2.460106	 -1.066094	 1.984369

	symmetry c1
}
set optking {
	frozen_dihedral = ("
		10 7 4 8
	")
}

ee = optimize('scf')
oeprop('DIPOLE', 'QUADRUPOLE', 'MULLIKEN_CHARGES')
f=open( 'psi4out.xyz', 'w' )
f.write( "18  " )
f.write( str(ee) + "\n" )
f.write( MOL.save_string_xyz() )
f.close()
--------------------------------------------------------------------------

    Molecular point group: c1
  Charge       = 0
  Multiplicity = 1
  Basis Set: 6-31G*
  Basis Set:
  @DF-RHF Final Energy:  -271.17486273052191
    Total Energy =                       -271.1748627305216814
    Molecular point group: c1
  Basis Set: 6-31G*
  Basis Set:
  Basis Set: 6-31G*
  Basis Set:
  @DF-RHF Final Energy:  -271.17507400733427
    Total Energy =                       -271.1750740073341603
  Basis Set: 6-31G*
  Basis Set:
  Basis Set: 6-31G*
  Basis Set:
  @DF-RHF Final Energy:  -271.17515340671173
    Total Energy =                       -271.1751534067118428
  Basis Set: 6-31G*
  Basis Set:
  Basis Set: 6-31G*
  Basis Set:
  @DF-RHF Final Energy:  -271.17515077203376
    Total Energy =                       -271.1751507720338168
  Basis Set: 6-31G*
  Basis Set:
  Basis Set: 6-31G*
  Basis Set:
  @DF-RHF Final Energy:  -271.17515769116972
    Total Energy =                       -271.1751576911697725
  Basis Set: 6-31G*
  Basis Set:
  Charge       = 0
  Multiplicity = 1
  Basis Set: 6-31G*
  Basis Set:

    Orbital Energies (a.u.)
    -----------------------

    Doubly Occupied:

       1A    -20.552815     2A    -11.267864     3A    -11.212005
       4A    -11.211686     5A    -11.206956     6A    -11.205157
       7A     -1.359664     8A     -1.073371     9A     -1.008398
      10A     -0.912734    11A     -0.820421    12A     -0.783277
      13A     -0.702036    14A     -0.650287    15A     -0.618475
      16A     -0.576945    17A     -0.571380    18A     -0.557902
      19A     -0.522627    20A     -0.507064    21A     -0.483680
      22A     -0.467558    23A     -0.455911    24A     -0.448581
      25A     -0.428490

  @DF-RHF Final Energy:  -271.17515820142000

   => Energetics <=

    Nuclear Repulsion Energy =            249.2551303095199273
    One-Electron Energy =                -861.6500132623365289
    Two-Electron Energy =                 341.2197247513965976
    DFT Exchange-Correlation Energy =       0.0000000000000000
    Empirical Dispersion Energy =           0.0000000000000000
    PCM Polarization Energy =               0.0000000000000000
    EFP Energy =                            0.0000000000000000
    Total Energy =                       -271.1751582014200039
    Molecular point group: c1
  Basis Set: 6-31G*
  Basis Set:

  -Total Gradient:
     Atom            X                  Y                   Z
    ------   -----------------  -----------------  -----------------
       1        0.000004025228     0.000010496328     0.000001261510
       2        0.000001192899     0.000008002511    -0.000012023148
       3       -0.000013127665    -0.000005456803     0.000015358155
       4        0.001215493932     0.001717680732     0.000593485611
       5       -0.000012622652     0.000001672363     0.000005332363
       6        0.000011160818     0.000003361491    -0.000008862148
       7        0.000525442668    -0.000006534437    -0.001685114618
       8       -0.001141833023    -0.001476247413    -0.000118766440
       9       -0.000004499340    -0.000009435553    -0.000001073755
      10       -0.000603528110    -0.000252042950     0.001189135010
      11        0.000001877487     0.000020506537     0.000000315549
      12        0.000003130724    -0.000000509384     0.000021026002
      13        0.000015087872     0.000002367891     0.000000769226
      14       -0.000009470205    -0.000005510152    -0.000000588580
      15       -0.000002435184    -0.000008401474    -0.000002868136
      16       -0.000001124985     0.000001339938     0.000002468011
      17        0.000012106477    -0.000005241850     0.000003553713
      18       -0.000000876943     0.000003952224    -0.000003408324

  **** Optimization is complete! (in 6 steps) ****
    Final optimized geometry and variables:
    Molecular point group: c1

    Geometry (in Angstrom), charge = 0, multiplicity = 1:

    H           -3.048032129176    -1.302904704596    -0.390869351387
    O           -2.230308183469    -0.944184438687    -0.704717780050
    C           -1.970128502664     0.277664980026    -0.061716152657
    C           -0.614651078744     0.783383061236    -0.524468036044
    H           -2.740541418869     1.007517767685    -0.304802911117
    H           -1.968872391929     0.147912086753     1.020044403541
    C            0.552674221224    -0.151054656648    -0.143227982680
    H           -0.664777069918     0.904769579640    -1.601954792485
    H           -0.463139351606     1.772824218086    -0.099473130645
    C            1.708290513334     0.573316371731     0.551230006881
    H            0.923160838891    -0.657502057409    -1.029068532711
    H            0.188126739142    -0.937685274933     0.511938171409
    C            2.866144229860    -0.356749452866     0.909750488716
    H            2.073300018086     1.373216749687    -0.090329698697
    H            1.337758655023     1.054158201322     1.454697847686
    H            3.282081620689    -0.824122662215     0.021668336934
    H            3.667213043447     0.183031458396     1.405628529944
    H            2.539250391601    -1.150083678059     1.576244991154

  Mulliken Charges: (a.u.)
   Center  Symbol    Alpha    Beta     Spin     Total
       1     H     0.28079  0.28079  0.00000  0.43841
       2     O     4.36916  4.36916  0.00000 -0.73832
       3     C     3.00004  3.00004  0.00000 -0.00009
       4     C     3.16234  3.16234  0.00000 -0.32469
       5     H     0.42992  0.42992  0.00000  0.14016
       6     H     0.43312  0.43312  0.00000  0.13376
       7     C     3.15057  3.15057  0.00000 -0.30114
       8     H     0.41245  0.41245  0.00000  0.17511
       9     H     0.42132  0.42132  0.00000  0.15736
      10     C     3.15457  3.15457  0.00000 -0.30914
      11     H     0.41703  0.41703  0.00000  0.16595
      12     H     0.41661  0.41661  0.00000  0.16678
      13     C     3.23949  3.23949  0.00000 -0.47898
      14     H     0.42362  0.42362  0.00000  0.15276
      15     H     0.42546  0.42546  0.00000  0.14908
      16     H     0.42120  0.42120  0.00000  0.15760
      17     H     0.42037  0.42037  0.00000  0.15926
      18     H     0.42194  0.42194  0.00000  0.15611

   Total alpha = 25.00000, Total beta = 25.00000, Total charge = -0.00000
