  ==> Input File <==

--------------------------------------------------------------------------
set {
	reference rhf
	basis 6-31G*
}

set_num_threads( 4 )
memory 2 gb

molecule MOL {
0 1

H	 -3.892951	 0.981613	 -0.358725
C	 -3.196921	 0.361773	 0.172313
C	 -2.076860	 -0.007332	 -0.404944
H	 -3.439953	 0.057760	 1.173024
O	 -1.341608	 0.847813	 -1.163227
H	 -1.666019	 -0.995712	 -0.297659
C	 -0.270429	 0.335867	 -1.879003
C	 -0.700695	 -0.191268	 -3.229297
H	 0.234542	 -0.464317	 -1.349470
H	 0.429497	 1.141350	 -2.045701
F	 0.360241	 -0.634382	 -3.887986
F	 -1.551468	 -1.197707	 -3.114848
F	 -1.275147	 0.738878	 -3.963615

	symmetry c1
}
set optking {
	frozen_dihedral = ("
		6 3 2 1
	")
}

ee = optimize('scf')
oeprop('DIPOLE', 'QUADRUPOLE', 'MULLIKEN_CHARGES')
f=open( 'psi4out.xyz', 'w' )
f.write( "13  " )
f.write( str(ee) + "\n" )
f.write( MOL.save_string_xyz() )
f.close()
--------------------------------------------------------------------------

    Molecular point group: c1
  Charge       = 0
  Multiplicity = 1
  Basis Set: 6-31G*
  Basis Set:
  @DF-RHF Final Energy:  -527.50137991479278
    Total Energy =                       -527.5013799147925511
    Molecular point group: c1
  Basis Set: 6-31G*
  Basis Set:
  Basis Set: 6-31G*
  Basis Set:
  @DF-RHF Final Energy:  -527.51735895278694
    Total Energy =                       -527.5173589527867080
  Basis Set: 6-31G*
  Basis Set:
  Basis Set: 6-31G*
  Basis Set:
  @DF-RHF Final Energy:  -527.52177891027668
    Total Energy =                       -527.5217789102766801
  Basis Set: 6-31G*
  Basis Set:
  Basis Set: 6-31G*
  Basis Set:
  @DF-RHF Final Energy:  -527.52196440490013
    Total Energy =                       -527.5219644049000181
  Basis Set: 6-31G*
  Basis Set:
  @DF-RHF Final Energy:  -527.52198639433925
    Total Energy =                       -527.5219863943389100
  @DF-RHF Final Energy:  -527.52199481447553
    Total Energy =                       -527.5219948144754198
  @DF-RHF Final Energy:  -527.52199761283316
    Total Energy =                       -527.5219976128324788
  @DF-RHF Final Energy:  -527.51433776551903
    Total Energy =                       -527.5143377655192580
  @DF-RHF Final Energy:  -527.45447220684719
    Total Energy =                       -527.4544722068470719
  @DF-RHF Final Energy:  -527.51088906312657
    Total Energy =                       -527.5108890631261147
  @DF-RHF Final Energy:  -527.52042391413079
    Total Energy =                       -527.5204239141309017
  @DF-RHF Final Energy:  -527.52172791458929
    Total Energy =                       -527.5217279145892917
  @DF-RHF Final Energy:  -527.51769464534664
    Total Energy =                       -527.5176946453470919
  @DF-RHF Final Energy:  -527.51902404801058
    Total Energy =                       -527.5190240480098964
  @DF-RHF Final Energy:  -527.52000838474214
    Total Energy =                       -527.5200083847424821
  @DF-RHF Final Energy:  -527.52025454128477
    Total Energy =                       -527.5202545412845438
  @DF-RHF Final Energy:  -527.52066628298007
    Total Energy =                       -527.5206662829803008
  @DF-RHF Final Energy:  -527.52137685492062
    Total Energy =                       -527.5213768549203905
  @DF-RHF Final Energy:  -527.52170618305399
    Total Energy =                       -527.5217061830544480
  @DF-RHF Final Energy:  -527.52195358588006
    Total Energy =                       -527.5219535858800555
  @DF-RHF Final Energy:  -527.52198714454482
    Total Energy =                       -527.5219871445449371
  @DF-RHF Final Energy:  -527.52198960594751
    Total Energy =                       -527.5219896059470557
  @DF-RHF Final Energy:  -527.52199116184511
    Total Energy =                       -527.5219911618448805
  @DF-RHF Final Energy:  -527.49609450948083
    Total Energy =                       -527.4960945094808267
  @DF-RHF Final Energy:  -527.45055730612683
    Total Energy =                       -527.4505573061264840
  @DF-RHF Final Energy:  -527.51074193374450
    Total Energy =                       -527.5107419337442707
  @DF-RHF Final Energy:  -527.48605810257561
    Total Energy =                       -527.4860581025754982
  @DF-RHF Final Energy:  -527.46870225652299
    Total Energy =                       -527.4687022565228744
  @DF-RHF Final Energy:  -527.51562100991214
    Total Energy =                       -527.5156210099116834
  @DF-RHF Final Energy:  -527.52115568846659
    Total Energy =                       -527.5211556884671609
  @DF-RHF Final Energy:  -527.52184024769792
    Total Energy =                       -527.5218402476984920
  @DF-RHF Final Energy:  -527.52196453337274
    Total Energy =                       -527.5219645333725111
  @DF-RHF Final Energy:  -527.52197747300443
    Total Energy =                       -527.5219774730047675
  @DF-RHF Final Energy:  -527.52198155725682
    Total Energy =                       -527.5219815572572770
  @DF-RHF Final Energy:  -527.52198220666719
    Total Energy =                       -527.5219822066669622
  @DF-RHF Final Energy:  -527.52198159478326
    Total Energy =                       -527.5219815947831421
  Basis Set: 6-31G*
  Basis Set:
  @DF-RHF Final Energy:  -527.48090505298228
    Total Energy =                       -527.4809050529823935
  Basis Set: 6-31G*
  Basis Set:
  Basis Set: 6-31G*
  Basis Set:
  @DF-RHF Final Energy:  -527.39335728297601
    Total Energy =                       -527.3933572829760124
  Basis Set: 6-31G*
  Basis Set:
  Basis Set: 6-31G*
  Basis Set:
  @DF-RHF Final Energy:  -527.45792453950048
    Total Energy =                       -527.4579245395005955
  Basis Set: 6-31G*
  Basis Set:
  Charge       = 0
  Multiplicity = 1
  Basis Set: 6-31G*
  Basis Set:

    Orbital Energies (a.u.)
    -----------------------

    Doubly Occupied:

       1A    -26.344131     2A    -26.343893     3A    -26.339859
       4A    -20.614324     5A    -11.508046     6A    -11.326065
       7A    -11.314206     8A    -11.226755     9A     -1.739759
      10A     -1.636525    11A     -1.634200    12A     -1.437011
      13A     -1.081807    14A     -1.012040    15A     -0.925454
      16A     -0.834873    17A     -0.828468    18A     -0.820273
      19A     -0.790730    20A     -0.722481    21A     -0.709103
      22A     -0.695687    23A     -0.673783    24A     -0.656872
      25A     -0.653028    26A     -0.641285    27A     -0.635200
      28A     -0.581721    29A     -0.561438    30A     -0.530581
      31A     -0.511088    32A     -0.344513

  @DF-RHF Final Energy:  -527.50703708370293

   => Energetics <=

    Nuclear Repulsion Energy =            409.6256257796539444
    One-Electron Energy =               -1542.9149252323368273
    Two-Electron Energy =                 605.7822623689805823
    DFT Exchange-Correlation Energy =       0.0000000000000000
    Empirical Dispersion Energy =           0.0000000000000000
    PCM Polarization Energy =               0.0000000000000000
    EFP Energy =                            0.0000000000000000
    Total Energy =                       -527.5070370837022438
    Molecular point group: c1
  Basis Set: 6-31G*
  Basis Set:

  -Total Gradient:
     Atom            X                  Y                   Z
    ------   -----------------  -----------------  -----------------
       1       -0.007073543354    -0.010621627830    -0.016085127284
       2       -0.040944116397     0.026034309591     0.050532542752
       3        0.071824067318    -0.006015194166     0.023599416492
       4       -0.006639858807    -0.003685829083    -0.017165573958
       5       -0.004465884915     0.002829583997    -0.012585343024
       6       -0.012861748259    -0.003570071118    -0.019984963016
       7        0.001037616422     0.002538662512    -0.005048130124
       8        0.007527196890     0.007913097722     0.020329815765
       9       -0.000581466049    -0.000516655573    -0.000551871246
      10       -0.000178389556     0.001352653127     0.001186692768
      11        0.001144208443     0.002570309748    -0.010158441380
      12       -0.012171015046    -0.011021218655    -0.009738803025
      13        0.003382933313    -0.007808020272    -0.004330214718

    Molecular point group: c1

    Geometry (in Angstrom), charge = 0, multiplicity = 1:

    H           -2.563118595140     1.217531500822     2.072300774057
    C           -1.960914331042     0.447588073208     2.517418847054
    C           -0.826285465256     0.049486738842     2.010532626553
    H           -2.555644155166    -0.198380519279     3.141227490896
    O           -0.175342155690     0.869261059216     1.155337991874
    H           -0.541869023030    -0.988583468148     1.994985536447
    C            0.899202939697     0.374826777342     0.427472129292
    C            0.496967724703    -0.223091109546    -0.902668548256
    H            1.469133567158    -0.372844345818     0.970029033409
    H            1.546797055416     1.210369747719     0.207580524413
    F            1.591050270254    -0.491085606775    -1.593767587449
    F           -0.207725081148    -1.331541661358    -0.772589033742
    F           -0.216788814811     0.634929139686    -1.611048076719

  Mulliken Charges: (a.u.)
   Center  Symbol    Alpha    Beta     Spin     Total
       1     H     0.40170  0.40170  0.00000  0.19660
       2     C     3.21950  3.21950  0.00000 -0.43899
       3     C     2.91787  2.91787  0.00000  0.16426
       4     H     0.40847  0.40847  0.00000  0.18307
       5     O     4.29681  4.29681  0.00000 -0.59363
       6     H     0.40323  0.40323  0.00000  0.19353
       7     C     3.06179  3.06179  0.00000 -0.12357
       8     C     2.45858  2.45858  0.00000  1.08284
       9     H     0.40327  0.40327  0.00000  0.19345
      10     H     0.38713  0.38713  0.00000  0.22573
      11     F     4.68449  4.68449  0.00000 -0.36899
      12     F     4.68398  4.68398  0.00000 -0.36795
      13     F     4.67318  4.67318  0.00000 -0.34636

   Total alpha = 32.00000, Total beta = 32.00000, Total charge =  0.00000
