  ==> Input File <==

--------------------------------------------------------------------------
set {
	reference rhf
	basis 6-31G*
}

set_num_threads( 4 )
memory 2 gb

molecule MOL {
0 1

H	 -2.698709	 -0.000305	 0.034435
C	 -1.693833	 0.000034	 0.434417
O	 -0.828952	 -0.000968	 -0.659236
H	 -1.574200	 0.882896	 1.055746
H	 -1.574147	 -0.881698	 1.057355
C	 0.559449	 -0.000018	 -0.420814
C	 1.334392	 -0.791454	 -1.472484
C	 1.118866	 1.407675	 -0.224824
H	 0.647759	 -0.526351	 0.522163
H	 0.879679	 -1.764921	 -1.621299
H	 2.358405	 -0.940435	 -1.144708
H	 1.369477	 -0.279394	 -2.428898
H	 0.514585	 1.956565	 0.489335
H	 2.133339	 1.353879	 0.157819
H	 1.149759	 1.970480	 -1.152260

	symmetry c1
}
set optking {
	frozen_dihedral = ("
		9 6 3 2
	")
}

ee = optimize('scf')
oeprop('DIPOLE', 'QUADRUPOLE', 'MULLIKEN_CHARGES')
f=open( 'psi4out.xyz', 'w' )
f.write( "15  " )
f.write( str(ee) + "\n" )
f.write( MOL.save_string_xyz() )
f.close()
--------------------------------------------------------------------------

    Molecular point group: c1
  Charge       = 0
  Multiplicity = 1
  Basis Set: 6-31G*
  Basis Set:
  @DF-RHF Final Energy:  -232.13701552734051
    Total Energy =                       -232.1370155273402816
    Molecular point group: c1
  Basis Set: 6-31G*
  Basis Set:
  Basis Set: 6-31G*
  Basis Set:
  @DF-RHF Final Energy:  -232.14048784086827
    Total Energy =                       -232.1404878408680474
  Basis Set: 6-31G*
  Basis Set:
  Basis Set: 6-31G*
  Basis Set:
  @DF-RHF Final Energy:  -232.14121132849735
    Total Energy =                       -232.1412113284974339
  Basis Set: 6-31G*
  Basis Set:
  Basis Set: 6-31G*
  Basis Set:
  @DF-RHF Final Energy:  -232.14124014751778
    Total Energy =                       -232.1412401475176921
  Basis Set: 6-31G*
  Basis Set:
  Basis Set: 6-31G*
  Basis Set:
  @DF-RHF Final Energy:  -232.14124428352827
    Total Energy =                       -232.1412442835284082
  Basis Set: 6-31G*
  Basis Set:
  Charge       = 0
  Multiplicity = 1
  Basis Set: 6-31G*
  Basis Set:

    Orbital Energies (a.u.)
    -----------------------

    Doubly Occupied:

       1A    -20.549766     2A    -11.274212     3A    -11.263858
       4A    -11.207969     5A    -11.206315     6A     -1.374484
       7A     -1.052192     8A     -0.938540     9A     -0.916891
      10A     -0.794257    11A     -0.670723    12A     -0.639770
      13A     -0.636951    14A     -0.584187    15A     -0.550627
      16A     -0.540675    17A     -0.532598    18A     -0.498004
      19A     -0.488889    20A     -0.456280    21A     -0.406302

  @DF-RHF Final Energy:  -232.14124442451731

   => Energetics <=

    Nuclear Repulsion Energy =            197.1576974963565476
    One-Electron Energy =                -705.4309120418561179
    Two-Electron Energy =                 276.1319701209822028
    DFT Exchange-Correlation Energy =       0.0000000000000000
    Empirical Dispersion Energy =           0.0000000000000000
    PCM Polarization Energy =               0.0000000000000000
    EFP Energy =                            0.0000000000000000
    Total Energy =                       -232.1412444245173674
    Molecular point group: c1
  Basis Set: 6-31G*
  Basis Set:

  -Total Gradient:
     Atom            X                  Y                   Z
    ------   -----------------  -----------------  -----------------
       1        0.000003358533     0.000000142267    -0.000000933852
       2       -0.000031075218    -0.000913130560    -0.000001923051
       3        0.000027686548     0.001540482000     0.000168048401
       4        0.000005632251    -0.000003138520    -0.000006236244
       5        0.000002412162     0.000003874250    -0.000001284791
       6        0.000104623276    -0.001566384755    -0.000729648595
       7        0.000012898285    -0.000029113923    -0.000002352009
       8        0.000010809586     0.000010672018     0.000028617921
       9       -0.000112066753     0.000960863370     0.000546284888
      10        0.000004406413    -0.000011114710    -0.000011318590
      11       -0.000014619569     0.000000692899     0.000000217364
      12       -0.000003077954     0.000005524047     0.000005099472
      13       -0.000001099489     0.000014460714     0.000004528891
      14       -0.000008043971     0.000001933550     0.000001270657
      15       -0.000001844099    -0.000015762645    -0.000000370464

  **** Optimization is complete! (in 6 steps) ****
    Final optimized geometry and variables:
    Molecular point group: c1

    Geometry (in Angstrom), charge = 0, multiplicity = 1:

    H           -2.767000502422    -0.084438925996     0.399253032433
    C           -1.770613167818    -0.107361155852     0.819609138965
    O           -0.871177772090    -0.114127118393    -0.242974239788
    H           -1.646221692812     0.762903741671     1.459877113396
    H           -1.669384989613    -1.001790619830     1.431245333409
    C            0.492665325310    -0.144899627070     0.104048947314
    C            1.217972058981    -0.916299691676    -0.987261439905
    C            1.034428820817     1.272639962876     0.264786735124
    H            0.607549029968    -0.671994560075     1.050491493063
    H            0.820252718154    -1.921599811205    -1.067284159905
    H            2.281153607709    -0.979383758574    -0.777079883552
    H            1.084989618694    -0.422806202798    -1.944325350723
    H            0.493093876786     1.817339132431     1.031220026936
    H            2.083185998644     1.256437527546     0.545749380513
    H            0.935960400762     1.817357029341    -0.668425535577

  Mulliken Charges: (a.u.)
   Center  Symbol    Alpha    Beta     Spin     Total
       1     H     0.41252  0.41252  0.00000  0.17496
       2     C     3.07935  3.07935  0.00000 -0.15870
       3     O     4.30931  4.30931  0.00000 -0.61861
       4     H     0.43097  0.43097  0.00000  0.13806
       5     H     0.42983  0.42983  0.00000  0.14034
       6     C     2.91584  2.91584  0.00000  0.16832
       7     C     3.23808  3.23808  0.00000 -0.47616
       8     C     3.24253  3.24253  0.00000 -0.48505
       9     H     0.43122  0.43122  0.00000  0.13756
      10     H     0.41458  0.41458  0.00000  0.17083
      11     H     0.42377  0.42377  0.00000  0.15245
      12     H     0.41476  0.41476  0.00000  0.17047
      13     H     0.41922  0.41922  0.00000  0.16156
      14     H     0.42295  0.42295  0.00000  0.15411
      15     H     0.41507  0.41507  0.00000  0.16985

   Total alpha = 21.00000, Total beta = 21.00000, Total charge = -0.00000
