  ==> Input File <==

--------------------------------------------------------------------------
set {
	reference rhf
	basis 6-31G*
}

set_num_threads( 4 )
memory 2 gb

molecule MOL {
0 1

H	 -2.365627	 -1.312883	 -0.379134
C	 -1.358347	 -1.274295	 0.019669
C	 -0.681945	 0.000119	 -0.470601
H	 -0.826096	 -2.155117	 -0.321105
H	 -1.409554	 -1.292283	 1.100109
C	 -1.357790	 1.274691	 0.020220
N	 0.739525	 -0.000142	 0.006128
H	 -0.594190	 0.000341	 -1.545128
H	 -2.364980	 1.313977	 -0.378631
H	 -0.825080	 2.155361	 -0.320114
H	 -1.409060	 1.292170	 1.100671
O	 1.577040	 0.361563	 -0.760891
O	 0.942098	 -0.363079	 1.125343

	symmetry c1
}
set optking {
	frozen_dihedral = ("
		12 7 3 8
	")
}

ee = optimize('scf')
oeprop('DIPOLE', 'QUADRUPOLE', 'MULLIKEN_CHARGES')
f=open( 'psi4out.xyz', 'w' )
f.write( "13  " )
f.write( str(ee) + "\n" )
f.write( MOL.save_string_xyz() )
f.close()
--------------------------------------------------------------------------

    Molecular point group: c1
  Charge       = 0
  Multiplicity = 1
  Basis Set: 6-31G*
  Basis Set:
  @DF-RHF Final Energy:  -321.73872379149094
    Total Energy =                       -321.7387237914910543
    Molecular point group: c1
  Basis Set: 6-31G*
  Basis Set:
  Basis Set: 6-31G*
  Basis Set:
  @DF-RHF Final Energy:  -321.73379728753844
    Total Energy =                       -321.7337972875384366
  Basis Set: 6-31G*
  Basis Set:
  Basis Set: 6-31G*
  Basis Set:
  @DF-RHF Final Energy:  -321.73882893075665
    Total Energy =                       -321.7388289307568243
  Basis Set: 6-31G*
  Basis Set:
  Basis Set: 6-31G*
  Basis Set:
  @DF-RHF Final Energy:  -321.73903027486193
    Total Energy =                       -321.7390302748619888
  Basis Set: 6-31G*
  Basis Set:
  Basis Set: 6-31G*
  Basis Set:
  @DF-RHF Final Energy:  -321.73903307674095
    Total Energy =                       -321.7390330767408386
  Basis Set: 6-31G*
  Basis Set:
  Charge       = 0
  Multiplicity = 1
  Basis Set: 6-31G*
  Basis Set:

    Orbital Energies (a.u.)
    -----------------------

    Doubly Occupied:

       1A    -20.600082     2A    -20.598826     3A    -15.842930
       4A    -11.306044     5A    -11.248402     6A    -11.243295
       7A     -1.628603     8A     -1.414048     9A     -1.143903
      10A     -0.974306    11A     -0.957907    12A     -0.813895
      13A     -0.750963    14A     -0.727636    15A     -0.722067
      16A     -0.649543    17A     -0.594614    18A     -0.588141
      19A     -0.571859    20A     -0.530161    21A     -0.522807
      22A     -0.482142    23A     -0.469084    24A     -0.447126

  @DF-RHF Final Energy:  -321.73903416812840

   => Energetics <=

    Nuclear Repulsion Energy =            256.8154341951545234
    One-Electron Energy =                -947.4521649828790260
    Two-Electron Energy =                 368.8976966195959903
    DFT Exchange-Correlation Energy =       0.0000000000000000
    Empirical Dispersion Energy =           0.0000000000000000
    PCM Polarization Energy =               0.0000000000000000
    EFP Energy =                            0.0000000000000000
    Total Energy =                       -321.7390341681284553
    Molecular point group: c1
  Basis Set: 6-31G*
  Basis Set:

  -Total Gradient:
     Atom            X                  Y                   Z
    ------   -----------------  -----------------  -----------------
       1       -0.000003604575    -0.000000752419    -0.000001214677
       2       -0.000000397891    -0.000024529835    -0.000008697863
       3       -0.000056921955     0.000784015883     0.000080674941
       4       -0.000002205206    -0.000000808054     0.000002891651
       5        0.000008661210     0.000010486938    -0.000008250147
       6        0.000016330037    -0.000022241298    -0.000005436536
       7        0.000136018082    -0.000699254811    -0.000247293701
       8        0.000017878800    -0.000518284956     0.000002522592
       9       -0.000002054466     0.000006177338     0.000003509986
      10       -0.000003012116     0.000009303457     0.000004001563
      11       -0.000006207931     0.000005696574     0.000005428496
      12       -0.000077962743     0.000453659777     0.000163511304
      13       -0.000026521255    -0.000003468592     0.000008352390

  **** Optimization is complete! (in 6 steps) ****
    Final optimized geometry and variables:
    Molecular point group: c1

    Geometry (in Angstrom), charge = 0, multiplicity = 1:

    H           -2.370352261007    -1.324837334938    -0.406930802914
    C           -1.371403315625    -1.292540171963     0.013659902393
    C           -0.681821484730    -0.025587549639    -0.468707341245
    H           -0.839027071819    -2.178485695774    -0.312232035642
    H           -1.445469008972    -1.310758219486     1.092011887187
    C           -1.345878884122     1.257500894166     0.023502418727
    N            0.740688792115    -0.001481786119     0.005874420055
    H           -0.593701800382    -0.018022885704    -1.543497235505
    H           -2.358802248336     1.301702630444    -0.359330737120
    H           -0.809603288220     2.130823423438    -0.328131063647
    H           -1.382964907582     1.277848374248     1.105790221838
    O            1.563568053644     0.381579390281    -0.767456978222
    O            0.955603225528    -0.327127474953     1.133478750395

  Mulliken Charges: (a.u.)
   Center  Symbol    Alpha    Beta     Spin     Total
       1     H     0.41040  0.41040  0.00000  0.17920
       2     C     3.24751  3.24751  0.00000 -0.49502
       3     C     3.02315  3.02315  0.00000 -0.04629
       4     H     0.40429  0.40429  0.00000  0.19142
       5     H     0.39672  0.39672  0.00000  0.20656
       6     C     3.25053  3.25053  0.00000 -0.50105
       7     N     3.21674  3.21674  0.00000  0.56653
       8     H     0.38593  0.38593  0.00000  0.22814
       9     H     0.40626  0.40626  0.00000  0.18749
      10     H     0.39914  0.39914  0.00000  0.20173
      11     H     0.39941  0.39941  0.00000  0.20119
      12     O     4.22917  4.22917  0.00000 -0.45834
      13     O     4.23077  4.23077  0.00000 -0.46155

   Total alpha = 24.00000, Total beta = 24.00000, Total charge = -0.00000
