  ==> Input File <==

--------------------------------------------------------------------------
set {
	reference rhf
	basis 6-31G*
}

set_num_threads( 4 )
memory 2 gb

molecule MOL {
0 1

H	 -3.161837	 0.500524	 -0.000234
C	 -2.367097	 -0.232926	 -0.000000
O	 -1.158440	 0.455814	 -0.000122
H	 -2.468853	 -0.861886	 -0.882833
H	 -2.468942	 -0.861421	 0.883154
C	 -0.029776	 -0.365156	 0.000148
C	 0.351270	 -0.674170	 1.437498
H	 0.795575	 0.131189	 -0.512041
H	 -0.236696	 -1.287966	 -0.543463
C	 1.583613	 -1.572313	 1.535223
H	 0.528474	 0.263199	 1.955763
H	 -0.496513	 -1.146079	 1.924597
H	 2.450669	 -1.107232	 1.074422
H	 1.832490	 -1.776870	 2.571110
H	 1.418664	 -2.526400	 1.042361

	symmetry c1
}
set optking {
	frozen_dihedral = ("
		8 6 3 2
	")
}

ee = optimize('scf')
oeprop('DIPOLE', 'QUADRUPOLE', 'MULLIKEN_CHARGES')
f=open( 'psi4out.xyz', 'w' )
f.write( "15  " )
f.write( str(ee) + "\n" )
f.write( MOL.save_string_xyz() )
f.close()
--------------------------------------------------------------------------

    Molecular point group: c1
  Charge       = 0
  Multiplicity = 1
  Basis Set: 6-31G*
  Basis Set:
  @DF-RHF Final Energy:  -232.13518869000913
    Total Energy =                       -232.1351886900091586
    Molecular point group: c1
  Basis Set: 6-31G*
  Basis Set:
  Basis Set: 6-31G*
  Basis Set:
  @DF-RHF Final Energy:  -232.13632483613131
    Total Energy =                       -232.1363248361311662
  Basis Set: 6-31G*
  Basis Set:
  Basis Set: 6-31G*
  Basis Set:
  @DF-RHF Final Energy:  -232.13662807620162
    Total Energy =                       -232.1366280762016459
  Basis Set: 6-31G*
  Basis Set:
  Basis Set: 6-31G*
  Basis Set:
  @DF-RHF Final Energy:  -232.13663289786680
    Total Energy =                       -232.1366328978668321
  Basis Set: 6-31G*
  Basis Set:
  Charge       = 0
  Multiplicity = 1
  Basis Set: 6-31G*
  Basis Set:

    Orbital Energies (a.u.)
    -----------------------

    Doubly Occupied:

       1A    -20.551648     2A    -11.266125     3A    -11.264041
       4A    -11.215761     5A    -11.214410     6A     -1.374574
       7A     -1.056158     8A     -0.958172     9A     -0.881813
      10A     -0.806849    11A     -0.669027    12A     -0.655396
      13A     -0.636039    14A     -0.599445    15A     -0.567867
      16A     -0.533997    17A     -0.515771    18A     -0.497235
      19A     -0.483311    20A     -0.458554    21A     -0.405234

  @DF-RHF Final Energy:  -232.13663322809151

   => Energetics <=

    Nuclear Repulsion Energy =            191.0681411736040900
    One-Electron Energy =                -693.1866949759662475
    Two-Electron Energy =                 269.9819205742706458
    DFT Exchange-Correlation Energy =       0.0000000000000000
    Empirical Dispersion Energy =           0.0000000000000000
    PCM Polarization Energy =               0.0000000000000000
    EFP Energy =                            0.0000000000000000
    Total Energy =                       -232.1366332280915117
    Molecular point group: c1
  Basis Set: 6-31G*
  Basis Set:

  -Total Gradient:
     Atom            X                  Y                   Z
    ------   -----------------  -----------------  -----------------
       1       -0.000003961140    -0.000008306459     0.000000719061
       2        0.000024130741    -0.000028477978    -0.000713385327
       3       -0.000073732021    -0.000020494137     0.000858092722
       4       -0.000007147046    -0.000000335825     0.000001562058
       5       -0.000005224744    -0.000005404419     0.000000808893
       6        0.000299390114     0.000456283645     0.000595142085
       7       -0.000020609971    -0.000009652707    -0.000036419038
       8       -0.000224798292    -0.000373066299    -0.000747838331
       9       -0.000006971784    -0.000004337950     0.000005553830
      10        0.000011426841     0.000021265692     0.000028226193
      11       -0.000000716067    -0.000009341052     0.000006625540
      12       -0.000001817986     0.000000292352    -0.000005239533
      13       -0.000006381972    -0.000009768120    -0.000004749185
      14        0.000023873459    -0.000011585025     0.000004609066
      15       -0.000007460132     0.000002928280     0.000006291965

  **** Optimization is complete! (in 5 steps) ****
    Final optimized geometry and variables:
    Molecular point group: c1

    Geometry (in Angstrom), charge = 0, multiplicity = 1:

    H           -2.817772641076     1.044840945922    -0.675486863141
    C           -2.052836083968     0.282118594938    -0.621959538481
    O           -0.819935718693     0.929951520420    -0.607234983747
    H           -2.147136741124    -0.369597126614    -1.488422917207
    H           -2.218115174837    -0.310732220810     0.274559521548
    C            0.301796426012     0.094254916290    -0.544532729875
    C            0.719779802228    -0.217345907825     0.888103153371
    H            1.102494499151     0.614097104480    -1.058756992426
    H            0.116000787526    -0.828662601187    -1.093325170077
    C            1.978390617024    -1.082583724908     0.948053207800
    H            0.885905493676     0.722049545799     1.406729186329
    H           -0.093445212933    -0.719329828270     1.405378135191
    H            2.816580351552    -0.593425325955     0.459701955710
    H            2.266726575520    -1.281276844336     1.974861124442
    H            1.824413215088    -2.040344608755     0.458446242484

  Mulliken Charges: (a.u.)
   Center  Symbol    Alpha    Beta     Spin     Total
       1     H     0.41226  0.41226  0.00000  0.17548
       2     C     3.08043  3.08043  0.00000 -0.16085
       3     O     4.30726  4.30726  0.00000 -0.61452
       4     H     0.42961  0.42961  0.00000  0.14078
       5     H     0.43065  0.43065  0.00000  0.13870
       6     C     2.98743  2.98743  0.00000  0.02513
       7     C     3.16234  3.16234  0.00000 -0.32467
       8     H     0.41720  0.41720  0.00000  0.16560
       9     H     0.43305  0.43305  0.00000  0.13391
      10     C     3.24807  3.24807  0.00000 -0.49614
      11     H     0.41389  0.41389  0.00000  0.17221
      12     H     0.42129  0.42129  0.00000  0.15742
      13     H     0.41979  0.41979  0.00000  0.16042
      14     H     0.41556  0.41556  0.00000  0.16887
      15     H     0.42118  0.42118  0.00000  0.15765

   Total alpha = 21.00000, Total beta = 21.00000, Total charge =  0.00000
