                              Psi4 1.0.54 Driver

  ==> Input File <==

--------------------------------------------------------------------------
set {
	reference rhf
	basis cc-pvtz
}

set_num_threads( 4 )
memory 2 gb

molecule MOL {
0 1

O	 -1.278239	 1.034789	 -0.784693
C	 -1.204115	 0.062668	 -0.112312
C	 -2.386398	 -0.667698	 0.460323
O	 -0.068058	 -0.518372	 0.226882
H	 -2.382952	 -1.693172	 0.114333
H	 -3.296656	 -0.175702	 0.158400
H	 -2.312537	 -0.685191	 1.540100
C	 1.169651	 0.147728	 -0.043656
C	 2.215461	 -0.940489	 -0.182138
C	 1.480078	 1.131287	 1.070279
H	 1.062598	 0.679940	 -0.976597
H	 1.954672	 -1.622252	 -0.981474
H	 3.180011	 -0.501589	 -0.407355
H	 2.303150	 -1.508093	 0.736596
H	 2.423048	 1.627722	 0.873151
H	 0.709557	 1.886157	 1.141821
H	 1.557464	 0.616317	 2.021121

	symmetry c1
}
set optking {
	frozen_dihedral = ("
		8 4 2 1
	")
}

ee,wfn = optimize('scf', return_wfn=True)
oeprop( wfn, 'DIPOLE', 'QUADRUPOLE', 'MULLIKEN_CHARGES')
f=open( 'psi4out.xyz', 'w' )
f.write( "17  " )
f.write( str(ee) + "\n" )
f.write( MOL.save_string_xyz() )
f.close()
--------------------------------------------------------------------------

    Molecular point group: c1
  Charge       = 0
  Multiplicity = 1
  Basis Set: CC-PVTZ
  Basis Set:
  @DF-RHF Final Energy:  -345.04281590904759
    Total Energy =                       -345.0428159090477038
    Molecular point group: c1
  Basis Set: CC-PVTZ
  Basis Set:
  Basis Set: CC-PVTZ
  Basis Set:
  @DF-RHF Final Energy:  -345.04148367000232
    Total Energy =                       -345.0414836700022647
  Basis Set: CC-PVTZ
  Basis Set:
  Basis Set: CC-PVTZ
  Basis Set:
  @DF-RHF Final Energy:  -345.04286473676973
    Total Energy =                       -345.0428647367695021
  Basis Set: CC-PVTZ
  Basis Set:
  Basis Set: CC-PVTZ
  Basis Set:
  @DF-RHF Final Energy:  -345.04290581130095
    Total Energy =                       -345.0429058113014094
  Basis Set: CC-PVTZ
  Basis Set:
  Basis Set: CC-PVTZ
  Basis Set:
  @DF-RHF Final Energy:  -345.04291239261056
    Total Energy =                       -345.0429123926103898
  Basis Set: CC-PVTZ
  Basis Set:
  Basis Set: CC-PVTZ
  Basis Set:
  @DF-RHF Final Energy:  -345.04291619200933
    Total Energy =                       -345.0429161920096703
  Basis Set: CC-PVTZ
  Basis Set:
  Basis Set: CC-PVTZ
  Basis Set:
  @DF-RHF Final Energy:  -345.04291725488093
    Total Energy =                       -345.0429172548807628
  Basis Set: CC-PVTZ
  Basis Set:
  Charge       = 0
  Multiplicity = 1
  Basis Set: CC-PVTZ
  Basis Set:

    Orbital Energies (a.u.)
    -----------------------

    Doubly Occupied:

       1A    -20.590725     2A    -20.531683     3A    -11.366746
       4A    -11.288138     5A    -11.230551     6A    -11.217632
       7A    -11.215461     8A     -1.468100     9A     -1.364579
      10A     -1.079601    11A     -1.005856    12A     -0.949547
      13A     -0.850090    14A     -0.766164    15A     -0.695078
      16A     -0.672177    17A     -0.663423    18A     -0.615814
      19A     -0.586864    20A     -0.579004    21A     -0.563663
      22A     -0.551148    23A     -0.536672    24A     -0.523524
      25A     -0.504757    26A     -0.483248    27A     -0.451039
      28A     -0.438373

  @DF-RHF Final Energy:  -345.04291809776100

   => Energetics <=

    Nuclear Repulsion Energy =            323.7479649107847308
    One-Electron Energy =               -1112.0024534666479212
    Two-Electron Energy =                 443.2115704581023010
    DFT Exchange-Correlation Energy =       0.0000000000000000
    Empirical Dispersion Energy =           0.0000000000000000
    PCM Polarization Energy =               0.0000000000000000
    EFP Energy =                            0.0000000000000000
    Total Energy =                       -345.0429180977608894
    Molecular point group: c1
  Basis Set: CC-PVTZ
  Basis Set:

  -Total Gradient:
     Atom            X                  Y                   Z
    ------   -----------------  -----------------  -----------------
       1       -0.000335583614    -0.001499199186    -0.002549103014
       2        0.000571215596     0.002694642516     0.005017774867
       3        0.000006276077     0.000020661115     0.000007928130
       4       -0.000238632919    -0.001961316521    -0.004627090940
       5       -0.000004094792    -0.000046993940    -0.000050913909
       6       -0.000004448004     0.000016788116    -0.000016722310
       7        0.000014655836    -0.000011810356     0.000052728939
       8        0.000057985077     0.000822907945     0.002170964806
       9       -0.000002344271    -0.000023219391     0.000000795525
      10       -0.000113311220     0.000036346800    -0.000011488524
      11       -0.000000918109    -0.000012656077     0.000014356750
      12        0.000005294913    -0.000005042035     0.000004821197
      13        0.000000692502    -0.000000898797    -0.000000404054
      14        0.000000841824     0.000003679493    -0.000010473800
      15        0.000003812587    -0.000023240314    -0.000014161461
      16        0.000026249209    -0.000016030785     0.000009567886
      17        0.000012309309     0.000005381414     0.000001419909

  **** Optimization is complete! (in 8 steps) ****
    Final optimized geometry and variables:
    Molecular point group: c1

    Geometry (in Angstrom), charge = 0, multiplicity = 1:

    O           -1.268960194499     1.120686249910    -0.701089411218
    C           -1.197544255861     0.079212188234    -0.142382454532
    C           -2.379158230831    -0.687089292682     0.382316148850
    O           -0.067323665042    -0.570944076149     0.071357685064
    H           -2.382879670825    -1.685037988842    -0.036027580641
    H           -3.289359124515    -0.169849102571     0.125708718290
    H           -2.296942770959    -0.782031113988     1.457852030333
    C            1.178561373982     0.082173313619    -0.191459023053
    C            2.195497408774    -1.019448089666    -0.413010934931
    C            1.535108170120     0.995279915986     0.967857328337
    H            1.064663789194     0.666469328686    -1.091728627826
    H            1.900400491375    -1.650483467507    -1.241446311797
    H            3.164600295161    -0.590394931421    -0.637436790851
    H            2.290746185355    -1.638141875778     0.471368534282
    H            2.484700367071     1.480961702701     0.776457175814
    H            0.785481210905     1.763610518602     1.098683195676
    H            1.620957669488     0.427320973851     1.887228577538

  Mulliken Charges: (a.u.)
   Center  Symbol    Alpha    Beta     Spin     Total
       1     O     4.19872  4.19872  0.00000 -0.39743
       2     C     2.80517  2.80517  0.00000  0.38967
       3     C     3.13912  3.13912  0.00000 -0.27823
       4     O     4.16474  4.16474  0.00000 -0.32948
       5     H     0.44533  0.44533  0.00000  0.10935
       6     H     0.43843  0.43843  0.00000  0.12314
       7     H     0.44719  0.44719  0.00000  0.10562
       8     C     2.93137  2.93137  0.00000  0.13727
       9     C     3.13845  3.13845  0.00000 -0.27690
      10     C     3.15501  3.15501  0.00000 -0.31002
      11     H     0.44067  0.44067  0.00000  0.11866
      12     H     0.44640  0.44640  0.00000  0.10721
      13     H     0.45445  0.45445  0.00000  0.09110
      14     H     0.45272  0.45272  0.00000  0.09455
      15     H     0.44946  0.44946  0.00000  0.10108
      16     H     0.43974  0.43974  0.00000  0.12052
      17     H     0.45305  0.45305  0.00000  0.09389

   Total alpha = 28.00000, Total beta = 28.00000, Total charge =  0.00000

*** Psi4 exiting successfully. Buy a developer a beer!
