                              Psi4 1.0.54 Driver

  ==> Input File <==

--------------------------------------------------------------------------
set {
	reference rhf
	basis cc-pvtz
}

set_num_threads( 4 )
memory 2 gb

molecule MOL {
0 1

O	 -0.294688	 1.318815	 -0.000872
C	 -0.448732	 0.145721	 -0.000187
C	 -1.780748	 -0.548101	 0.000195
O	 0.550743	 -0.719877	 0.000412
H	 -1.859389	 -1.183260	 -0.872613
H	 -2.570236	 0.185547	 -0.001342
H	 -1.860233	 -1.180337	 0.875064
C	 0.267396	 -2.036952	 -0.428651
H	 -0.480633	 -2.490745	 0.204241
H	 1.195881	 -2.579484	 -0.356136
H	 -0.086446	 -2.037064	 -1.448855

	symmetry c1
}
set optking {
	frozen_dihedral = ("
		8 4 2 1
	")
}

ee,wfn = optimize('scf', return_wfn=True)
oeprop( wfn, 'DIPOLE', 'QUADRUPOLE', 'MULLIKEN_CHARGES')
f=open( 'psi4out.xyz', 'w' )
f.write( "11  " )
f.write( str(ee) + "\n" )
f.write( MOL.save_string_xyz() )
f.close()
--------------------------------------------------------------------------

    Molecular point group: c1
  Charge       = 0
  Multiplicity = 1
  Basis Set: CC-PVTZ
  Basis Set:
  @DF-RHF Final Energy:  -266.91596128123393
    Total Energy =                       -266.9159612812337627
    Molecular point group: c1
  Basis Set: CC-PVTZ
  Basis Set:
  Basis Set: CC-PVTZ
  Basis Set:
  @DF-RHF Final Energy:  -266.90975415984451
    Total Energy =                       -266.9097541598445105
  Basis Set: CC-PVTZ
  Basis Set:
  Basis Set: CC-PVTZ
  Basis Set:
  @DF-RHF Final Energy:  -266.92133792822187
    Total Energy =                       -266.9213379282219876
  Basis Set: CC-PVTZ
  Basis Set:
  Basis Set: CC-PVTZ
  Basis Set:
  @DF-RHF Final Energy:  -266.92398740401620
    Total Energy =                       -266.9239874040162022
  Basis Set: CC-PVTZ
  Basis Set:
  @DF-RHF Final Energy:  -266.92309259554656
    Total Energy =                       -266.9230925955463363
  @DF-RHF Final Energy:  -266.92391727079882
    Total Energy =                       -266.9239172707986540
  Basis Set: CC-PVTZ
  Basis Set:
  @DF-RHF Final Energy:  -266.92450727981566
    Total Energy =                       -266.9245072798157707
  Basis Set: CC-PVTZ
  Basis Set:
  Basis Set: CC-PVTZ
  Basis Set:
  @DF-RHF Final Energy:  -266.92452170506328
    Total Energy =                       -266.9245217050633414
  Basis Set: CC-PVTZ
  Basis Set:
  Basis Set: CC-PVTZ
  Basis Set:
  @DF-RHF Final Energy:  -266.92452312350838
    Total Energy =                       -266.9245231235084930
  Basis Set: CC-PVTZ
  Basis Set:
  Charge       = 0
  Multiplicity = 1
  Basis Set: CC-PVTZ
  Basis Set:

    Orbital Energies (a.u.)
    -----------------------

    Doubly Occupied:

       1A    -20.596239     2A    -20.531268     3A    -11.370825
       4A    -11.295537     5A    -11.242635     6A     -1.468184
       7A     -1.370488     8A     -1.023426     9A     -0.985065
      10A     -0.785379    11A     -0.700656    12A     -0.689073
      13A     -0.681640    14A     -0.605898    15A     -0.595305
      16A     -0.578119    17A     -0.548495    18A     -0.516473
      19A     -0.454528    20A     -0.439925

  @DF-RHF Final Energy:  -266.92452370627939

   => Energetics <=

    Nuclear Repulsion Energy =            183.2736449271475578
    One-Electron Energy =                -727.4380258169846911
    Two-Electron Energy =                 277.2398571835577741
    DFT Exchange-Correlation Energy =       0.0000000000000000
    Empirical Dispersion Energy =           0.0000000000000000
    PCM Polarization Energy =               0.0000000000000000
    EFP Energy =                            0.0000000000000000
    Total Energy =                       -266.9245237062793876
    Molecular point group: c1
  Basis Set: CC-PVTZ
  Basis Set:

  -Total Gradient:
     Atom            X                  Y                   Z
    ------   -----------------  -----------------  -----------------
       1       -0.000204977250    -0.000246369079    -0.002239921864
       2        0.000523522872     0.000505858365     0.002159741947
       3        0.000019917738    -0.000009613287    -0.000047474259
       4       -0.000675686111    -0.000596759609     0.001964174086
       5       -0.000005255505    -0.000019044895     0.000011160948
       6       -0.000022419814     0.000019677765     0.000015292650
       7       -0.000003709688     0.000005209435     0.000017571295
       8        0.000345797686     0.000393492807    -0.001860783543
       9        0.000004244397    -0.000023821587    -0.000013542741
      10        0.000025085221    -0.000039204081     0.000004127402
      11       -0.000006519550     0.000010574166    -0.000010345921

  **** Optimization is complete! (in 9 steps) ****
    Final optimized geometry and variables:
    Molecular point group: c1

    Geometry (in Angstrom), charge = 0, multiplicity = 1:

    O            0.253371565271     1.657752562313    -0.032489307418
    C           -0.085076816481     0.533107779091     0.057394050548
    C           -1.528656153462     0.123226276960     0.213744513140
    O            0.834824996020    -0.430390596100     0.044156094628
    H           -1.856850065114    -0.477051002567    -0.625230974873
    H           -2.127491087731     1.016666768053     0.269176185327
    H           -1.662060368621    -0.462024885322     1.115019427472
    C            0.520529218884    -1.765116435104    -0.263680866516
    H           -0.157647843774    -2.199953289073     0.458493261217
    H            1.453060238902    -2.304592501440    -0.235068306884
    H            0.097109794105    -1.850088333216    -1.256347494264

  Mulliken Charges: (a.u.)
   Center  Symbol    Alpha    Beta     Spin     Total
       1     O     4.17811  4.17811  0.00000 -0.35622
       2     C     2.81148  2.81148  0.00000  0.37705
       3     C     3.16568  3.16568  0.00000 -0.33136
       4     O     4.12948  4.12948  0.00000 -0.25896
       5     H     0.44812  0.44812  0.00000  0.10375
       6     H     0.42636  0.42636  0.00000  0.14729
       7     H     0.44459  0.44459  0.00000  0.11083
       8     C     3.04241  3.04241  0.00000 -0.08481
       9     H     0.46172  0.46172  0.00000  0.07656
      10     H     0.43342  0.43342  0.00000  0.13316
      11     H     0.45864  0.45864  0.00000  0.08272

   Total alpha = 20.00000, Total beta = 20.00000, Total charge =  0.00000

*** Psi4 exiting successfully. Buy a developer a beer!
