                              Psi4 1.0.54 Driver

  ==> Input File <==

--------------------------------------------------------------------------
set {
	reference rhf
	basis cc-pvtz
}

set_num_threads( 4 )
memory 2 gb

molecule MOL {
0 1

O	 -0.694481	 1.313155	 -0.204815
C	 -0.862519	 0.151932	 -0.046791
C	 -2.171428	 -0.477048	 0.339095
O	 0.085519	 -0.757083	 -0.192238
H	 -2.467997	 -1.191667	 -0.417688
H	 -2.923379	 0.287970	 0.444097
H	 -2.053854	 -1.015120	 1.270901
C	 0.870762	 -0.743604	 -1.378699
C	 2.036272	 0.217237	 -1.267932
H	 0.241052	 -0.495860	 -2.218880
H	 1.219068	 -1.759740	 -1.487795
H	 2.647597	 0.151076	 -2.160880
H	 1.688867	 1.236488	 -1.168844
H	 2.654673	 -0.028303	 -0.413014

	symmetry c1
}
set optking {
	frozen_dihedral = ("
		8 4 2 1
	")
}

ee,wfn = optimize('scf', return_wfn=True)
oeprop( wfn, 'DIPOLE', 'QUADRUPOLE', 'MULLIKEN_CHARGES')
f=open( 'psi4out.xyz', 'w' )
f.write( "14  " )
f.write( str(ee) + "\n" )
f.write( MOL.save_string_xyz() )
f.close()
--------------------------------------------------------------------------

    Molecular point group: c1
  Charge       = 0
  Multiplicity = 1
  Basis Set: CC-PVTZ
  Basis Set:
  @DF-RHF Final Energy:  -305.97902823761211
    Total Energy =                       -305.9790282376120558
    Molecular point group: c1
  Basis Set: CC-PVTZ
  Basis Set:
  Basis Set: CC-PVTZ
  Basis Set:
  @DF-RHF Final Energy:  -305.95931023177712
    Total Energy =                       -305.9593102317767830
  Basis Set: CC-PVTZ
  Basis Set:
  Basis Set: CC-PVTZ
  Basis Set:
  @DF-RHF Final Energy:  -305.97770563219149
    Total Energy =                       -305.9777056321914870
  Basis Set: CC-PVTZ
  Basis Set:
  Basis Set: CC-PVTZ
  Basis Set:
  @DF-RHF Final Energy:  -305.97957147724196
    Total Energy =                       -305.9795714772421888
  Basis Set: CC-PVTZ
  Basis Set:
  @DF-RHF Final Energy:  -305.98038358547950
    Total Energy =                       -305.9803835854795011
  @DF-RHF Final Energy:  -305.98046769508318
    Total Energy =                       -305.9804676950834619
  @DF-RHF Final Energy:  -305.98048965589942
    Total Energy =                       -305.9804896558997598
  Basis Set: CC-PVTZ
  Basis Set:
  @DF-RHF Final Energy:  -305.98054586027740
    Total Energy =                       -305.9805458602772887
  Basis Set: CC-PVTZ
  Basis Set:
  Basis Set: CC-PVTZ
  Basis Set:
  @DF-RHF Final Energy:  -305.98055265351229
    Total Energy =                       -305.9805526535122908
  Basis Set: CC-PVTZ
  Basis Set:
  Basis Set: CC-PVTZ
  Basis Set:
  @DF-RHF Final Energy:  -305.98055400987118
    Total Energy =                       -305.9805540098712981
  Basis Set: CC-PVTZ
  Basis Set:
  Charge       = 0
  Multiplicity = 1
  Basis Set: CC-PVTZ
  Basis Set:

    Orbital Energies (a.u.)
    -----------------------

    Doubly Occupied:

       1A    -20.583502     2A    -20.539197     3A    -11.369519
       4A    -11.289135     5A    -11.232973     6A    -11.214844
       7A     -1.464526     8A     -1.366826     9A     -1.052782
      10A     -1.001235    11A     -0.879081    12A     -0.773619
      13A     -0.698734    14A     -0.684808    15A     -0.655509
      16A     -0.615320    17A     -0.583607    18A     -0.574494
      19A     -0.564733    20A     -0.533493    21A     -0.507758
      22A     -0.499323    23A     -0.451176    24A     -0.441940

  @DF-RHF Final Energy:  -305.98055433057448

   => Energetics <=

    Nuclear Repulsion Energy =            247.3059924286220905
    One-Electron Energy =                -907.4168238885180244
    Two-Electron Energy =                 354.1302771293217120
    DFT Exchange-Correlation Energy =       0.0000000000000000
    Empirical Dispersion Energy =           0.0000000000000000
    PCM Polarization Energy =               0.0000000000000000
    EFP Energy =                            0.0000000000000000
    Total Energy =                       -305.9805543305742503
    Molecular point group: c1
  Basis Set: CC-PVTZ
  Basis Set:

  -Total Gradient:
     Atom            X                  Y                   Z
    ------   -----------------  -----------------  -----------------
       1        0.002844904864     0.006154233156     0.007725686411
       2       -0.006212658176    -0.012721278076    -0.011244735181
       3       -0.000031703723     0.000091171888     0.000011848230
       4        0.007068134612     0.013684329672     0.003135516900
       5        0.000007371083     0.000007813564    -0.000014448886
       6       -0.000017239729    -0.000008135739     0.000010546739
       7       -0.000008448268    -0.000001344868    -0.000043837379
       8       -0.003591349221    -0.007200111394     0.000395589378
       9       -0.000073031941     0.000009943571     0.000024712849
      10        0.000016088460    -0.000021794558    -0.000002046201
      11        0.000011249187     0.000025669610     0.000010429464
      12       -0.000002552362     0.000003332170    -0.000005572472
      13        0.000001997915    -0.000023282311     0.000005134863
      14       -0.000012762705    -0.000000546685    -0.000008824712

  **** Optimization is complete! (in 11 steps) ****
    Final optimized geometry and variables:
    Molecular point group: c1

    Geometry (in Angstrom), charge = 0, multiplicity = 1:

    O           -1.032265264931     1.132738607168    -0.258825355940
    C           -0.787755324432     0.197455165752     0.418805982432
    C           -1.728333650954    -0.387491555835     1.432647770966
    O            0.405975607140    -0.397770940982     0.437995981831
    H           -1.970435586213    -1.405144708123     1.149932463550
    H           -2.627509401104     0.204391288691     1.488953645933
    H           -1.239293640852    -0.426099530026     2.397151500401
    C            1.004263567243    -0.758629477137    -0.803537168981
    C            2.100640707319     0.208119861471    -1.196399740304
    H            0.240664392737    -0.800116334444    -1.568259081519
    H            1.399772659185    -1.752958961707    -0.654661270735
    H            2.576086009221    -0.126597280423    -2.112032548378
    H            1.695359486981     1.197527873390    -1.356478216239
    H            2.854104542768     0.262081860222    -0.420210847267

  Mulliken Charges: (a.u.)
   Center  Symbol    Alpha    Beta     Spin     Total
       1     O     4.18531  4.18531  0.00000 -0.37061
       2     C     2.80707  2.80707  0.00000  0.38586
       3     C     3.13479  3.13479  0.00000 -0.26957
       4     O     4.16661  4.16661  0.00000 -0.33322
       5     H     0.44998  0.44998  0.00000  0.10003
       6     H     0.43871  0.43871  0.00000  0.12258
       7     H     0.44332  0.44332  0.00000  0.11337
       8     C     2.98128  2.98128  0.00000  0.03744
       9     C     3.13806  3.13806  0.00000 -0.27613
      10     H     0.45962  0.45962  0.00000  0.08076
      11     H     0.44570  0.44570  0.00000  0.10859
      12     H     0.45500  0.45500  0.00000  0.09001
      13     H     0.44218  0.44218  0.00000  0.11564
      14     H     0.45238  0.45238  0.00000  0.09525

   Total alpha = 24.00000, Total beta = 24.00000, Total charge = -0.00000

*** Psi4 exiting successfully. Buy a developer a beer!
