  ==> Input File <==

--------------------------------------------------------------------------
set {
	reference rhf
	basis 6-31G*
}

set_num_threads( 4 )
memory 2 gb

molecule MOL {
0 1

O	 1.214711	 1.306902	 -0.000018
C	 1.122059	 0.121804	 -0.000188
C	 -0.170150	 -0.657997	 -0.000612
O	 2.172624	 -0.688929	 0.000216
C	 -1.412532	 0.227344	 -0.000452
H	 -0.153702	 -1.313099	 -0.867402
H	 -0.153924	 -1.313811	 0.865644
C	 -2.376576	 -0.123876	 1.133845
H	 -1.919071	 0.134240	 -0.956095
H	 -1.111547	 1.267182	 0.081091
C	 -3.623590	 0.759238	 1.142206
H	 -2.674360	 -1.166952	 1.047869
H	 -1.863234	 -0.031461	 2.088838
H	 -4.177835	 0.662754	 0.213143
H	 -4.290159	 0.489487	 1.955345
H	 -3.360956	 1.806269	 1.262169
C	 3.452279	 -0.082609	 0.000533
H	 3.583069	 0.529321	 -0.880332
H	 4.163299	 -0.894027	 0.001117
H	 3.582335	 0.529955	 0.881077

	symmetry c1
}
set optking {
	frozen_dihedral = ("
		9 5 3 6
	")
}

ee = optimize('scf')
oeprop('DIPOLE', 'QUADRUPOLE', 'MULLIKEN_CHARGES')
f=open( 'psi4out.xyz', 'w' )
f.write( "20  " )
f.write( str(ee) + "\n" )
f.write( MOL.save_string_xyz() )
f.close()
--------------------------------------------------------------------------

    Molecular point group: c1
  Charge       = 0
  Multiplicity = 1
  Basis Set: 6-31G*
  Basis Set:
  @DF-RHF Final Energy:  -383.93681941027330
    Total Energy =                       -383.9368194102730740
    Molecular point group: c1
  Basis Set: 6-31G*
  Basis Set:
  Basis Set: 6-31G*
  Basis Set:
  @DF-RHF Final Energy:  -383.93710003433000
    Total Energy =                       -383.9371000343300011
  Basis Set: 6-31G*
  Basis Set:
  Basis Set: 6-31G*
  Basis Set:
  @DF-RHF Final Energy:  -383.93711904505341
    Total Energy =                       -383.9371190450531230
  Basis Set: 6-31G*
  Basis Set:
  Basis Set: 6-31G*
  Basis Set:
  @DF-RHF Final Energy:  -383.93716349458680
    Total Energy =                       -383.9371634945861160
  Basis Set: 6-31G*
  Basis Set:
  Basis Set: 6-31G*
  Basis Set:
  @DF-RHF Final Energy:  -383.93720371767643
    Total Energy =                       -383.9372037176764252
  Basis Set: 6-31G*
  Basis Set:
  Charge       = 0
  Multiplicity = 1
  Basis Set: 6-31G*
  Basis Set:

    Orbital Energies (a.u.)
    -----------------------

    Doubly Occupied:

       1A    -20.603985     2A    -20.546322     3A    -11.373216
       4A    -11.281113     5A    -11.235620     6A    -11.219162
       7A    -11.217496     8A    -11.209494     9A     -1.470000
      10A     -1.363326    11A     -1.085835    12A     -1.023976
      13A     -0.968059    14A     -0.886003    15A     -0.804466
      16A     -0.767009    17A     -0.700454    18A     -0.681315
      19A     -0.672657    20A     -0.636948    21A     -0.601980
      22A     -0.591349    23A     -0.578943    24A     -0.545228
      25A     -0.529909    26A     -0.519536    27A     -0.506745
      28A     -0.477821    29A     -0.468733    30A     -0.463962
      31A     -0.457411    32A     -0.439086

  @DF-RHF Final Energy:  -383.93720420368896

   => Energetics <=

    Nuclear Repulsion Energy =            382.1653690547967130
    One-Electron Energy =               -1280.3508292155433992
    Two-Electron Energy =                 514.2482559570576086
    DFT Exchange-Correlation Energy =       0.0000000000000000
    Empirical Dispersion Energy =           0.0000000000000000
    PCM Polarization Energy =               0.0000000000000000
    EFP Energy =                            0.0000000000000000
    Total Energy =                       -383.9372042036891344
    Molecular point group: c1
  Basis Set: 6-31G*
  Basis Set:

  -Total Gradient:
     Atom            X                  Y                   Z
    ------   -----------------  -----------------  -----------------
       1        0.000011230105    -0.000029756965     0.000016712161
       2       -0.000004774579    -0.000055846725    -0.000125920513
       3       -0.000826066705    -0.001163482940     0.001052043787
       4        0.000079733677     0.000033834959     0.000057888199
       5        0.000893460674     0.001223053013    -0.000658568179
       6        0.000555129542     0.000819084739    -0.000637425582
       7       -0.000006143027    -0.000010357554    -0.000037737825
       8       -0.000011103204    -0.000030153196    -0.000107659093
       9       -0.000607952838    -0.000849754358     0.000461060899
      10       -0.000063042820     0.000030006252    -0.000048236764
      11       -0.000007767077     0.000033739310     0.000066450270
      12       -0.000027199413     0.000007653093    -0.000024487426
      13        0.000021019379    -0.000034148558    -0.000026839294
      14        0.000017271761    -0.000014641032     0.000013633507
      15       -0.000016527133     0.000028341742     0.000018105293
      16       -0.000009651704     0.000008195682    -0.000012947746
      17        0.000003237779     0.000003151844    -0.000007473244
      18        0.000001996073     0.000000960118    -0.000003424927
      19       -0.000005114509    -0.000000235098     0.000001108998
      20        0.000002264016     0.000000355672     0.000003717483

  **** Optimization is complete! (in 6 steps) ****
    Final optimized geometry and variables:
    Molecular point group: c1

    Geometry (in Angstrom), charge = 0, multiplicity = 1:

    O            1.168748240243     1.200270645931    -0.258274552361
    C            1.054325786706     0.017302494662    -0.277065210741
    C           -0.245375167032    -0.756136456934    -0.267693935150
    O            2.092508021409    -0.809020123554    -0.305289964901
    C           -1.508249840371     0.120380255957    -0.268700432481
    H           -0.213416486899    -1.417956807743    -1.127107867075
    H           -0.210283472612    -1.405594496522     0.602126723499
    C           -2.487103017434    -0.240612186055     0.851938135928
    H           -2.017427838464     0.017987173965    -1.222682731217
    H           -1.222438456259     1.160738873197    -0.178294612823
    C           -3.744444092216     0.626664535554     0.838603513308
    H           -2.769392842367    -1.288210820100     0.766998561122
    H           -1.985620504240    -0.135418414524     1.811737342901
    H           -4.287744537692     0.514996372383    -0.095526345859
    H           -4.417041252565     0.356301576635     1.646631107277
    H           -3.495250555828     1.677708091015     0.951718022684
    C            3.381426174497    -0.222734430458    -0.311860115683
    H            3.509812195166     0.403072053193    -1.183260756878
    H            4.079292291033    -1.045141877618    -0.335973164327
    H            3.533345675119     0.371312409379     0.577810589733

  Mulliken Charges: (a.u.)
   Center  Symbol    Alpha    Beta     Spin     Total
       1     O     4.28479  4.28479  0.00000 -0.56958
       2     C     2.61335  2.61335  0.00000  0.77329
       3     C     3.20944  3.20944  0.00000 -0.41889
       4     O     4.30530  4.30530  0.00000 -0.61060
       5     C     3.16029  3.16029  0.00000 -0.32058
       6     H     0.39745  0.39745  0.00000  0.20510
       7     H     0.39784  0.39784  0.00000  0.20432
       8     C     3.15576  3.15576  0.00000 -0.31153
       9     H     0.41904  0.41904  0.00000  0.16192
      10     H     0.39432  0.39432  0.00000  0.21135
      11     C     3.24047  3.24047  0.00000 -0.48095
      12     H     0.42339  0.42339  0.00000  0.15322
      13     H     0.42122  0.42122  0.00000  0.15756
      14     H     0.42144  0.42144  0.00000  0.15712
      15     H     0.41873  0.41873  0.00000  0.16255
      16     H     0.41862  0.41862  0.00000  0.16277
      17     C     3.09199  3.09199  0.00000 -0.18399
      18     H     0.40897  0.40897  0.00000  0.18206
      19     H     0.40847  0.40847  0.00000  0.18307
      20     H     0.40910  0.40910  0.00000  0.18180

   Total alpha = 32.00000, Total beta = 32.00000, Total charge =  0.00000
