  ==> Input File <==

--------------------------------------------------------------------------
set {
	reference rhf
	basis 6-31G*
}

set_num_threads( 4 )
memory 2 gb

molecule MOL {
0 1

O	 3.221288	 0.961395	 -0.618735
C	 2.698682	 0.053103	 -0.057532
C	 1.243191	 -0.017990	 0.336527
O	 3.347903	 -1.046386	 0.304773
C	 0.450101	 1.221739	 -0.071142
H	 0.838092	 -0.923069	 -0.103834
H	 1.206824	 -0.169332	 1.412384
C	 -1.003671	 1.211328	 0.413558
H	 0.476821	 1.325244	 -1.151740
H	 0.950586	 2.098296	 0.325827
C	 -1.886190	 0.129800	 -0.216178
H	 -1.438157	 2.184294	 0.196115
H	 -1.023724	 1.107821	 1.497483
C	 -3.350426	 0.230486	 0.216112
H	 -1.825576	 0.205430	 -1.300809
H	 -1.510871	 -0.857681	 0.042645
C	 -4.240746	 -0.848509	 -0.402946
H	 -3.737880	 1.212042	 -0.051588
H	 -3.410746	 0.165696	 1.301406
C	 -5.702075	 -0.738589	 0.030800
H	 -4.180863	 -0.785837	 -1.487440
H	 -3.857580	 -1.830357	 -0.132873
H	 -6.307445	 -1.516497	 -0.424164
H	 -6.125147	 0.219959	 -0.256240
H	 -5.799196	 -0.832003	 1.108815
C	 4.728119	 -1.109107	 -0.004993
H	 4.882018	 -1.033965	 -1.071845
H	 5.068212	 -2.067527	 0.355250
H	 5.265056	 -0.311663	 0.488280

	symmetry c1
}
set optking {
	frozen_dihedral = ("
		2 4 26 27
	")
}

ee = optimize('scf')
oeprop('DIPOLE', 'QUADRUPOLE', 'MULLIKEN_CHARGES')
f=open( 'psi4out.xyz', 'w' )
f.write( "29  " )
f.write( str(ee) + "\n" )
f.write( MOL.save_string_xyz() )
f.close()
--------------------------------------------------------------------------

    Molecular point group: c1
  Charge       = 0
  Multiplicity = 1
  Basis Set: 6-31G*
  Basis Set:
  @DF-RHF Final Energy:  -501.04411234709914
    Total Energy =                       -501.0441123470990306
    Molecular point group: c1
  Basis Set: 6-31G*
  Basis Set:
  Charge       = 0
  Multiplicity = 1
  Basis Set: 6-31G*
  Basis Set:

    Orbital Energies (a.u.)
    -----------------------

    Doubly Occupied:

       1A    -20.603368     2A    -20.545194     3A    -11.372007
       4A    -11.280660     5A    -11.234741     6A    -11.219092
       7A    -11.217637     8A    -11.215998     9A    -11.215855
      10A    -11.214457    11A    -11.209068    12A     -1.469064
      13A     -1.362510    14A     -1.098075    15A     -1.066813
      16A     -1.019503    17A     -0.977227    18A     -0.928565
      19A     -0.861595    20A     -0.799270    21A     -0.790499
      22A     -0.763801    23A     -0.700744    24A     -0.682306
      25A     -0.672168    26A     -0.650895    27A     -0.628786
      28A     -0.604697    29A     -0.594952    30A     -0.580922
      31A     -0.567029    32A     -0.549193    33A     -0.531878
      34A     -0.530428    35A     -0.516034    36A     -0.511829
      37A     -0.496361    38A     -0.477817    39A     -0.470190
      40A     -0.462411    41A     -0.458842    42A     -0.455759
      43A     -0.441147    44A     -0.435394

  @DF-RHF Final Energy:  -501.04411235587907

   => Energetics <=

    Nuclear Repulsion Energy =            610.1931580004867328
    One-Electron Energy =               -1891.5049778833792971
    Two-Electron Energy =                 780.2677075270134992
    DFT Exchange-Correlation Energy =       0.0000000000000000
    Empirical Dispersion Energy =           0.0000000000000000
    PCM Polarization Energy =               0.0000000000000000
    EFP Energy =                            0.0000000000000000
    Total Energy =                       -501.0441123558789513
    Molecular point group: c1
  Basis Set: 6-31G*
  Basis Set:

  -Total Gradient:
     Atom            X                  Y                   Z
    ------   -----------------  -----------------  -----------------
       1        0.000007504372     0.000022450365     0.000043987378
       2       -0.000037322044    -0.000065614223    -0.000148324371
       3        0.000007388748     0.000014270307     0.000028758556
       4        0.000034657367     0.000078096580     0.000123096137
       5        0.000000793158    -0.000001020613    -0.000002570657
       6        0.000005737856    -0.000000337267    -0.000002368816
       7       -0.000004658093    -0.000000828533     0.000000592906
       8        0.000000286630    -0.000003180876     0.000004082391
       9        0.000000688813    -0.000000322970     0.000000552038
      10       -0.000000659289     0.000001397594     0.000000071842
      11        0.000000525551    -0.000000953208     0.000003200743
      12        0.000000598275    -0.000000912876    -0.000000495089
      13        0.000000557262     0.000000597414     0.000001295053
      14        0.000000155902     0.000002241816    -0.000002513355
      15       -0.000000478746     0.000001651970     0.000001241308
      16       -0.000000351298    -0.000001371753    -0.000001989523
      17       -0.000001283706     0.000001121619    -0.000002641226
      18        0.000000236031    -0.000000680537    -0.000003455986
      19       -0.000001593817     0.000003278070    -0.000000639123
      20        0.000001803802    -0.000003531296     0.000004860261
      21       -0.000001563393     0.000002495878     0.000000305303
      22        0.000001391394    -0.000000193625    -0.000002746517
      23        0.000000233139    -0.000001313574     0.000001526219
      24        0.000000951818    -0.000000960130    -0.000001387614
      25       -0.000001288365     0.000001470131     0.000000893402
      26       -0.000018666323    -0.000106023655    -0.000062813296
      27        0.000016387359     0.000057081844     0.000008014293
      28        0.000009586161    -0.000003114452     0.000004115174
      29       -0.000021618565     0.000004206004     0.000005352567

  **** Optimization is complete! (in 2 steps) ****
    Final optimized geometry and variables:
    Molecular point group: c1

    Geometry (in Angstrom), charge = 0, multiplicity = 1:

    O            3.223835546546     0.971774484835    -0.609284307743
    C            2.701006941282     0.063183688243    -0.048769160001
    C            1.245462490468    -0.007904440889     0.345057061609
    O            3.350166426651    -1.036291128846     0.313696068555
    C            0.452516856071     1.231964047816    -0.062477883092
    H            0.840366437789    -0.912876856680    -0.095519865692
    H            1.208959741746    -0.159434509070     1.420884921411
    C           -1.001324510846     1.221525916170     0.421983963150
    H            0.479431492463     1.335702110034    -1.143046452539
    H            0.952989723046     2.108400679989     0.334766173357
    C           -1.883817553683     0.140212477281    -0.208175555395
    H           -1.435706311063     2.194571603795     0.204686902764
    H           -1.021572324181     1.117763143982     1.505882157269
    C           -3.348180389825     0.241078246597     0.223654600042
    H           -1.822846052429     0.215972134128    -1.292773863304
    H           -1.508742578644    -0.847359484228     0.050639277301
    C           -4.238272426523    -0.838334552644    -0.394989570242
    H           -3.735619495079     1.222452711984    -0.044712068327
    H           -3.408772353967     0.176920023588     1.308966627503
    C           -5.699416764467    -0.729233232744     0.039594360020
    H           -4.179027601103    -0.775566114167    -1.479511776295
    H           -3.854432932586    -1.819993255228    -0.125190131867
    H           -6.304542534079    -1.507688187727    -0.414766410895
    H           -6.123282527472     0.228944984943    -0.247497572469
    H           -5.795838282900    -0.822365420192     1.117695679731
    C            4.730118694342    -1.099676386255     0.002888475653
    H            4.883512418958    -1.025274397156    -1.064044328402
    H            5.070468841619    -2.057621942296     0.364130776211
    H            5.267248632644    -0.301650391586     0.495114187334

  Mulliken Charges: (a.u.)
   Center  Symbol    Alpha    Beta     Spin     Total
       1     O     4.28596  4.28596  0.00000 -0.57193
       2     C     2.60483  2.60483  0.00000  0.79034
       3     C     3.20974  3.20974  0.00000 -0.41947
       4     O     4.30747  4.30747  0.00000 -0.61493
       5     C     3.15378  3.15378  0.00000 -0.30756
       6     H     0.39880  0.39880  0.00000  0.20240
       7     H     0.40123  0.40123  0.00000  0.19753
       8     C     3.15663  3.15663  0.00000 -0.31326
       9     H     0.41309  0.41309  0.00000  0.17382
      10     H     0.40874  0.40874  0.00000  0.18253
      11     C     3.15507  3.15507  0.00000 -0.31014
      12     H     0.41823  0.41823  0.00000  0.16355
      13     H     0.42386  0.42386  0.00000  0.15228
      14     C     3.15029  3.15029  0.00000 -0.30059
      15     H     0.42261  0.42261  0.00000  0.15478
      16     H     0.42361  0.42361  0.00000  0.15278
      17     C     3.15146  3.15146  0.00000 -0.30291
      18     H     0.42331  0.42331  0.00000  0.15337
      19     H     0.42398  0.42398  0.00000  0.15205
      20     C     3.23935  3.23935  0.00000 -0.47870
      21     H     0.42280  0.42280  0.00000  0.15440
      22     H     0.42344  0.42344  0.00000  0.15313
      23     H     0.41923  0.41923  0.00000  0.16154
      24     H     0.42154  0.42154  0.00000  0.15691
      25     H     0.42183  0.42183  0.00000  0.15634
      26     C     3.09241  3.09241  0.00000 -0.18482
      27     H     0.40896  0.40896  0.00000  0.18208
      28     H     0.40851  0.40851  0.00000  0.18298
      29     H     0.40925  0.40925  0.00000  0.18150

   Total alpha = 44.00000, Total beta = 44.00000, Total charge =  0.00000
