  ==> Input File <==

--------------------------------------------------------------------------
set {
	reference rhf
	basis 6-31G*
}

set_num_threads( 1 )
memory 2 gb

molecule MOL {
0 1

H	 -1.502771	 -1.326448	 -0.502599
O	 -2.310168	 -0.871793	 -0.309793
C	 -2.026376	 0.340750	 0.341611
C	 -0.673256	 0.843270	 -0.132153
H	 -2.792215	 1.080697	 0.115987
H	 -2.013526	 0.200402	 1.421792
C	 0.486613	 -0.083066	 0.235839
H	 -0.715586	 0.970948	 -1.210718
H	 -0.508072	 1.829858	 0.297090
C	 1.840406	 0.433480	 -0.254303
H	 0.300215	 -1.068318	 -0.178947
H	 0.519509	 -0.203625	 1.318070
C	 3.000220	 -0.489290	 0.118523
H	 1.809207	 0.553576	 -1.335192
H	 2.021860	 1.424500	 0.157276
H	 2.864959	 -1.479103	 -0.307933
H	 3.946603	 -0.099227	 -0.243630
H	 3.080049	 -0.602997	 1.196117

	symmetry c1
}
set optking {
	frozen_dihedral = ("
		14 10 7 11,
		10 7 4 8,
		2 3 4 8
	")
}

ee = energy('scf')
oeprop('DIPOLE', 'QUADRUPOLE', 'MULLIKEN_CHARGES')
f=open( 'psi4out.xyz', 'w' )
f.write( "18  " )
f.write( str(ee) + "\n" )
f.write( MOL.save_string_xyz() )
f.close()
--------------------------------------------------------------------------

    Molecular point group: c1

    Geometry (in Angstrom), charge = 0, multiplicity = 1:

       Center              X                  Y                   Z               Mass
    ------------   -----------------  -----------------  -----------------  -----------------
           H         -1.521450231561    -1.325173768965    -0.496833179025     1.007825032070
           O         -2.328847231561    -0.870518768965    -0.304027179025    15.994914619560
           C         -2.045055231561     0.342024231035     0.347376820975    12.000000000000
           C         -0.691935231561     0.844544231035    -0.126387179025    12.000000000000
           H         -2.810894231561     1.081971231035     0.121752820975     1.007825032070
           H         -2.032205231561     0.201676231035     1.427557820975     1.007825032070
           C          0.467933768439    -0.081791768965     0.241604820975    12.000000000000
           H         -0.734265231561     0.972222231035    -1.204952179025     1.007825032070
           H         -0.526751231561     1.831132231035     0.302855820975     1.007825032070
           C          1.821726768439     0.434754231035    -0.248537179025    12.000000000000
           H          0.281535768439    -1.067043768965    -0.173181179025     1.007825032070
           H          0.500829768439    -0.202350768965     1.323835820975     1.007825032070
           C          2.981540768439    -0.488015768965     0.124288820975    12.000000000000
           H          1.790527768439     0.554850231035    -1.329426179025     1.007825032070
           H          2.003180768439     1.425774231035     0.163041820975     1.007825032070
           H          2.846279768439    -1.477828768965    -0.302167179025     1.007825032070
           H          3.927923768439    -0.097952768965    -0.237864179025     1.007825032070
           H          3.061369768439    -0.601722768965     1.201882820975     1.007825032070

  Charge       = 0
  Multiplicity = 1
  Basis Set: 6-31G*
  Basis Set:

    Orbital Energies (a.u.)
    -----------------------

    Doubly Occupied:

       1A    -20.547349     2A    -11.267443     3A    -11.227945
       4A    -11.224516     5A    -11.220453     6A    -11.215154
       7A     -1.357715     8A     -1.088184     9A     -1.015388
      10A     -0.925711    11A     -0.834545    12A     -0.798663
      13A     -0.675237    14A     -0.661740    15A     -0.624160
      16A     -0.615794    17A     -0.577902    18A     -0.566046
      19A     -0.535748    20A     -0.505921    21A     -0.494337
      22A     -0.481498    23A     -0.474805    24A     -0.449882
      25A     -0.429640

  @DF-RHF Final Energy:  -271.17441391988598

   => Energetics <=

    Nuclear Repulsion Energy =            250.6181708638388557
    One-Electron Energy =                -863.9534193707939949
    Two-Electron Energy =                 342.1608345870694166
    DFT Exchange-Correlation Energy =       0.0000000000000000
    Empirical Dispersion Energy =           0.0000000000000000
    PCM Polarization Energy =               0.0000000000000000
    EFP Energy =                            0.0000000000000000
    Total Energy =                       -271.1744139198857511

  Mulliken Charges: (a.u.)
   Center  Symbol    Alpha    Beta     Spin     Total
       1     H     0.27464  0.27464  0.00000  0.45072
       2     O     4.37924  4.37924  0.00000 -0.75847
       3     C     2.98113  2.98113  0.00000  0.03774
       4     C     3.18024  3.18024  0.00000 -0.36048
       5     H     0.41743  0.41743  0.00000  0.16514
       6     H     0.43051  0.43051  0.00000  0.13899
       7     C     3.15970  3.15970  0.00000 -0.31941
       8     H     0.41500  0.41500  0.00000  0.16999
       9     H     0.42059  0.42059  0.00000  0.15882
      10     C     3.15051  3.15051  0.00000 -0.30102
      11     H     0.43265  0.43265  0.00000  0.13470
      12     H     0.41811  0.41811  0.00000  0.16378
      13     C     3.24002  3.24002  0.00000 -0.48003
      14     H     0.42078  0.42078  0.00000  0.15843
      15     H     0.42016  0.42016  0.00000  0.15968
      16     H     0.42117  0.42117  0.00000  0.15767
      17     H     0.41747  0.41747  0.00000  0.16505
      18     H     0.42065  0.42065  0.00000  0.15870

   Total alpha = 25.00000, Total beta = 25.00000, Total charge =  0.00000
