  ==> Input File <==

--------------------------------------------------------------------------
set {
	reference rhf
	basis cc-pvtz
}

set_num_threads( 4 )
memory 2 gb

molecule MOL {
0 1

H	 -3.401682	 -1.036167	 0.000000
O	 -3.113760	 -0.140926	 0.000000
C	 -1.775087	 -0.058754	 0.000000
C	 -1.109473	 1.143581	 0.204415
C	 -1.062118	 -1.226817	 -0.213276
H	 -1.669544	 2.045573	 0.369212
C	 0.264866	 1.171640	 0.194506
H	 -1.594845	 -2.143346	 -0.368826
C	 0.313724	 -1.181680	 -0.220196
H	 0.790207	 2.092861	 0.350962
C	 0.993638	 0.009635	 -0.017875
H	 0.867864	 -2.087273	 -0.385563
C	 2.468141	 0.033438	 -0.029615
O	 3.133947	 1.001041	 0.133486
H	 2.940691	 -0.938899	 -0.205847

	symmetry c1
}
set optking {
	frozen_dihedral = ("
		5 3 2 1
	")
}

ee = optimize('scf')
oeprop('DIPOLE', 'QUADRUPOLE', 'MULLIKEN_CHARGES')
f=open( 'psi4out.xyz', 'w' )
f.write( "15  " )
f.write( str(ee) + "\n" )
f.write( MOL.save_string_xyz() )
f.close()
--------------------------------------------------------------------------

    Molecular point group: c1
  Charge       = 0
  Multiplicity = 1
  Basis Set: CC-PVTZ
  Basis Set:
  @DF-RHF Final Energy:  -418.44033423015395
    Total Energy =                       -418.4403342301538942
    Molecular point group: c1
  Basis Set: CC-PVTZ
  Basis Set:
  Basis Set: CC-PVTZ
  Basis Set:
  @DF-RHF Final Energy:  -418.44219677518129
    Total Energy =                       -418.4421967751808324
  Basis Set: CC-PVTZ
  Basis Set:
  Basis Set: CC-PVTZ
  Basis Set:
  @DF-RHF Final Energy:  -418.44235780016180
    Total Energy =                       -418.4423578001618580
  Basis Set: CC-PVTZ
  Basis Set:
  Basis Set: CC-PVTZ
  Basis Set:
  @DF-RHF Final Energy:  -418.44216943298903
    Total Energy =                       -418.4421694329889760
  Basis Set: CC-PVTZ
  Basis Set:
  Basis Set: CC-PVTZ
  Basis Set:
  @DF-RHF Final Energy:  -418.44237991913542
    Total Energy =                       -418.4423799191349644
  Basis Set: CC-PVTZ
  Basis Set:
  Basis Set: CC-PVTZ
  Basis Set:
  @DF-RHF Final Energy:  -418.44238242611766
    Total Energy =                       -418.4423824261176605
  Basis Set: CC-PVTZ
  Basis Set:
  Charge       = 0
  Multiplicity = 1
  Basis Set: CC-PVTZ
  Basis Set:

    Orbital Energies (a.u.)
    -----------------------

    Doubly Occupied:

       1A    -20.604736     2A    -20.545539     3A    -11.322675
       4A    -11.322653     5A    -11.260660     6A    -11.251957
       7A    -11.242479     8A    -11.237157     9A    -11.236415
      10A     -1.437800    11A     -1.401822    12A     -1.175287
      13A     -1.046744    14A     -1.040407    15A     -0.897329
      16A     -0.861719    17A     -0.806044    18A     -0.761651
      19A     -0.699356    20A     -0.690948    21A     -0.642819
      22A     -0.629164    23A     -0.617078    24A     -0.611330
      25A     -0.585593    26A     -0.561632    27A     -0.555354
      28A     -0.509302    29A     -0.490288    30A     -0.421469
      31A     -0.362005    32A     -0.332401

  @DF-RHF Final Energy:  -418.44238289806083

   => Energetics <=

    Nuclear Repulsion Energy =            402.2747161241064759
    One-Electron Energy =               -1367.1105739672991604
    Two-Electron Energy =                 546.3934749451316293
    DFT Exchange-Correlation Energy =       0.0000000000000000
    Empirical Dispersion Energy =           0.0000000000000000
    PCM Polarization Energy =               0.0000000000000000
    EFP Energy =                            0.0000000000000000
    Total Energy =                       -418.4423828980610551
    Molecular point group: c1
  Basis Set: CC-PVTZ
  Basis Set:

  -Total Gradient:
     Atom            X                  Y                   Z
    ------   -----------------  -----------------  -----------------
       1       -0.000020434588     0.000003125573     0.001230349362
       2       -0.000085268860     0.000056500606    -0.002068072676
       3       -0.000010876445    -0.000177079599     0.001797959853
       4        0.000052897026    -0.000006045287    -0.000025699942
       5        0.000047256780     0.000110767285    -0.000927457712
       6        0.000003554507     0.000000127006     0.000001145100
       7        0.000011275901    -0.000009701453    -0.000009849194
       8       -0.000004483999     0.000003707326    -0.000001152312
       9       -0.000012520630    -0.000033172266    -0.000025231585
      10        0.000001213861     0.000001133574     0.000004213884
      11       -0.000005777412     0.000016409829     0.000012310185
      12        0.000009477467     0.000007873763     0.000005170522
      13       -0.000014493423     0.000007903114     0.000007408190
      14        0.000036086603     0.000006908507    -0.000001883850
      15       -0.000007906785     0.000011542022     0.000000790173

  **** Optimization is complete! (in 7 steps) ****
    Final optimized geometry and variables:
    Molecular point group: c1

    Geometry (in Angstrom), charge = 0, multiplicity = 1:

    H           -3.463169178323    -1.028947821263    -0.004956632702
    O           -3.108852757768    -0.157711373996     0.001873564465
    C           -1.767447969340    -0.175929278421    -0.004434513676
    C           -1.113080000268     1.035921317511     0.196587758445
    C           -1.044007396057    -1.334155238327    -0.221815007612
    H           -1.697439015927     1.919455672465     0.359226270361
    C            0.256462628341     1.075376293861     0.184040950740
    H           -1.552040823232    -2.266324081532    -0.385568647076
    C            0.336404624879    -1.278111305505    -0.227804477418
    H            0.774282276560     2.001175811037     0.338837747547
    C            1.000431121059    -0.083735099721    -0.027153240501
    H            0.897816682200    -2.178920735580    -0.394616445179
    C            2.474796585678    -0.047150014718    -0.039665808568
    O            3.132582263339     0.925665164363     0.122422010554
    H            2.954606090101    -1.016285120449    -0.215717954149

  Mulliken Charges: (a.u.)
   Center  Symbol    Alpha    Beta     Spin     Total
       1     H     0.38548  0.38548  0.00000  0.22904
       2     O     4.16641  4.16641  0.00000 -0.33281
       3     C     2.84438  2.84438  0.00000  0.31124
       4     C     3.10725  3.10725  0.00000 -0.21450
       5     C     3.13398  3.13398  0.00000 -0.26797
       6     H     0.41533  0.41533  0.00000  0.16934
       7     C     3.05990  3.05990  0.00000 -0.11980
       8     H     0.43175  0.43175  0.00000  0.13649
       9     C     3.07400  3.07400  0.00000 -0.14799
      10     H     0.40727  0.40727  0.00000  0.18546
      11     C     3.00243  3.00243  0.00000 -0.00485
      12     H     0.42121  0.42121  0.00000  0.15757
      13     C     2.91132  2.91132  0.00000  0.17737
      14     O     4.17826  4.17826  0.00000 -0.35652
      15     H     0.46104  0.46104  0.00000  0.07793

   Total alpha = 32.00000, Total beta = 32.00000, Total charge =  0.00000
