  ==> Input File <==

--------------------------------------------------------------------------
set {
	reference rhf
	basis 6-31G*
}

set_num_threads( 1 )
memory 2 gb

molecule MOL {
0 1

O	 -0.287652	 -2.138251	 -0.803190
C	 -1.325716	 -1.697223	 -0.425656
C	 -2.607236	 -2.488932	 -0.379031
O	 -1.481751	 -0.454642	 0.000584
H	 -2.457092	 -3.357128	 0.251488
H	 -3.431129	 -1.900263	 -0.003387
H	 -2.833270	 -2.844103	 -1.377350
C	 -0.334255	 0.388708	 0.000906
C	 0.891947	 -0.504646	 0.000751
H	 -0.365390	 1.025305	 -0.873475
H	 -0.365484	 1.024911	 0.875569
C	 2.191998	 0.301789	 0.000897
H	 0.855148	 -1.151283	 -0.871571
H	 0.855132	 -1.151660	 0.872805
C	 3.441114	 -0.581407	 0.000108
H	 2.215074	 0.954890	 -0.869742
H	 2.215465	 0.953923	 0.872248
C	 4.739576	 0.224112	 -0.001102
H	 3.419457	 -1.233487	 -0.870178
H	 3.420834	 -1.233096	 0.870717
H	 4.804918	 0.861552	 -0.878265
H	 5.606527	 -0.429058	 -0.001824
H	 4.806469	 0.861674	 0.875853

	symmetry c1
}
set optking {
	frozen_dihedral = ("
		13 9 8 10,
		16 12 9 13,
		19 15 12 16,
		1 2 4 8
	")
}

ee = energy('scf')
oeprop('DIPOLE', 'QUADRUPOLE', 'MULLIKEN_CHARGES')
f=open( 'psi4out.xyz', 'w' )
f.write( "23  " )
f.write( str(ee) + "\n" )
f.write( MOL.save_string_xyz() )
f.close()
--------------------------------------------------------------------------

    Molecular point group: c1

    Geometry (in Angstrom), charge = 0, multiplicity = 1:

       Center              X                  Y                   Z               Mass
    ------------   -----------------  -----------------  -----------------  -----------------
           O         -0.860760330524    -1.358526122717    -0.621705121384    15.994914619560
           C         -1.898824330524    -0.917498122717    -0.244171121384    12.000000000000
           C         -3.180344330524    -1.709207122717    -0.197546121384    12.000000000000
           O         -2.054859330524     0.325082877283     0.182068878616    15.994914619560
           H         -3.030200330524    -2.577403122717     0.432972878616     1.007825032070
           H         -4.004237330524    -1.120538122717     0.178097878616     1.007825032070
           H         -3.406378330524    -2.064378122717    -1.195865121384     1.007825032070
           C         -0.907363330524     1.168432877283     0.182390878616    12.000000000000
           C          0.318838669476     0.275078877283     0.182235878616    12.000000000000
           H         -0.938498330524     1.805029877283    -0.691990121384     1.007825032070
           H         -0.938592330524     1.804635877283     1.057053878616     1.007825032070
           C          1.618889669476     1.081513877283     0.182381878616    12.000000000000
           H          0.282039669476    -0.371558122717    -0.690086121384     1.007825032070
           H          0.282023669476    -0.371935122717     1.054289878616     1.007825032070
           C          2.868005669476     0.198317877283     0.181592878616    12.000000000000
           H          1.641965669476     1.734614877283    -0.688257121384     1.007825032070
           H          1.642356669476     1.733647877283     1.053732878616     1.007825032070
           C          4.166467669476     1.003836877283     0.180382878616    12.000000000000
           H          2.846348669476    -0.453762122717    -0.688693121384     1.007825032070
           H          2.847725669476    -0.453371122717     1.052201878616     1.007825032070
           H          4.231809669476     1.641276877283    -0.696780121384     1.007825032070
           H          5.033418669476     0.350666877283     0.179660878616     1.007825032070
           H          4.233360669476     1.641398877283     1.057337878616     1.007825032070

  Charge       = 0
  Multiplicity = 1
  Basis Set: 6-31G*
  Basis Set:

    Orbital Energies (a.u.)
    -----------------------

    Doubly Occupied:

       1A    -20.608470     2A    -20.537092     3A    -11.385938
       4A    -11.281436     5A    -11.236972     6A    -11.206420
       7A    -11.201751     8A    -11.201332     9A    -11.182421
      10A     -1.481244    11A     -1.374214    12A     -1.080793
      13A     -1.040147    14A     -0.993564    15A     -0.926121
      16A     -0.851801    17A     -0.793116    18A     -0.770789
      19A     -0.706742    20A     -0.692513    21A     -0.663522
      22A     -0.630614    23A     -0.603529    24A     -0.588877
      25A     -0.575230    26A     -0.562319    27A     -0.555275
      28A     -0.531922    29A     -0.529486    30A     -0.523901
      31A     -0.497509    32A     -0.469025    33A     -0.459205
      34A     -0.443843    35A     -0.436242    36A     -0.370531

  @DF-RHF Final Energy:  -422.90406030942080

   => Energetics <=

    Nuclear Repulsion Energy =            472.9298406196438123
    One-Electron Energy =               -1513.6797520679731406
    Two-Electron Energy =                 617.8458511389085288
    DFT Exchange-Correlation Energy =       0.0000000000000000
    Empirical Dispersion Energy =           0.0000000000000000
    PCM Polarization Energy =               0.0000000000000000
    EFP Energy =                            0.0000000000000000
    Total Energy =                       -422.9040603094208564

  Mulliken Charges: (a.u.)
   Center  Symbol    Alpha    Beta     Spin     Total
       1     O     4.29087  4.29087  0.00000 -0.58173
       2     C     2.60390  2.60390  0.00000  0.79219
       3     C     3.28702  3.28702  0.00000 -0.57404
       4     O     4.31526  4.31526  0.00000 -0.63052
       5     H     0.39690  0.39690  0.00000  0.20620
       6     H     0.39816  0.39816  0.00000  0.20367
       7     H     0.39678  0.39678  0.00000  0.20644
       8     C     2.99096  2.99096  0.00000  0.01808
       9     C     3.20068  3.20068  0.00000 -0.40136
      10     H     0.41532  0.41532  0.00000  0.16936
      11     H     0.41086  0.41086  0.00000  0.17828
      12     C     3.15034  3.15034  0.00000 -0.30068
      13     H     0.35696  0.35696  0.00000  0.28607
      14     H     0.42259  0.42259  0.00000  0.15482
      15     C     3.14861  3.14861  0.00000 -0.29722
      16     H     0.42949  0.42949  0.00000  0.14102
      17     H     0.43427  0.43427  0.00000  0.13147
      18     C     3.23871  3.23871  0.00000 -0.47741
      19     H     0.42151  0.42151  0.00000  0.15698
      20     H     0.42383  0.42383  0.00000  0.15235
      21     H     0.42317  0.42317  0.00000  0.15365
      22     H     0.42069  0.42069  0.00000  0.15862
      23     H     0.42312  0.42312  0.00000  0.15376

   Total alpha = 36.00000, Total beta = 36.00000, Total charge =  0.00000
