  ==> Input File <==

--------------------------------------------------------------------------
set {
	reference rhf
	basis 6-31G*
}

set_num_threads( 1 )
memory 2 gb

molecule MOL {
0 1

H	 2.591676	 2.013956	 0.335017
O	 3.341076	 1.666752	 -0.126416
C	 3.569581	 0.339145	 0.272707
C	 2.348559	 -0.315933	 0.908872
H	 3.843935	 -0.195720	 -0.627472
H	 4.419817	 0.286352	 0.951744
C	 1.903753	 0.337502	 2.219612
H	 1.531306	 -0.290679	 0.192753
H	 2.581059	 -1.364352	 1.088116
C	 0.710030	 -0.375859	 2.860673
H	 1.647406	 1.376412	 2.031680
H	 2.736732	 0.342166	 2.922794
C	 0.277683	 0.186691	 4.219700
H	 -0.134471	 -0.347786	 2.174469
H	 0.962130	 -1.426600	 2.987512
C	 -0.294478	 1.606300	 4.177048
H	 -0.474109	 -0.477524	 4.640941
H	 1.123057	 0.158917	 4.905564
C	 -0.808342	 2.083012	 5.537242
H	 -1.107678	 1.644024	 3.453589
H	 0.460841	 2.303782	 3.823053
C	 -1.374149	 3.502185	 5.498830
H	 -1.575734	 1.398432	 5.892132
H	 0.000355	 2.036791	 6.263711
H	 -2.206779	 3.573629	 4.804678
H	 -1.731678	 3.810136	 6.476569
H	 -0.619618	 4.217113	 5.182721

	symmetry c1
}
set optking {
	frozen_dihedral = ("
		14 10 7 4,
		14 10 13 16,
		10 7 4 8,
		8 4 3 2,
		10 13 16 20,
		20 16 19 22
	")
}

ee = energy('scf')
oeprop('DIPOLE', 'QUADRUPOLE', 'MULLIKEN_CHARGES')
f=open( 'psi4out.xyz', 'w' )
f.write( "27  " )
f.write( str(ee) + "\n" )
f.write( MOL.save_string_xyz() )
f.close()
--------------------------------------------------------------------------

    Molecular point group: c1

    Geometry (in Angstrom), charge = 0, multiplicity = 1:

       Center              X                  Y                   Z               Mass
    ------------   -----------------  -----------------  -----------------  -----------------
           H          1.488289516480     0.982538861148    -2.464088236824     1.007825032070
           O          2.237689516480     0.635334861148    -2.925521236824    15.994914619560
           C          2.466194516480    -0.692272138852    -2.526398236824    12.000000000000
           C          1.245172516480    -1.347350138852    -1.890233236824    12.000000000000
           H          2.740548516480    -1.227137138852    -3.426577236824     1.007825032070
           H          3.316430516480    -0.745065138852    -1.847361236824     1.007825032070
           C          0.800366516480    -0.693915138852    -0.579493236824    12.000000000000
           H          0.427919516480    -1.322096138852    -2.606352236824     1.007825032070
           H          1.477672516480    -2.395769138852    -1.710989236824     1.007825032070
           C         -0.393356483520    -1.407276138852     0.061567763176    12.000000000000
           H          0.544019516480     0.344994861148    -0.767425236824     1.007825032070
           H          1.633345516480    -0.689251138852     0.123688763176     1.007825032070
           C         -0.825703483520    -0.844726138852     1.420594763176    12.000000000000
           H         -1.237857483520    -1.379203138852    -0.624636236824     1.007825032070
           H         -0.141256483520    -2.458017138852     0.188406763176     1.007825032070
           C         -1.397864483520     0.574882861148     1.377942763176    12.000000000000
           H         -1.577495483520    -1.508941138852     1.841835763176     1.007825032070
           H          0.019670516480    -0.872500138852     2.106458763176     1.007825032070
           C         -1.911728483520     1.051594861148     2.738136763176    12.000000000000
           H         -2.211064483520     0.612606861148     0.654483763176     1.007825032070
           H         -0.642545483520     1.272364861148     1.023947763176     1.007825032070
           C         -2.477535483520     2.470767861148     2.699724763176    12.000000000000
           H         -2.679120483520     0.367014861148     3.093026763176     1.007825032070
           H         -1.103031483520     1.005373861148     3.464605763176     1.007825032070
           H         -3.310165483520     2.542211861148     2.005572763176     1.007825032070
           H         -2.835064483520     2.778718861148     3.677463763176     1.007825032070
           H         -1.723004483520     3.185695861148     2.383615763176     1.007825032070

  Charge       = 0
  Multiplicity = 1
  Basis Set: 6-31G*
  Basis Set:

    Orbital Energies (a.u.)
    -----------------------

    Doubly Occupied:

       1A    -20.548492     2A    -11.265571     3A    -11.226004
       4A    -11.223178     5A    -11.221497     6A    -11.218487
       7A    -11.217729     8A    -11.216693     9A    -11.210610
      10A     -1.356948    11A     -1.099068    12A     -1.064917
      13A     -1.013946    14A     -0.950484    15A     -0.891310
      16A     -0.825276    17A     -0.805839    18A     -0.781784
      19A     -0.670525    20A     -0.659593    21A     -0.647415
      22A     -0.620202    23A     -0.609110    24A     -0.585215
      25A     -0.578570    26A     -0.563057    27A     -0.541843
      28A     -0.529895    29A     -0.508971    30A     -0.495175
      31A     -0.489358    32A     -0.480229    33A     -0.468643
      34A     -0.463300    35A     -0.451068    36A     -0.439217
      37A     -0.428551

  @DF-RHF Final Energy:  -388.27879515053871

   => Energetics <=

    Nuclear Repulsion Energy =            460.2260794734527281
    One-Electron Energy =               -1438.2741648113058091
    Two-Electron Energy =                 589.7692901873128903
    DFT Exchange-Correlation Energy =       0.0000000000000000
    Empirical Dispersion Energy =           0.0000000000000000
    PCM Polarization Energy =               0.0000000000000000
    EFP Energy =                            0.0000000000000000
    Total Energy =                       -388.2787951505401907

  Mulliken Charges: (a.u.)
   Center  Symbol    Alpha    Beta     Spin     Total
       1     H     0.27700  0.27700  0.00000  0.44600
       2     O     4.37903  4.37903  0.00000 -0.75807
       3     C     2.97753  2.97753  0.00000  0.04493
       4     C     3.18431  3.18431  0.00000 -0.36861
       5     H     0.41955  0.41955  0.00000  0.16091
       6     H     0.42966  0.42966  0.00000  0.14069
       7     C     3.15931  3.15931  0.00000 -0.31863
       8     H     0.41660  0.41660  0.00000  0.16679
       9     H     0.41810  0.41810  0.00000  0.16380
      10     C     3.15230  3.15230  0.00000 -0.30460
      11     H     0.42914  0.42914  0.00000  0.14171
      12     H     0.41874  0.41874  0.00000  0.16252
      13     C     3.15362  3.15362  0.00000 -0.30724
      14     H     0.42250  0.42250  0.00000  0.15500
      15     H     0.42028  0.42028  0.00000  0.15945
      16     C     3.15320  3.15320  0.00000 -0.30641
      17     H     0.42063  0.42063  0.00000  0.15875
      18     H     0.42303  0.42303  0.00000  0.15394
      19     C     3.15128  3.15128  0.00000 -0.30256
      20     H     0.42437  0.42437  0.00000  0.15127
      21     H     0.42289  0.42289  0.00000  0.15422
      22     C     3.23939  3.23939  0.00000 -0.47879
      23     H     0.42272  0.42272  0.00000  0.15455
      24     H     0.42258  0.42258  0.00000  0.15483
      25     H     0.42171  0.42171  0.00000  0.15659
      26     H     0.41880  0.41880  0.00000  0.16240
      27     H     0.42172  0.42172  0.00000  0.15656

   Total alpha = 37.00000, Total beta = 37.00000, Total charge = -0.00000
