                              Psi4 1.0.54 Driver

  ==> Input File <==

--------------------------------------------------------------------------
set {
	reference rhf
	basis cc-pvtz
}

set_num_threads( 4 )
memory 2 gb

molecule MOL {
0 1

H	 -2.816458	 -0.841657	 -0.064679
N	 -1.878861	 -0.711874	 0.250184
C	 -1.341419	 0.551458	 -0.220231
H	 -1.333674	 -1.468530	 -0.105118
C	 0.082190	 0.731516	 0.254705
H	 -1.357065	 0.652078	 -1.304747
H	 -1.939897	 1.357530	 0.189797
O	 0.857964	 1.188856	 -0.811467
H	 0.110727	 1.449577	 1.073086
H	 0.468330	 -0.217337	 0.620084
C	 2.209042	 1.330140	 -0.521906
H	 2.704104	 1.689453	 -1.412520
H	 2.370950	 2.046628	 0.280668
H	 2.654947	 0.381825	 -0.231337

	symmetry c1
}
set optking {
	frozen_dihedral = ("
		8 5 3 6
	")
}

ee,wfn = optimize('scf', return_wfn=True)
oeprop( wfn, 'DIPOLE', 'QUADRUPOLE', 'MULLIKEN_CHARGES')
f=open( 'psi4out.xyz', 'w' )
f.write( "14  " )
f.write( str(ee) + "\n" )
f.write( MOL.save_string_xyz() )
f.close()
--------------------------------------------------------------------------

    Molecular point group: c1
  Charge       = 0
  Multiplicity = 1
  Basis Set: CC-PVTZ
  Basis Set:
  @DF-RHF Final Energy:  -248.21898808054024
    Total Energy =                       -248.2189880805402709
    Molecular point group: c1
  Basis Set: CC-PVTZ
  Basis Set:
  Basis Set: CC-PVTZ
  Basis Set:
  @DF-RHF Final Energy:  -248.21967659033143
    Total Energy =                       -248.2196765903313462
  Basis Set: CC-PVTZ
  Basis Set:
  Basis Set: CC-PVTZ
  Basis Set:
  @DF-RHF Final Energy:  -248.21988483324185
    Total Energy =                       -248.2198848332416787
  Basis Set: CC-PVTZ
  Basis Set:
  Basis Set: CC-PVTZ
  Basis Set:
  @DF-RHF Final Energy:  -248.21990666635929
    Total Energy =                       -248.2199066663592930
  Basis Set: CC-PVTZ
  Basis Set:
  Charge       = 0
  Multiplicity = 1
  Basis Set: CC-PVTZ
  Basis Set:

    Orbital Energies (a.u.)
    -----------------------

    Doubly Occupied:

       1A    -20.548728     2A    -15.531425     3A    -11.262970
       4A    -11.262182     5A    -11.239924     6A     -1.382564
       7A     -1.180960     8A     -0.997981     9A     -0.901012
      10A     -0.824213    11A     -0.687555    12A     -0.665652
      13A     -0.654698    14A     -0.620337    15A     -0.589037
      16A     -0.564688    17A     -0.517260    18A     -0.498564
      19A     -0.471927    20A     -0.417451    21A     -0.387521

  @DF-RHF Final Energy:  -248.21990791170913

   => Energetics <=

    Nuclear Repulsion Energy =            191.0849082465542779
    One-Electron Energy =                -716.1963347165461755
    Two-Electron Energy =                 276.8915185582831100
    DFT Exchange-Correlation Energy =       0.0000000000000000
    Empirical Dispersion Energy =           0.0000000000000000
    PCM Polarization Energy =               0.0000000000000000
    EFP Energy =                            0.0000000000000000
    Total Energy =                       -248.2199079117087877
    Molecular point group: c1
  Basis Set: CC-PVTZ
  Basis Set:

  -Total Gradient:
     Atom            X                  Y                   Z
    ------   -----------------  -----------------  -----------------
       1       -0.000014090751     0.000000478486    -0.000018817365
       2        0.000038434345    -0.000047094945     0.000019790358
       3        0.000726558131    -0.004349667773    -0.000575161173
       4       -0.000015698579    -0.000024790749    -0.000009606095
       5       -0.000697529515     0.003704972182     0.000887296096
       6       -0.000481382308     0.003058176667     0.000321897816
       7       -0.000005306729     0.000019996249    -0.000011105789
       8        0.000467989097    -0.002351257977    -0.000639251239
       9       -0.000000609851     0.000005513558    -0.000019760790
      10        0.000020224788    -0.000012827076    -0.000002418312
      11       -0.000012675439     0.000006322483     0.000092071624
      12       -0.000037881366    -0.000015700391    -0.000013057058
      13        0.000016830479     0.000004314356    -0.000010043781
      14       -0.000004862298     0.000001564929    -0.000021834295

  **** Optimization is complete! (in 5 steps) ****
    Final optimized geometry and variables:
    Molecular point group: c1

    Geometry (in Angstrom), charge = 0, multiplicity = 1:

    H           -2.882893690914    -1.362511949163     0.295274427923
    N           -1.902984227033    -1.317967752061     0.476753027424
    C           -1.339900599314    -0.070916319666    -0.012485469827
    H           -1.482035427504    -2.101765723700     0.022879717884
    C            0.105479137913     0.099448226978     0.456096240143
    H           -1.350055625856     0.036122721422    -1.093461778614
    H           -1.946050826082     0.737367274265     0.378376400256
    O            0.884910430492     0.555794356384    -0.607177504356
    H            0.165423234892     0.792697916953     1.291785914787
    H            0.484570785208    -0.858113470182     0.807141006777
    C            2.214834425879     0.785679004518    -0.281933375659
    H            2.721188924906     1.122541932440    -1.174969994800
    H            2.312370537029     1.550805499090     0.485240030066
    H            2.700431590942    -0.120368217014     0.074843292977

  Mulliken Charges: (a.u.)
   Center  Symbol    Alpha    Beta     Spin     Total
       1     H     0.42787  0.42787  0.00000  0.14425
       2     N     3.69329  3.69329  0.00000 -0.38657
       3     C     3.03464  3.03464  0.00000 -0.06928
       4     H     0.42820  0.42820  0.00000  0.14360
       5     C     2.96146  2.96146  0.00000  0.07709
       6     H     0.45777  0.45777  0.00000  0.08446
       7     H     0.45742  0.45742  0.00000  0.08515
       8     O     4.17345  4.17345  0.00000 -0.34690
       9     H     0.47322  0.47322  0.00000  0.05355
      10     H     0.47265  0.47265  0.00000  0.05470
      11     C     3.02859  3.02859  0.00000 -0.05717
      12     H     0.44733  0.44733  0.00000  0.10533
      13     H     0.47148  0.47148  0.00000  0.05703
      14     H     0.47262  0.47262  0.00000  0.05476

   Total alpha = 21.00000, Total beta = 21.00000, Total charge =  0.00000

*** Psi4 exiting successfully. Buy a developer a beer!
