  ==> Input File <==

--------------------------------------------------------------------------
set {
	reference rhf
	basis cc-pvtz
}

set_num_threads( 4 )
memory 2 gb

molecule MOL {
0 1

H	 2.828711	 -0.346904	 0.001083
C	 1.876752	 0.015931	 -0.363450
C	 0.776285	 -0.474665	 0.563092
H	 1.728113	 -0.357244	 -1.367440
H	 1.906171	 1.096574	 -0.386153
N	 -0.540022	 0.017605	 0.071630
H	 0.707111	 -1.548969	 0.573035
H	 0.886169	 -0.084184	 1.560432
O	 -0.954839	 -0.454407	 -0.933022
O	 -1.070230	 0.868622	 0.703331

	symmetry c1
}
set optking {
	frozen_dihedral = ("
		9 6 3 2
	")
}

ee = optimize('scf')
oeprop('DIPOLE', 'QUADRUPOLE', 'MULLIKEN_CHARGES')
f=open( 'psi4out.xyz', 'w' )
f.write( "10  " )
f.write( str(ee) + "\n" )
f.write( MOL.save_string_xyz() )
f.close()
--------------------------------------------------------------------------

    Molecular point group: c1
  Charge       = 0
  Multiplicity = 1
  Basis Set: CC-PVTZ
  Basis Set:
  @DF-RHF Final Energy:  -282.81323007085086
    Total Energy =                       -282.8132300708507501
    Molecular point group: c1
  Basis Set: CC-PVTZ
  Basis Set:
  Basis Set: CC-PVTZ
  Basis Set:
  @DF-RHF Final Energy:  -282.81127465541186
    Total Energy =                       -282.8112746554119212
  Basis Set: CC-PVTZ
  Basis Set:
  Basis Set: CC-PVTZ
  Basis Set:
  @DF-RHF Final Energy:  -282.81327385508132
    Total Energy =                       -282.8132738550810927
  Basis Set: CC-PVTZ
  Basis Set:
  Basis Set: CC-PVTZ
  Basis Set:
  @DF-RHF Final Energy:  -282.81329779439432
    Total Energy =                       -282.8132977943943729
  Basis Set: CC-PVTZ
  Basis Set:
  Charge       = 0
  Multiplicity = 1
  Basis Set: CC-PVTZ
  Basis Set:

    Orbital Energies (a.u.)
    -----------------------

    Doubly Occupied:

       1A    -20.593638     2A    -20.590373     3A    -15.838530
       4A    -11.301990     5A    -11.249878     6A     -1.637828
       7A     -1.422150     8A     -1.126148     9A     -0.966866
      10A     -0.839227    11A     -0.763947    12A     -0.740614
      13A     -0.730361    14A     -0.658137    15A     -0.590634
      16A     -0.561220    17A     -0.547378    18A     -0.488844
      19A     -0.479397    20A     -0.455065

  @DF-RHF Final Energy:  -282.81329827634619

   => Energetics <=

    Nuclear Repulsion Energy =            186.7300176048756271
    One-Electron Energy =                -755.9221794820138030
    Two-Electron Energy =                 286.3788636007919877
    DFT Exchange-Correlation Energy =       0.0000000000000000
    Empirical Dispersion Energy =           0.0000000000000000
    PCM Polarization Energy =               0.0000000000000000
    EFP Energy =                            0.0000000000000000
    Total Energy =                       -282.8132982763462451
    Molecular point group: c1
  Basis Set: CC-PVTZ
  Basis Set:

  -Total Gradient:
     Atom            X                  Y                   Z
    ------   -----------------  -----------------  -----------------
       1       -0.000004707289    -0.000003647542     0.000000332631
       2       -0.000013238460    -0.000049428122    -0.000038985023
       3        0.000013223882     0.000087539690     0.000060907650
       4       -0.000015663813    -0.000012818448     0.000011636295
       5        0.000009972009     0.000003077738    -0.000007994049
       6        0.000050128286    -0.000322482280    -0.000025070270
       7        0.000034364719    -0.000007076037     0.000022609516
       8        0.000034855090     0.000021081449    -0.000004984124
       9        0.000000073560     0.000264452098     0.000037971218
      10       -0.000109007988     0.000019301453    -0.000056423842

  **** Optimization is complete! (in 5 steps) ****
    Final optimized geometry and variables:
    Molecular point group: c1

    Geometry (in Angstrom), charge = 0, multiplicity = 1:

    H            2.834539698146    -0.346671352188     0.004992784147
    C            1.884923263776     0.012524577886    -0.369533431760
    C            0.780733070255    -0.469296334391     0.555318724141
    H            1.740437703981    -0.365968311302    -1.370675479143
    H            1.917884932562     1.093852187404    -0.400230240781
    N           -0.540384940545     0.020685652737     0.071155217697
    H            0.707311284400    -1.545155544233     0.558698308916
    H            0.888529960868    -0.091722548409     1.556744249011
    O           -0.956263385899    -0.457921304275    -0.930565408504
    O           -1.080185348869     0.861617710139     0.706864308775

  Mulliken Charges: (a.u.)
   Center  Symbol    Alpha    Beta     Spin     Total
       1     H     0.44819  0.44819  0.00000  0.10361
       2     C     3.14115  3.14115  0.00000 -0.28230
       3     C     3.03762  3.03762  0.00000 -0.07524
       4     H     0.43793  0.43793  0.00000  0.12414
       5     H     0.44369  0.44369  0.00000  0.11262
       6     N     3.27734  3.27734  0.00000  0.44532
       7     H     0.43654  0.43654  0.00000  0.12691
       8     H     0.43316  0.43316  0.00000  0.13369
       9     O     4.17487  4.17487  0.00000 -0.34975
      10     O     4.16950  4.16950  0.00000 -0.33900

   Total alpha = 20.00000, Total beta = 20.00000, Total charge =  0.00000
