                              Psi4 1.0.54 Driver

  ==> Input File <==

--------------------------------------------------------------------------
set {
	reference rhf
	basis cc-pvtz
}

set_num_threads( 4 )
memory 2 gb

molecule MOL {
0 1

H	 -1.255247	 2.003493	 -0.892552
C	 -1.684467	 1.045061	 -0.619014
O	 -0.775228	 0.000056	 -0.739966
H	 -2.495389	 0.832909	 -1.301325
H	 -2.097061	 1.123425	 0.381615
C	 0.406133	 -0.000384	 0.036994
C	 1.526415	 -0.003194	 -0.997339
C	 0.498772	 1.259027	 0.900673
C	 0.495883	 -1.257378	 0.904465
H	 1.452279	 0.872071	 -1.630204
H	 1.451276	 -0.881020	 -1.626529
H	 2.497919	 -0.002741	 -0.517601
H	 0.368981	 2.144239	 0.289753
H	 1.470064	 1.313479	 1.377660
H	 -0.248448	 1.271586	 1.684297
H	 0.363971	 -2.144195	 0.296316
H	 1.467114	 -1.312636	 1.381470
H	 -0.251246	 -1.265768	 1.688235

	symmetry c1
}
set optking {
	frozen_dihedral = ("
		2 3 6 7
	")
}

ee,wfn = optimize('scf', return_wfn=True)
oeprop( wfn, 'DIPOLE', 'QUADRUPOLE', 'MULLIKEN_CHARGES')
f=open( 'psi4out.xyz', 'w' )
f.write( "18  " )
f.write( str(ee) + "\n" )
f.write( MOL.save_string_xyz() )
f.close()
--------------------------------------------------------------------------

    Molecular point group: c1
  Charge       = 0
  Multiplicity = 1
  Basis Set: CC-PVTZ
  Basis Set:
  @DF-RHF Final Energy:  -271.26849163145363
    Total Energy =                       -271.2684916314535712
    Molecular point group: c1
  Basis Set: CC-PVTZ
  Basis Set:
  Basis Set: CC-PVTZ
  Basis Set:
  @DF-RHF Final Energy:  -271.23351554297943
    Total Energy =                       -271.2335155429796600
  Basis Set: CC-PVTZ
  Basis Set:
  Basis Set: CC-PVTZ
  Basis Set:
  @DF-RHF Final Energy:  -271.26994537684607
    Total Energy =                       -271.2699453768462377
  Basis Set: CC-PVTZ
  Basis Set:
  Basis Set: CC-PVTZ
  Basis Set:
  @DF-RHF Final Energy:  -271.27212000338153
    Total Energy =                       -271.2721200033814739
  Basis Set: CC-PVTZ
  Basis Set:
  @DF-RHF Final Energy:  -271.27211781648521
    Total Energy =                       -271.2721178164852063
  @DF-RHF Final Energy:  -271.27228554775974
    Total Energy =                       -271.2722855477596795
  Basis Set: CC-PVTZ
  Basis Set:
  @DF-RHF Final Energy:  -271.27228885115113
    Total Energy =                       -271.2722888511511314
  Basis Set: CC-PVTZ
  Basis Set:
  Basis Set: CC-PVTZ
  Basis Set:
  @DF-RHF Final Energy:  -271.27229927776028
    Total Energy =                       -271.2722992777601121
  Basis Set: CC-PVTZ
  Basis Set:
  Basis Set: CC-PVTZ
  Basis Set:
  @DF-RHF Final Energy:  -271.27230074172445
    Total Energy =                       -271.2723007417247345
  Basis Set: CC-PVTZ
  Basis Set:
  Charge       = 0
  Multiplicity = 1
  Basis Set: CC-PVTZ
  Basis Set:

    Orbital Energies (a.u.)
    -----------------------

    Doubly Occupied:

       1A    -20.536989     2A    -11.280737     3A    -11.259527
       4A    -11.211740     5A    -11.202151     6A    -11.202068
       7A     -1.369179     8A     -1.075589     9A     -0.951549
      10A     -0.935422    11A     -0.912269    12A     -0.752157
      13A     -0.657576    14A     -0.648128    15A     -0.638414
      16A     -0.581891    17A     -0.578621    18A     -0.547509
      19A     -0.544467    20A     -0.527021    21A     -0.515304
      22A     -0.491402    23A     -0.483923    24A     -0.443370
      25A     -0.398505

  @DF-RHF Final Energy:  -271.27230122096626

   => Energetics <=

    Nuclear Repulsion Energy =            271.9870760060881594
    One-Electron Energy =                -907.0277425160436451
    Two-Electron Energy =                 363.7683652889892301
    DFT Exchange-Correlation Energy =       0.0000000000000000
    Empirical Dispersion Energy =           0.0000000000000000
    PCM Polarization Energy =               0.0000000000000000
    EFP Energy =                            0.0000000000000000
    Total Energy =                       -271.2723012209662556
    Molecular point group: c1
  Basis Set: CC-PVTZ
  Basis Set:

  -Total Gradient:
     Atom            X                  Y                   Z
    ------   -----------------  -----------------  -----------------
       1       -0.000011594854    -0.000004749254     0.000007010482
       2       -0.000075392517    -0.000038570206     0.000242818331
       3        0.000163511061     0.000007974766    -0.000355169705
       4        0.000015894205     0.000004965762     0.000006463035
       5       -0.000001850935    -0.000004521918    -0.000011515692
       6       -0.000084785801     0.000244523868     0.000041569140
       7       -0.000002903758    -0.000198689903     0.000068877123
       8        0.000009237951     0.000027982380    -0.000005457160
       9       -0.000001459358    -0.000013870577     0.000005215127
      10        0.000001594701    -0.000000672605     0.000001186977
      11        0.000002442327    -0.000000849460    -0.000005919129
      12       -0.000012228504    -0.000002710473     0.000005531227
      13        0.000001529145    -0.000005510433     0.000010015205
      14       -0.000013578437    -0.000001692770    -0.000005246306
      15        0.000007621897    -0.000006941602    -0.000010945920
      16        0.000002620853    -0.000002349228     0.000002560155
      17       -0.000002218932     0.000000340673     0.000000531224
      18        0.000001560958    -0.000004659021     0.000002475886

  **** Optimization is complete! (in 10 steps) ****
    Final optimized geometry and variables:
    Molecular point group: c1

    Geometry (in Angstrom), charge = 0, multiplicity = 1:

    H           -1.635832291768     1.362029400675    -1.183516666177
    C           -1.903703022645     0.570341241358    -0.490564887140
    O           -0.915886424634    -0.400000142532    -0.376667701853
    H           -2.781379627142     0.070851375452    -0.876054974489
    H           -2.163326193390     1.018439607633     0.463399048424
    C            0.388542714957    -0.103540695516     0.102619354539
    C            1.352569326942    -0.469288435334    -1.023805189177
    C            0.589915522220     1.357768726671     0.505381084876
    C            0.612927471362    -1.008909488123     1.311634848339
    H            1.180847170212     0.160784065341    -1.888861941724
    H            1.199014493716    -1.498306639333    -1.322540296970
    H            2.384509100513    -0.349805143002    -0.713172717525
    H            0.443737303445     2.032846016368    -0.327909159941
    H            1.605981788869     1.486755139354     0.856479810290
    H           -0.073463369493     1.652069322997     1.308404755277
    H            0.450994466483    -2.042793564183     1.034865768809
    H            1.621453375616    -0.908204837187     1.696878722777
    H           -0.082856520429    -0.760556523323     2.104593976626

  Mulliken Charges: (a.u.)
   Center  Symbol    Alpha    Beta     Spin     Total
       1     H     0.46959  0.46959  0.00000  0.06082
       2     C     3.04060  3.04060  0.00000 -0.08120
       3     O     4.20017  4.20017  0.00000 -0.40034
       4     H     0.44258  0.44258  0.00000  0.11484
       5     H     0.46945  0.46945  0.00000  0.06109
       6     C     2.86994  2.86994  0.00000  0.26011
       7     C     3.14151  3.14151  0.00000 -0.28303
       8     C     3.17705  3.17705  0.00000 -0.35410
       9     C     3.14121  3.14121  0.00000 -0.28242
      10     H     0.45221  0.45221  0.00000  0.09557
      11     H     0.44789  0.44789  0.00000  0.10423
      12     H     0.45788  0.45788  0.00000  0.08424
      13     H     0.44471  0.44471  0.00000  0.11057
      14     H     0.44217  0.44217  0.00000  0.11566
      15     H     0.44479  0.44479  0.00000  0.11042
      16     H     0.44787  0.44787  0.00000  0.10427
      17     H     0.45810  0.45810  0.00000  0.08380
      18     H     0.45226  0.45226  0.00000  0.09547

   Total alpha = 25.00000, Total beta = 25.00000, Total charge = -0.00000

*** Psi4 exiting successfully. Buy a developer a beer!
