  ==> Input File <==

--------------------------------------------------------------------------
set {
	reference rhf
	basis 6-31G*
}

set_num_threads( 4 )
memory 2 gb

molecule MOL {
0 1

H	 1.740954	 -0.975837	 -0.891615
O	 1.586534	 -0.678666	 -0.000226
C	 0.489431	 0.077273	 0.000046
C	 -0.764129	 -0.759190	 0.000191
O	 0.537743	 1.263962	 0.000257
C	 -2.038368	 0.075731	 -0.000248
H	 -0.717284	 -1.412404	 -0.866059
H	 -0.717458	 -1.411724	 0.866967
H	 -2.086483	 0.712501	 -0.875098
H	 -2.908485	 -0.571682	 -0.000042
H	 -2.086576	 0.713280	 0.874068

	symmetry c1
}
set optking {
	frozen_dihedral = ("
		1 2 3 5
	")
}

ee = optimize('scf')
oeprop('DIPOLE', 'QUADRUPOLE', 'MULLIKEN_CHARGES')
f=open( 'psi4out.xyz', 'w' )
f.write( "11  " )
f.write( str(ee) + "\n" )
f.write( MOL.save_string_xyz() )
f.close()
--------------------------------------------------------------------------

    Molecular point group: c1
  Charge       = 0
  Multiplicity = 1
  Basis Set: 6-31G*
  Basis Set:
  @DF-RHF Final Energy:  -266.82271030651839
    Total Energy =                       -266.8227103065183883
    Molecular point group: c1
  Basis Set: 6-31G*
  Basis Set:
  Basis Set: 6-31G*
  Basis Set:
  @DF-RHF Final Energy:  -266.82387964048365
    Total Energy =                       -266.8238796404835966
  Basis Set: 6-31G*
  Basis Set:
  Basis Set: 6-31G*
  Basis Set:
  @DF-RHF Final Energy:  -266.82437780521815
    Total Energy =                       -266.8243778052181483
  Basis Set: 6-31G*
  Basis Set:
  Basis Set: 6-31G*
  Basis Set:
  @DF-RHF Final Energy:  -266.82446521490539
    Total Energy =                       -266.8244652149051603
  Basis Set: 6-31G*
  Basis Set:
  Basis Set: 6-31G*
  Basis Set:
  @DF-RHF Final Energy:  -266.82446679651918
    Total Energy =                       -266.8244667965191752
  Basis Set: 6-31G*
  Basis Set:
  Charge       = 0
  Multiplicity = 1
  Basis Set: 6-31G*
  Basis Set:

    Orbital Energies (a.u.)
    -----------------------

    Doubly Occupied:

       1A    -20.595403     2A    -20.563484     3A    -11.382324
       4A    -11.247707     5A    -11.222694     6A     -1.461025
       7A     -1.368860     8A     -1.064884     9A     -0.909361
      10A     -0.809119    11A     -0.713211    12A     -0.672670
      13A     -0.658751    14A     -0.614700    15A     -0.569183
      16A     -0.530132    17A     -0.520390    18A     -0.498997
      19A     -0.493378    20A     -0.446191

  @DF-RHF Final Energy:  -266.82446703080501

   => Energetics <=

    Nuclear Repulsion Energy =            178.9623296070568017
    One-Electron Energy =                -718.8886672011365135
    Two-Electron Energy =                 273.1018705632747015
    DFT Exchange-Correlation Energy =       0.0000000000000000
    Empirical Dispersion Energy =           0.0000000000000000
    PCM Polarization Energy =               0.0000000000000000
    EFP Energy =                            0.0000000000000000
    Total Energy =                       -266.8244670308050672
    Molecular point group: c1
  Basis Set: 6-31G*
  Basis Set:

  -Total Gradient:
     Atom            X                  Y                   Z
    ------   -----------------  -----------------  -----------------
       1        0.000314461646     0.000472858236    -0.000081967359
       2       -0.000417235638    -0.000616168528    -0.000112442816
       3        0.000061325359     0.000143951685     0.000689961906
       4        0.000020534497    -0.000004577738     0.000046304642
       5       -0.000012720557     0.000005693344    -0.000497857276
       6        0.000019698533     0.000006847542    -0.000013567115
       7       -0.000007860247    -0.000013506357    -0.000020814613
       8        0.000005088394     0.000005404314    -0.000015957928
       9       -0.000002221517     0.000004536050    -0.000004333278
      10        0.000015354799    -0.000005880874     0.000003338813
      11        0.000003574729     0.000000842325     0.000007335024

  **** Optimization is complete! (in 6 steps) ****
    Final optimized geometry and variables:
    Molecular point group: c1

    Geometry (in Angstrom), charge = 0, multiplicity = 1:

    H            1.855875230503    -0.958708568626    -0.877923353582
    O            1.629776164721    -0.666196858254    -0.003399782459
    C            0.493444288030     0.085078698370    -0.001858640852
    C           -0.771286034799    -0.739492216886     0.009205787947
    O            0.534502821244     1.262691180429     0.037931071599
    C           -2.044220092705     0.096977230696     0.013946982654
    H           -0.741473906089    -1.405401685390    -0.850602093392
    H           -0.717426323052    -1.386991145165     0.879800787749
    H           -2.100936014891     0.727283024310    -0.865497268032
    H           -2.916507353735    -0.547387117251     0.029286654431
    H           -2.079817203002     0.741706115106     0.883353100526

  Mulliken Charges: (a.u.)
   Center  Symbol    Alpha    Beta     Spin     Total
       1     H     0.26676  0.26676  0.00000  0.46649
       2     O     4.36848  4.36848  0.00000 -0.73695
       3     C     2.63102  2.63102  0.00000  0.73797
       4     C     3.20907  3.20907  0.00000 -0.41814
       5     O     4.24394  4.24394  0.00000 -0.48788
       6     C     3.23942  3.23942  0.00000 -0.47885
       7     H     0.41088  0.41088  0.00000  0.17824
       8     H     0.39601  0.39601  0.00000  0.20798
       9     H     0.41079  0.41079  0.00000  0.17843
      10     H     0.41678  0.41678  0.00000  0.16644
      11     H     0.40686  0.40686  0.00000  0.18628

   Total alpha = 20.00000, Total beta = 20.00000, Total charge = -0.00000
