  ==> Input File <==

--------------------------------------------------------------------------
set {
	reference rhf
	basis 6-31G*
}

set_num_threads( 4 )
memory 2 gb

molecule MOL {
0 1

H	 2.591676	 2.013956	 0.335017
O	 3.341076	 1.666752	 -0.126416
C	 3.569581	 0.339145	 0.272707
C	 2.539767	 -0.640285	 -0.279495
H	 4.553106	 0.084646	 -0.100901
H	 3.608576	 0.269204	 1.359154
C	 1.115811	 -0.397273	 0.226630
H	 2.556196	 -0.582511	 -1.364741
H	 2.852081	 -1.648031	 -0.010655
C	 1.054523	 0.655277	 1.337126
H	 0.701638	 -1.333365	 0.590715
H	 0.486042	 -0.077478	 -0.603709
C	 -0.358926	 0.999040	 1.821203
H	 1.652534	 0.319219	 2.182285
H	 1.526005	 1.566960	 0.976239
C	 -1.089156	 -0.139616	 2.538634
H	 -0.291213	 1.848204	 2.498072
H	 -0.956873	 1.334583	 0.975209
C	 -2.450765	 0.282430	 3.094814
H	 -0.467576	 -0.507387	 3.353798
H	 -1.231259	 -0.978424	 1.861501
C	 -3.184606	 -0.854034	 3.805864
H	 -2.315971	 1.112219	 3.785297
H	 -3.069802	 0.659271	 2.283229
H	 -2.605068	 -1.231218	 4.643773
H	 -4.144521	 -0.523207	 4.190249
H	 -3.367735	 -1.685698	 3.131208

	symmetry c1
}
set optking {
	frozen_dihedral = ("
		10 7 4 8
	")
}

ee = optimize('scf')
oeprop('DIPOLE', 'QUADRUPOLE', 'MULLIKEN_CHARGES')
f=open( 'psi4out.xyz', 'w' )
f.write( "27  " )
f.write( str(ee) + "\n" )
f.write( MOL.save_string_xyz() )
f.close()
--------------------------------------------------------------------------

    Molecular point group: c1
  Charge       = 0
  Multiplicity = 1
  Basis Set: 6-31G*
  Basis Set:
  @DF-RHF Final Energy:  -388.25470526274154
    Total Energy =                       -388.2547052627415951
    Molecular point group: c1
  Basis Set: 6-31G*
  Basis Set:
  Basis Set: 6-31G*
  Basis Set:
  @DF-RHF Final Energy:  -388.26764401856946
    Total Energy =                       -388.2676440185689444
  Basis Set: 6-31G*
  Basis Set:
  Basis Set: 6-31G*
  Basis Set:
  @DF-RHF Final Energy:  -388.27026895500921
    Total Energy =                       -388.2702689550089872
  Basis Set: 6-31G*
  Basis Set:
  Basis Set: 6-31G*
  Basis Set:
  @DF-RHF Final Energy:  -388.27063045117694
    Total Energy =                       -388.2706304511767712
  Basis Set: 6-31G*
  Basis Set:
  @DF-RHF Final Energy:  -388.27053827230367
    Total Energy =                       -388.2705382723036109
  @DF-RHF Final Energy:  -388.27086656945642
    Total Energy =                       -388.2708665694567571
  @DF-RHF Final Energy:  -388.27087944787507
    Total Energy =                       -388.2708794478746768
  @DF-RHF Final Energy:  -388.27091612011344
    Total Energy =                       -388.2709161201138386
  @DF-RHF Final Energy:  -388.27093282572702
    Total Energy =                       -388.2709328257266179
  Basis Set: 6-31G*
  Basis Set:
  @DF-RHF Final Energy:  -388.27094298988743
    Total Energy =                       -388.2709429898867484
  Basis Set: 6-31G*
  Basis Set:
  Basis Set: 6-31G*
  Basis Set:
  @DF-RHF Final Energy:  -388.27094550529392
    Total Energy =                       -388.2709455052938665
  Basis Set: 6-31G*
  Basis Set:
  Basis Set: 6-31G*
  Basis Set:
  @DF-RHF Final Energy:  -388.27094706963595
    Total Energy =                       -388.2709470696363496
  Basis Set: 6-31G*
  Basis Set:
  Charge       = 0
  Multiplicity = 1
  Basis Set: 6-31G*
  Basis Set:

    Orbital Energies (a.u.)
    -----------------------

    Doubly Occupied:

       1A    -20.549388     2A    -11.265416     3A    -11.224450
       4A    -11.219601     5A    -11.219413     6A    -11.217694
       7A    -11.216460     8A    -11.215073     9A    -11.210608
      10A     -1.356483    11A     -1.096188    12A     -1.058923
      13A     -1.011625    14A     -0.948552    15A     -0.893300
      16A     -0.829384    17A     -0.799984    18A     -0.773797
      19A     -0.690580    20A     -0.652099    21A     -0.642824
      22A     -0.613084    23A     -0.599765    24A     -0.580586
      25A     -0.570089    26A     -0.565581    27A     -0.544398
      28A     -0.527286    29A     -0.521213    30A     -0.496208
      31A     -0.481751    32A     -0.473465    33A     -0.465725
      34A     -0.462142    35A     -0.453165    36A     -0.439738
      37A     -0.421160

  @DF-RHF Final Energy:  -388.27094739558407

   => Energetics <=

    Nuclear Repulsion Energy =            463.7853184003585625
    One-Electron Energy =               -1445.4981362872586033
    Two-Electron Energy =                 593.4418704913155125
    DFT Exchange-Correlation Energy =       0.0000000000000000
    Empirical Dispersion Energy =           0.0000000000000000
    PCM Polarization Energy =               0.0000000000000000
    EFP Energy =                            0.0000000000000000
    Total Energy =                       -388.2709473955844715
    Molecular point group: c1
  Basis Set: 6-31G*
  Basis Set:

  -Total Gradient:
     Atom            X                  Y                   Z
    ------   -----------------  -----------------  -----------------
       1        0.000057758140     0.000025491453     0.000050841664
       2       -0.000071475243    -0.000021244914    -0.000053050475
       3        0.000024277648    -0.000006569784    -0.000001585285
       4       -0.001407901313    -0.003940568352    -0.001330871396
       5        0.000010973472     0.000010647872     0.000013440779
       6       -0.000022689968    -0.000004398670    -0.000000549807
       7        0.000613512365    -0.002508544352     0.003200376541
       8        0.001057746307     0.004085017271     0.000289822431
       9       -0.000009478520    -0.000004574491     0.000010371627
      10       -0.000251324972     0.002369381074    -0.002162962192
      11        0.000006778002    -0.000009196766    -0.000020948297
      12       -0.000001693785     0.000011689184     0.000003878498
      13        0.000001560882    -0.000005334955     0.000010062396
      14        0.000005465619     0.000002843508    -0.000003259269
      15       -0.000008825321    -0.000001263144    -0.000003050285
      16        0.000005218724     0.000004390136     0.000001930926
      17       -0.000002416547    -0.000000535409    -0.000004856635
      18       -0.000000829832    -0.000003609346    -0.000000433498
      19       -0.000004507312    -0.000001056338     0.000004548332
      20       -0.000001151036    -0.000000917396    -0.000001090134
      21       -0.000000661245     0.000000286439    -0.000000323027
      22       -0.000000569252     0.000000553887     0.000001328777
      23       -0.000000233144     0.000000885097    -0.000001771681
      24        0.000001291970    -0.000003414368    -0.000001420006
      25        0.000000479711    -0.000000448199    -0.000001117009
      26        0.000000113607     0.000000125243     0.000001140098
      27       -0.000001418955     0.000000365322    -0.000000453067

  **** Optimization is complete! (in 13 steps) ****
    Final optimized geometry and variables:
    Molecular point group: c1

    Geometry (in Angstrom), charge = 0, multiplicity = 1:

    H            2.508833817194     1.865551516930    -1.406079327697
    O            3.163254102989     1.304100703674    -1.792997017966
    C            3.135476499932     0.037197112462    -1.184408365104
    C            1.960207367697    -0.829292289668    -1.639102549095
    H            4.053478595657    -0.446792306689    -1.492632153596
    H            3.173504586137     0.128762977591    -0.102194621449
    C            0.539966334616    -0.495702933871    -1.099548750072
    H            1.954544999036    -0.751620961032    -2.721273800141
    H            2.202870370118    -1.858940664100    -1.390985209418
    C            0.431125859185     0.531074088051     0.035467640759
    H            0.074465441633    -1.421434928712    -0.780182110385
    H           -0.068864373674    -0.133003059631    -1.923831383277
    C           -1.010335330360     0.806468377771     0.484351956801
    H            1.011844868129     0.207729606736     0.896569229522
    H            0.859712770082     1.477979429162    -0.282031649100
    C           -1.699507937192    -0.359775156492     1.198327729842
    H           -0.999864900603     1.663078797913     1.155023225260
    H           -1.604324640706     1.104694327717    -0.377855454053
    C           -3.091206044722     0.003398617913     1.720917539334
    H           -1.078835947034    -0.687603235132     2.031119351969
    H           -1.787674598269    -1.211474157427     0.528977512493
    C           -3.784396766351    -1.158700462100     2.431246474002
    H           -3.011109315436     0.846912322608     2.403242834515
    H           -3.710131054194     0.339868090035     0.891816185100
    H           -3.205352076180    -1.497437510705     3.285780724966
    H           -4.766892744556    -0.869832395900     2.791496688922
    H           -3.913142839532    -2.005997599472     1.763611661628

  Mulliken Charges: (a.u.)
   Center  Symbol    Alpha    Beta     Spin     Total
       1     H     0.27633  0.27633  0.00000  0.44734
       2     O     4.37592  4.37592  0.00000 -0.75183
       3     C     2.99857  2.99857  0.00000  0.00286
       4     C     3.16957  3.16957  0.00000 -0.33914
       5     H     0.41478  0.41478  0.00000  0.17044
       6     H     0.42932  0.42932  0.00000  0.14137
       7     C     3.16119  3.16119  0.00000 -0.32239
       8     H     0.41066  0.41066  0.00000  0.17868
       9     H     0.42193  0.42193  0.00000  0.15613
      10     C     3.15778  3.15778  0.00000 -0.31557
      11     H     0.41604  0.41604  0.00000  0.16792
      12     H     0.41881  0.41881  0.00000  0.16238
      13     C     3.15288  3.15288  0.00000 -0.30576
      14     H     0.42042  0.42042  0.00000  0.15916
      15     H     0.43511  0.43511  0.00000  0.12977
      16     C     3.15327  3.15327  0.00000 -0.30654
      17     H     0.42094  0.42094  0.00000  0.15813
      18     H     0.42232  0.42232  0.00000  0.15537
      19     C     3.15144  3.15144  0.00000 -0.30289
      20     H     0.42424  0.42424  0.00000  0.15152
      21     H     0.42139  0.42139  0.00000  0.15723
      22     C     3.23934  3.23934  0.00000 -0.47867
      23     H     0.42290  0.42290  0.00000  0.15420
      24     H     0.42257  0.42257  0.00000  0.15486
      25     H     0.42171  0.42171  0.00000  0.15658
      26     H     0.41889  0.41889  0.00000  0.16223
      27     H     0.42169  0.42169  0.00000  0.15661

   Total alpha = 37.00000, Total beta = 37.00000, Total charge = -0.00000
