  ==> Input File <==

--------------------------------------------------------------------------
set {
	reference rhf
	basis 6-31G*
}

set_num_threads( 1 )
memory 2 gb

molecule MOL {
0 1

H	 0.759440	 -5.011292	 -2.571086
O	 1.681289	 -4.855792	 -2.716292
C	 1.880037	 -3.522399	 -3.112041
C	 1.699073	 -2.524192	 -1.973814
H	 2.895828	 -3.473742	 -3.482815
H	 1.220832	 -3.268782	 -3.941443
C	 0.278322	 -2.478427	 -1.406154
H	 2.400645	 -2.773280	 -1.181906
H	 1.973452	 -1.536949	 -2.341828
C	 0.115918	 -1.429151	 -0.302766
H	 0.017915	 -3.458423	 -1.016074
H	 -0.425991	 -2.263417	 -2.209929
C	 -1.309753	 -1.282496	 0.241564
H	 0.791788	 -1.664549	 0.517378
H	 0.436611	 -0.465133	 -0.692028
C	 -2.037799	 -0.007733	 -0.193645
H	 -1.890610	 -2.142323	 -0.085726
H	 -1.285946	 -1.330893	 1.329189
C	 -3.489788	 0.042957	 0.286558
H	 -2.017067	 0.064384	 -1.280144
H	 -1.513726	 0.868678	 0.179924
C	 -4.216917	 1.317354	 -0.141063
H	 -4.025645	 -0.823308	 -0.095450
H	 -3.513059	 -0.038752	 1.371301
H	 -4.239342	 1.411634	 -1.223113
H	 -5.243387	 1.322503	 0.212445
H	 -3.726170	 2.201406	 0.256408

	symmetry c1
}
set optking {
	frozen_dihedral = ("
		14 10 7 4,
		10 7 4 8,
		8 4 3 2,
		10 13 16 20,
		20 16 19 22,
		4 3 2 1
	")
}

ee = energy('scf')
oeprop('DIPOLE', 'QUADRUPOLE', 'MULLIKEN_CHARGES')
f=open( 'psi4out.xyz', 'w' )
f.write( "27  " )
f.write( str(ee) + "\n" )
f.write( MOL.save_string_xyz() )
f.close()
--------------------------------------------------------------------------

    Molecular point group: c1

    Geometry (in Angstrom), charge = 0, multiplicity = 1:

       Center              X                  Y                   Z               Mass
    ------------   -----------------  -----------------  -----------------  -----------------
           H          1.340366201323    -3.329706604551    -1.502622749319     1.007825032070
           O          2.262215201323    -3.174206604551    -1.647828749319    15.994914619560
           C          2.460963201323    -1.840813604551    -2.043577749319    12.000000000000
           C          2.279999201323    -0.842606604551    -0.905350749319    12.000000000000
           H          3.476754201323    -1.792156604551    -2.414351749319     1.007825032070
           H          1.801758201323    -1.587196604551    -2.872979749319     1.007825032070
           C          0.859248201323    -0.796841604551    -0.337690749319    12.000000000000
           H          2.981571201323    -1.091694604551    -0.113442749319     1.007825032070
           H          2.554378201323     0.144636395449    -1.273364749319     1.007825032070
           C          0.696844201323     0.252434395449     0.765697250681    12.000000000000
           H          0.598841201323    -1.776837604551     0.052389250681     1.007825032070
           H          0.154935201323    -0.581831604551    -1.141465749319     1.007825032070
           C         -0.728826798677     0.399089395449     1.310027250681    12.000000000000
           H          1.372714201323     0.017036395449     1.585841250681     1.007825032070
           H          1.017537201323     1.216452395449     0.376435250681     1.007825032070
           C         -1.456872798677     1.673852395449     0.874818250681    12.000000000000
           H         -1.309683798677    -0.460737604551     0.982737250681     1.007825032070
           H         -0.705019798677     0.350692395449     2.397652250681     1.007825032070
           C         -2.908861798677     1.724542395449     1.355021250681    12.000000000000
           H         -1.436140798677     1.745969395449    -0.211680749319     1.007825032070
           H         -0.932799798677     2.550263395449     1.248387250681     1.007825032070
           C         -3.635990798677     2.998939395449     0.927400250681    12.000000000000
           H         -3.444718798677     0.858277395449     0.973013250681     1.007825032070
           H         -2.932132798677     1.642833395449     2.439764250681     1.007825032070
           H         -3.658415798677     3.093219395449    -0.154649749319     1.007825032070
           H         -4.662460798677     3.004088395449     1.280908250681     1.007825032070
           H         -3.145243798677     3.882991395449     1.324871250681     1.007825032070

  Charge       = 0
  Multiplicity = 1
  Basis Set: 6-31G*
  Basis Set:

    Orbital Energies (a.u.)
    -----------------------

    Doubly Occupied:

       1A    -20.552353     2A    -11.267171     3A    -11.220963
       4A    -11.216056     5A    -11.215922     6A    -11.215265
       7A    -11.215150     8A    -11.214218     9A    -11.209584
      10A     -1.359124    11A     -1.094605    12A     -1.062509
      13A     -1.011565    14A     -0.949912    15A     -0.885122
      16A     -0.819882    17A     -0.795059    18A     -0.787786
      19A     -0.694243    20A     -0.651331    21A     -0.636950
      22A     -0.615449    23A     -0.602599    24A     -0.581658
      25A     -0.580560    26A     -0.554460    27A     -0.538963
      28A     -0.523006    29A     -0.506553    30A     -0.502140
      31A     -0.478697    32A     -0.475923    33A     -0.470503
      34A     -0.461318    35A     -0.451929    36A     -0.441682
      37A     -0.422350

  @DF-RHF Final Energy:  -388.27803997416004

   => Energetics <=

    Nuclear Repulsion Energy =            454.4604656483427334
    One-Electron Energy =               -1426.9119356958935896
    Two-Electron Energy =                 584.1734300733910459
    DFT Exchange-Correlation Energy =       0.0000000000000000
    Empirical Dispersion Energy =           0.0000000000000000
    PCM Polarization Energy =               0.0000000000000000
    EFP Energy =                            0.0000000000000000
    Total Energy =                       -388.2780399741598103

  Mulliken Charges: (a.u.)
   Center  Symbol    Alpha    Beta     Spin     Total
       1     H     0.27997  0.27997  0.00000  0.44006
       2     O     4.37092  4.37092  0.00000 -0.74185
       3     C     2.99737  2.99737  0.00000  0.00527
       4     C     3.16192  3.16192  0.00000 -0.32385
       5     H     0.41439  0.41439  0.00000  0.17121
       6     H     0.43208  0.43208  0.00000  0.13583
       7     C     3.16337  3.16337  0.00000 -0.32673
       8     H     0.41484  0.41484  0.00000  0.17032
       9     H     0.42395  0.42395  0.00000  0.15210
      10     C     3.15373  3.15373  0.00000 -0.30746
      11     H     0.42410  0.42410  0.00000  0.15179
      12     H     0.42497  0.42497  0.00000  0.15006
      13     C     3.15525  3.15525  0.00000 -0.31051
      14     H     0.41889  0.41889  0.00000  0.16223
      15     H     0.42099  0.42099  0.00000  0.15802
      16     C     3.15247  3.15247  0.00000 -0.30494
      17     H     0.42279  0.42279  0.00000  0.15443
      18     H     0.42018  0.42018  0.00000  0.15964
      19     C     3.15210  3.15210  0.00000 -0.30421
      20     H     0.42484  0.42484  0.00000  0.15032
      21     H     0.42273  0.42273  0.00000  0.15453
      22     C     3.23925  3.23925  0.00000 -0.47850
      23     H     0.42323  0.42323  0.00000  0.15355
      24     H     0.42268  0.42268  0.00000  0.15464
      25     H     0.42206  0.42206  0.00000  0.15589
      26     H     0.41919  0.41919  0.00000  0.16163
      27     H     0.42174  0.42174  0.00000  0.15652

   Total alpha = 37.00000, Total beta = 37.00000, Total charge =  0.00000
