                              Psi4 1.0.54 Driver

  ==> Input File <==

--------------------------------------------------------------------------
set {
	reference rhf
	basis cc-pvtz
}

set_num_threads( 4 )
memory 2 gb

molecule MOL {
0 1

H	 1.061670	 0.067625	 1.838272
C	 0.604076	 -0.484978	 1.045953
C	 0.600274	 -1.865078	 1.039346
C	 0.000000	 0.179985	 0.000046
H	 1.064751	 -2.400838	 1.843546
C	 -0.000003	 -2.552036	 -0.000009
N	 0.000000	 1.644631	 0.000076
C	 -0.604074	 -0.484935	 -1.045889
H	 -0.000000	 -3.625035	 -0.000032
C	 -0.600276	 -1.865035	 -1.039337
O	 1.050559	 2.194174	 -0.000073
O	 -1.050559	 2.194174	 -0.000074
H	 -1.061677	 0.067700	 -1.838181
H	 -1.064749	 -2.400763	 -1.843561

	symmetry c1
}
set optking {
	frozen_dihedral = ("
		2 4 7 11
	")
}

ee,wfn = optimize('scf', return_wfn=True)
oeprop( wfn, 'DIPOLE', 'QUADRUPOLE', 'MULLIKEN_CHARGES')
f=open( 'psi4out.xyz', 'w' )
f.write( "14  " )
f.write( str(ee) + "\n" )
f.write( MOL.save_string_xyz() )
f.close()
--------------------------------------------------------------------------

    Molecular point group: c1
  Charge       = 0
  Multiplicity = 1
  Basis Set: CC-PVTZ
  Basis Set:
  @DF-RHF Final Energy:  -434.32292938204552
    Total Energy =                       -434.3229293820456860
    Molecular point group: c1
  Basis Set: CC-PVTZ
  Basis Set:
  Basis Set: CC-PVTZ
  Basis Set:
  @DF-RHF Final Energy:  -434.31657079263903
    Total Energy =                       -434.3165707926391406
  Basis Set: CC-PVTZ
  Basis Set:
  Basis Set: CC-PVTZ
  Basis Set:
  @DF-RHF Final Energy:  -434.32217598369823
    Total Energy =                       -434.3221759836981164
  Basis Set: CC-PVTZ
  Basis Set:
  Basis Set: CC-PVTZ
  Basis Set:
  @DF-RHF Final Energy:  -434.32327986999940
    Total Energy =                       -434.3232798699993964
  Basis Set: CC-PVTZ
  Basis Set:
  Basis Set: CC-PVTZ
  Basis Set:
  @DF-RHF Final Energy:  -434.32329246389031
    Total Energy =                       -434.3232924638905388
  Basis Set: CC-PVTZ
  Basis Set:
  Basis Set: CC-PVTZ
  Basis Set:
  @DF-RHF Final Energy:  -434.32341102035815
    Total Energy =                       -434.3234110203584351
  Basis Set: CC-PVTZ
  Basis Set:
  Charge       = 0
  Multiplicity = 1
  Basis Set: CC-PVTZ
  Basis Set:

    Orbital Energies (a.u.)
    -----------------------

    Doubly Occupied:

       1A    -20.596454     2A    -20.596394     3A    -15.847781
       4A    -11.306374     5A    -11.267888     6A    -11.267611
       7A    -11.261160     8A    -11.260075     9A    -11.259307
      10A     -1.644001    11A     -1.427036    12A     -1.206343
      13A     -1.096842    14A     -1.056684    15A     -0.959405
      16A     -0.873351    17A     -0.830661    18A     -0.786597
      19A     -0.740481    20A     -0.737106    21A     -0.716997
      22A     -0.654001    23A     -0.650957    24A     -0.626089
      25A     -0.560507    26A     -0.550007    27A     -0.533646
      28A     -0.498580    29A     -0.487807    30A     -0.457848
      31A     -0.373121    32A     -0.370443

  @DF-RHF Final Energy:  -434.32341154856283

   => Energetics <=

    Nuclear Repulsion Energy =            417.6995638550408785
    One-Electron Energy =               -1419.0428458747392142
    Two-Electron Energy =                 567.0198704711355049
    DFT Exchange-Correlation Energy =       0.0000000000000000
    Empirical Dispersion Energy =           0.0000000000000000
    PCM Polarization Energy =               0.0000000000000000
    EFP Energy =                            0.0000000000000000
    Total Energy =                       -434.3234115485628308
    Molecular point group: c1
  Basis Set: CC-PVTZ
  Basis Set:

  -Total Gradient:
     Atom            X                  Y                   Z
    ------   -----------------  -----------------  -----------------
       1       -0.000004661038    -0.000000262816     0.000002227636
       2       -0.004185168973    -0.000088316935     0.002209412915
       3       -0.000016432264     0.000019490561     0.000021955070
       4        0.006172661805     0.000087086545    -0.005264949708
       5       -0.000004286768    -0.000001987022     0.000002072763
       6        0.000012838729    -0.000002670724    -0.000030028589
       7       -0.002188957509    -0.000125856808     0.008461766353
       8        0.000042916820     0.000027067847     0.000001121930
       9        0.000002758589     0.000000561777     0.000001655020
      10       -0.000019107121    -0.000014268008     0.000039029682
      11        0.000150208961     0.000060231318    -0.005450207317
      12        0.000047019444     0.000033923630     0.000007009367
      13       -0.000005621146     0.000000270177    -0.000001119216
      14       -0.000004169527     0.000004730465     0.000000054096

  **** Optimization is complete! (in 7 steps) ****
    Final optimized geometry and variables:
    Molecular point group: c1

    Geometry (in Angstrom), charge = 0, multiplicity = 1:

    H            1.066189608502     0.071928739651     1.842390588960
    C            0.599979272694    -0.480129705097     1.051385982826
    C            0.561178685387    -1.860783014404     1.062393642306
    C            0.030795409912     0.178553653698    -0.012564135410
    H            0.993078048628    -2.397432199762     1.884100555055
    C           -0.031127069591    -2.546113718906     0.018106087937
    N            0.015632883091     1.641554179967    -0.001301693014
    C           -0.595160489776    -0.476243931680    -1.047116953097
    H           -0.051464274248    -3.618587075497     0.027461884756
    C           -0.603642403124    -1.856975657087    -1.035368914210
    O            1.063338434107     2.193736415576     0.044345825820
    O           -1.041088282418     2.172337184883    -0.075605904440
    H           -1.059122408359     0.078755145197    -1.837076234465
    H           -1.066834977055    -2.391525057068    -1.841266975651

  Mulliken Charges: (a.u.)
   Center  Symbol    Alpha    Beta     Spin     Total
       1     H     0.41035  0.41035  0.00000  0.17930
       2     C     3.08767  3.08767  0.00000 -0.17534
       3     C     3.06681  3.06681  0.00000 -0.13362
       4     C     2.93020  2.93020  0.00000  0.13959
       5     H     0.41731  0.41731  0.00000  0.16538
       6     C     3.07309  3.07309  0.00000 -0.14618
       7     N     3.28361  3.28361  0.00000  0.43278
       8     C     3.08631  3.08631  0.00000 -0.17262
       9     H     0.41773  0.41773  0.00000  0.16455
      10     C     3.06627  3.06627  0.00000 -0.13254
      11     O     4.16661  4.16661  0.00000 -0.33321
      12     O     4.16627  4.16627  0.00000 -0.33255
      13     H     0.41049  0.41049  0.00000  0.17902
      14     H     0.41727  0.41727  0.00000  0.16545

   Total alpha = 32.00000, Total beta = 32.00000, Total charge =  0.00000

*** Psi4 exiting successfully. Buy a developer a beer!
