  ==> Input File <==

--------------------------------------------------------------------------
set {
	reference rhf
	basis cc-pvtz
}

set_num_threads( 4 )
memory 2 gb

molecule MOL {
0 1

H	 -1.752232	 -2.214755	 -0.011938
C	 -1.343852	 -1.221619	 -0.018179
N	 -0.058800	 -1.097635	 -0.261688
C	 -2.148159	 -0.124236	 0.219734
C	 0.449026	 0.119242	 -0.273393
H	 -3.196988	 -0.237571	 0.417076
N	 -1.655094	 1.094230	 0.209506
C	 -0.370318	 1.215445	 -0.035100
C	 1.924033	 0.265863	 -0.538106
H	 0.033214	 2.210441	 -0.046812
C	 2.774425	 0.011819	 0.707585
H	 2.199999	 -0.440131	 -1.312172
H	 2.123089	 1.259062	 -0.923003
H	 3.828467	 0.092690	 0.470117
H	 2.588946	 -0.979536	 1.099746
H	 2.549475	 0.731118	 1.487041

	symmetry c1
}
set optking {
	frozen_dihedral = ("
		12 9 5 3
	")
}

ee = optimize('scf')
oeprop('DIPOLE', 'QUADRUPOLE', 'MULLIKEN_CHARGES')
f=open( 'psi4out.xyz', 'w' )
f.write( "16  " )
f.write( str(ee) + "\n" )
f.write( MOL.save_string_xyz() )
f.close()
--------------------------------------------------------------------------

    Molecular point group: c1
  Charge       = 0
  Multiplicity = 1
  Basis Set: CC-PVTZ
  Basis Set:
  @DF-RHF Final Energy:  -340.87226993345570
    Total Energy =                       -340.8722699334559252
    Molecular point group: c1
  Basis Set: CC-PVTZ
  Basis Set:
  Basis Set: CC-PVTZ
  Basis Set:
  @DF-RHF Final Energy:  -340.87227820758733
    Total Energy =                       -340.8722782075874420
  Basis Set: CC-PVTZ
  Basis Set:
  Basis Set: CC-PVTZ
  Basis Set:
  @DF-RHF Final Energy:  -340.87228447053690
    Total Energy =                       -340.8722844705364992
  Basis Set: CC-PVTZ
  Basis Set:
  Basis Set: CC-PVTZ
  Basis Set:
  @DF-RHF Final Energy:  -340.87228635363391
    Total Energy =                       -340.8722863536341379
  Basis Set: CC-PVTZ
  Basis Set:
  Charge       = 0
  Multiplicity = 1
  Basis Set: CC-PVTZ
  Basis Set:

    Orbital Energies (a.u.)
    -----------------------

    Doubly Occupied:

       1A    -15.580708     2A    -15.576157     3A    -11.278288
       4A    -11.272411     5A    -11.268576     6A    -11.267879
       7A    -11.231417     8A    -11.218135     9A     -1.316146
      10A     -1.224200    11A     -1.086492    12A     -1.015599
      13A     -0.906111    14A     -0.896160    15A     -0.830051
      16A     -0.719054    17A     -0.713219    18A     -0.659878
      19A     -0.612612    20A     -0.605419    21A     -0.585274
      22A     -0.563482    23A     -0.524066    24A     -0.507868
      25A     -0.502291    26A     -0.488790    27A     -0.433269
      28A     -0.397897    29A     -0.346852

  @DF-RHF Final Energy:  -340.87228672645728

   => Energetics <=

    Nuclear Repulsion Energy =            350.5791878947381406
    One-Electron Energy =               -1155.6463435951923202
    Two-Electron Energy =                 464.1948689739974725
    DFT Exchange-Correlation Energy =       0.0000000000000000
    Empirical Dispersion Energy =           0.0000000000000000
    PCM Polarization Energy =               0.0000000000000000
    EFP Energy =                            0.0000000000000000
    Total Energy =                       -340.8722867264566503
    Molecular point group: c1
  Basis Set: CC-PVTZ
  Basis Set:

  -Total Gradient:
     Atom            X                  Y                   Z
    ------   -----------------  -----------------  -----------------
       1       -0.000018056090     0.000000559803    -0.000043939357
       2        0.000143082625    -0.000053088007     0.000058429952
       3       -0.000166879830    -0.000048642630    -0.000442222755
       4       -0.000021251054     0.000140049362     0.000000841758
       5        0.000092360261     0.000066158038     0.000727139402
       6       -0.000004733241    -0.000013625790     0.000001466489
       7       -0.000130425591    -0.000079259268     0.000017503776
       8        0.000115581569    -0.000033198458    -0.000056903590
       9       -0.000173799032     0.000452700215    -0.000711694339
      10        0.000000840068    -0.000007908729     0.000030569663
      11        0.000024603794    -0.000018474301     0.000020493437
      12        0.000158166586    -0.000371114975     0.000377072330
      13       -0.000026345853    -0.000041304509     0.000029799257
      14        0.000016130813    -0.000005208235     0.000003945340
      15       -0.000004249473     0.000007561173     0.000001330574
      16       -0.000005025550     0.000004796309    -0.000013831937

  **** Optimization is complete! (in 5 steps) ****
    Final optimized geometry and variables:
    Molecular point group: c1

    Geometry (in Angstrom), charge = 0, multiplicity = 1:

    H           -1.749420635131    -2.247471685097    -0.017550322250
    C           -1.341450473033    -1.254303788159    -0.025152194608
    N           -0.056468176132    -1.130444209825    -0.275645590388
    C           -2.144269909987    -0.157894470071     0.214744133964
    C            0.450274100828     0.085754279974    -0.289907672322
    H           -3.192119331867    -0.270926824064     0.416818752395
    N           -1.651688074429     1.061924101887     0.199852237325
    C           -0.369172196881     1.182824183036    -0.050662572583
    C            1.925253528232     0.234450625597    -0.551985052514
    H            0.034329985481     2.177922592268    -0.067696693368
    C            2.769631125287    -0.023394190206     0.698187245628
    H            2.202362603847    -0.472882809378    -1.322918760210
    H            2.127149846800     1.229220298786    -0.931425272653
    H            3.824799311947     0.066816685715     0.469193043991
    H            2.589364402080    -1.020128417346     1.080496432581
    H            2.534276779686     0.686536017720     1.483050567515

  Mulliken Charges: (a.u.)
   Center  Symbol    Alpha    Beta     Spin     Total
       1     H     0.41361  0.41361  0.00000  0.17277
       2     C     3.04421  3.04421  0.00000 -0.08841
       3     N     3.59837  3.59837  0.00000 -0.19674
       4     C     3.04752  3.04752  0.00000 -0.09503
       5     C     2.93630  2.93630  0.00000  0.12741
       6     H     0.41364  0.41364  0.00000  0.17271
       7     N     3.58680  3.58680  0.00000 -0.17361
       8     C     3.07843  3.07843  0.00000 -0.15686
       9     C     3.08086  3.08086  0.00000 -0.16173
      10     H     0.41538  0.41538  0.00000  0.16923
      11     C     3.14426  3.14426  0.00000 -0.28852
      12     H     0.44332  0.44332  0.00000  0.11336
      13     H     0.44859  0.44859  0.00000  0.10283
      14     H     0.44899  0.44899  0.00000  0.10201
      15     H     0.44635  0.44635  0.00000  0.10730
      16     H     0.45336  0.45336  0.00000  0.09328

   Total alpha = 29.00000, Total beta = 29.00000, Total charge =  0.00000
