                              Psi4 1.0.54 Driver

  ==> Input File <==

--------------------------------------------------------------------------
set {
	reference rhf
	basis cc-pvtz
}

set_num_threads( 4 )
memory 2 gb

molecule MOL {
0 1

H	 -2.816458	 -0.841657	 -0.064679
N	 -1.878861	 -0.711874	 0.250184
C	 -1.341419	 0.551458	 -0.220231
H	 -1.333674	 -1.468530	 -0.105118
C	 -0.035193	 0.862957	 0.473591
H	 -1.173546	 0.577190	 -1.296196
H	 -2.047692	 1.339276	 0.017620
O	 0.909758	 -0.095914	 0.105703
H	 0.308161	 1.855862	 0.186501
H	 -0.181920	 0.851332	 1.551211
C	 2.141725	 0.039057	 0.732807
H	 2.786888	 -0.748591	 0.371199
H	 2.600943	 0.998689	 0.504949
H	 2.050410	 -0.050625	 1.812706

	symmetry c1
}
set optking {
	frozen_dihedral = ("
		6 3 2 4
	")
}

ee,wfn = optimize('scf', return_wfn=True)
oeprop( wfn, 'DIPOLE', 'QUADRUPOLE', 'MULLIKEN_CHARGES')
f=open( 'psi4out.xyz', 'w' )
f.write( "14  " )
f.write( str(ee) + "\n" )
f.write( MOL.save_string_xyz() )
f.close()
--------------------------------------------------------------------------

    Molecular point group: c1
  Charge       = 0
  Multiplicity = 1
  Basis Set: CC-PVTZ
  Basis Set:
  @DF-RHF Final Energy:  -248.22580101024568
    Total Energy =                       -248.2258010102455614
    Molecular point group: c1
  Basis Set: CC-PVTZ
  Basis Set:
  Basis Set: CC-PVTZ
  Basis Set:
  @DF-RHF Final Energy:  -248.22584111935069
    Total Energy =                       -248.2258411193506618
  Basis Set: CC-PVTZ
  Basis Set:
  Basis Set: CC-PVTZ
  Basis Set:
  @DF-RHF Final Energy:  -248.22584421757884
    Total Energy =                       -248.2258442175788105
  Basis Set: CC-PVTZ
  Basis Set:
  Charge       = 0
  Multiplicity = 1
  Basis Set: CC-PVTZ
  Basis Set:

    Orbital Energies (a.u.)
    -----------------------

    Doubly Occupied:

       1A    -20.548991     2A    -15.524851     3A    -11.262267
       4A    -11.262067     5A    -11.240257     6A     -1.382993
       7A     -1.176546     8A     -1.000151     9A     -0.906334
      10A     -0.814879    11A     -0.683580    12A     -0.676848
      13A     -0.644902    14A     -0.613258    15A     -0.608515
      16A     -0.538873    17A     -0.528502    18A     -0.498341
      19A     -0.474238    20A     -0.418576    21A     -0.385217

  @DF-RHF Final Energy:  -248.22584443164959

   => Energetics <=

    Nuclear Repulsion Energy =            194.5386459915524142
    One-Electron Energy =                -723.1486106647141696
    Two-Electron Energy =                 280.3841202415119369
    DFT Exchange-Correlation Energy =       0.0000000000000000
    Empirical Dispersion Energy =           0.0000000000000000
    PCM Polarization Energy =               0.0000000000000000
    EFP Energy =                            0.0000000000000000
    Total Energy =                       -248.2258444316498753
    Molecular point group: c1
  Basis Set: CC-PVTZ
  Basis Set:

  -Total Gradient:
     Atom            X                  Y                   Z
    ------   -----------------  -----------------  -----------------
       1        0.000009558935    -0.000007885558     0.000002717426
       2        0.001929795225    -0.000009145912     0.002030776905
       3       -0.002514624495     0.000765782645    -0.000719346737
       4       -0.001147643032    -0.000125352229    -0.001590068493
       5        0.000017878458     0.000013124739    -0.000003284663
       6        0.001713398155    -0.000620830617     0.000278724933
       7        0.000008539995    -0.000005153780    -0.000002472640
       8       -0.000006331841    -0.000013887455     0.000000379545
       9       -0.000011991319    -0.000001448990    -0.000000687935
      10        0.000000749739     0.000004093218     0.000004085431
      11        0.000003129294     0.000000647848     0.000003739951
      12       -0.000002974369     0.000003372064     0.000000206149
      13        0.000000056950    -0.000004009312     0.000002134876
      14        0.000000458302     0.000000693340    -0.000006904747

  **** Optimization is complete! (in 4 steps) ****
    Final optimized geometry and variables:
    Molecular point group: c1

    Geometry (in Angstrom), charge = 0, multiplicity = 1:

    H           -2.778226572611    -0.960529072895    -0.347456985153
    N           -1.850562170473    -0.823361438278    -0.006295446370
    C           -1.309570025818     0.436625496785    -0.485122832077
    H           -1.300063030066    -1.584574701016    -0.343162922885
    C           -0.002559516259     0.750961220850     0.207580410229
    H           -1.127306644308     0.447806237600    -1.558725657337
    H           -2.015937513173     1.226886886401    -0.258828270653
    O            0.943000782891    -0.202992942160    -0.170223830538
    H            0.337719196390     1.746583250835    -0.075600757067
    H           -0.146495983468     0.732428696273     1.285230701923
    C            2.172687592498    -0.077933519607     0.462679487513
    H            2.819255099843    -0.859574355604     0.090583246555
    H            2.632806782836     0.885322456501     0.251943206244
    H            2.077983632412    -0.185082404024     1.540668970501

  Mulliken Charges: (a.u.)
   Center  Symbol    Alpha    Beta     Spin     Total
       1     H     0.43020  0.43020  0.00000  0.13960
       2     N     3.69185  3.69185  0.00000 -0.38371
       3     C     3.02698  3.02698  0.00000 -0.05396
       4     H     0.42345  0.42345  0.00000  0.15309
       5     C     2.96528  2.96528  0.00000  0.06943
       6     H     0.46343  0.46343  0.00000  0.07314
       7     H     0.45715  0.45715  0.00000  0.08570
       8     O     4.17973  4.17973  0.00000 -0.35945
       9     H     0.47112  0.47112  0.00000  0.05777
      10     H     0.46983  0.46983  0.00000  0.06034
      11     C     3.03134  3.03134  0.00000 -0.06269
      12     H     0.44783  0.44783  0.00000  0.10434
      13     H     0.47199  0.47199  0.00000  0.05602
      14     H     0.46982  0.46982  0.00000  0.06036

   Total alpha = 21.00000, Total beta = 21.00000, Total charge =  0.00000

*** Psi4 exiting successfully. Buy a developer a beer!
