  ==> Input File <==

--------------------------------------------------------------------------
set {
	reference rhf
	basis 6-31G*
}

set_num_threads( 4 )
memory 2 gb

molecule MOL {
0 1

H	 3.729471	 -0.928294	 -0.070608
O	 2.826016	 -1.159218	 0.122261
C	 2.077727	 -0.067559	 -0.035091
C	 0.624473	 -0.343591	 0.253101
O	 2.542965	 0.974826	 -0.363729
C	 -0.265902	 0.883932	 0.072916
H	 0.324016	 -1.163849	 -0.390541
H	 0.565024	 -0.726111	 1.268924
C	 -1.728698	 0.646073	 0.462102
H	 -0.209144	 1.219470	 -0.958188
H	 0.135059	 1.692851	 0.673903
C	 -2.057231	 -0.785058	 0.896713
H	 -2.350634	 0.899639	 -0.393270
H	 -2.010808	 1.337254	 1.255096
C	 -3.547068	 -0.987656	 1.172063
H	 -1.736119	 -1.477430	 0.121115
H	 -1.495598	 -1.044402	 1.790408
H	 -3.754857	 -2.007703	 1.479702
H	 -4.140896	 -0.781301	 0.286278
H	 -3.892874	 -0.327024	 1.962139

	symmetry c1
}
set optking {
	frozen_dihedral = ("
		12 9 6 10
	")
}

ee = optimize('scf')
oeprop('DIPOLE', 'QUADRUPOLE', 'MULLIKEN_CHARGES')
f=open( 'psi4out.xyz', 'w' )
f.write( "20  " )
f.write( str(ee) + "\n" )
f.write( MOL.save_string_xyz() )
f.close()
--------------------------------------------------------------------------

    Molecular point group: c1
  Charge       = 0
  Multiplicity = 1
  Basis Set: 6-31G*
  Basis Set:
  @DF-RHF Final Energy:  -383.93794516170590
    Total Energy =                       -383.9379451617057839
    Molecular point group: c1
  Basis Set: 6-31G*
  Basis Set:
  Basis Set: 6-31G*
  Basis Set:
  @DF-RHF Final Energy:  -383.93803769170643
    Total Energy =                       -383.9380376917064837
  Basis Set: 6-31G*
  Basis Set:
  Basis Set: 6-31G*
  Basis Set:
  @DF-RHF Final Energy:  -383.94013373200312
    Total Energy =                       -383.9401337320035736
  Basis Set: 6-31G*
  Basis Set:
  Basis Set: 6-31G*
  Basis Set:
  @DF-RHF Final Energy:  -383.94030752921043
    Total Energy =                       -383.9403075292102585
  Basis Set: 6-31G*
  Basis Set:
  @DF-RHF Final Energy:  -383.94011599175320
    Total Energy =                       -383.9401159917531459
  @DF-RHF Final Energy:  -383.94028453022190
    Total Energy =                       -383.9402845302220157
  Basis Set: 6-31G*
  Basis Set:
  @DF-RHF Final Energy:  -383.94031370643597
    Total Energy =                       -383.9403137064360862
  Basis Set: 6-31G*
  Basis Set:
  Basis Set: 6-31G*
  Basis Set:
  @DF-RHF Final Energy:  -383.94032078184318
    Total Energy =                       -383.9403207818427859
  Basis Set: 6-31G*
  Basis Set:
  Basis Set: 6-31G*
  Basis Set:
  @DF-RHF Final Energy:  -383.94032302567513
    Total Energy =                       -383.9403230256748429
  Basis Set: 6-31G*
  Basis Set:
  Charge       = 0
  Multiplicity = 1
  Basis Set: 6-31G*
  Basis Set:

    Orbital Energies (a.u.)
    -----------------------

    Doubly Occupied:

       1A    -20.612283     2A    -20.551520     3A    -11.380960
       4A    -11.240264     5A    -11.222839     6A    -11.221626
       7A    -11.220323     8A    -11.212721     9A     -1.474418
      10A     -1.365466    11A     -1.092681    12A     -1.040782
      13A     -0.959544    14A     -0.870531    15A     -0.821814
      16A     -0.767450    17A     -0.699452    18A     -0.688021
      19A     -0.669747    20A     -0.637215    21A     -0.595239
      22A     -0.592121    23A     -0.580922    24A     -0.547133
      25A     -0.542951    26A     -0.518897    27A     -0.499048
      28A     -0.478772    29A     -0.470236    30A     -0.459450
      31A     -0.453423    32A     -0.444048

  @DF-RHF Final Energy:  -383.94032310231165

   => Energetics <=

    Nuclear Repulsion Energy =            376.6526333818732724
    One-Electron Energy =               -1269.3221188853576678
    Two-Electron Energy =                 508.7291624011728004
    DFT Exchange-Correlation Energy =       0.0000000000000000
    Empirical Dispersion Energy =           0.0000000000000000
    PCM Polarization Energy =               0.0000000000000000
    EFP Energy =                            0.0000000000000000
    Total Energy =                       -383.9403231023115382
    Molecular point group: c1
  Basis Set: 6-31G*
  Basis Set:

  -Total Gradient:
     Atom            X                  Y                   Z
    ------   -----------------  -----------------  -----------------
       1       -0.000002311282     0.000001578884     0.000001062799
       2       -0.000001796213    -0.000006987455    -0.000002519105
       3        0.000007608476    -0.000000362651     0.000003111242
       4       -0.000001118079    -0.000001301017    -0.000019521948
       5       -0.000003396933     0.000006013382     0.000005641774
       6        0.000173359423    -0.001086085672    -0.000046885946
       7        0.000003074297     0.000003718176     0.000006764642
       8       -0.000000534963     0.000003095588     0.000006895284
       9       -0.000225250058    -0.000037627984    -0.000980926838
      10       -0.000086039369     0.000945147138     0.000307004911
      11        0.000008797094    -0.000001591940    -0.000003631902
      12        0.000133053286     0.000184365823     0.000717263014
      13       -0.000007118982    -0.000002970529     0.000002130755
      14        0.000000927667    -0.000002188198     0.000001556221
      15        0.000001818756    -0.000002196640     0.000004569076
      16        0.000000159322    -0.000006640423    -0.000000584379
      17       -0.000002551945     0.000005353160    -0.000003436178
      18       -0.000003458532    -0.000002376569    -0.000002991134
      19        0.000006520302     0.000003419542     0.000001565106
      20       -0.000001742272    -0.000002362614     0.000002932608

  **** Optimization is complete! (in 10 steps) ****
    Final optimized geometry and variables:
    Molecular point group: c1

    Geometry (in Angstrom), charge = 0, multiplicity = 1:

    H            3.706585772870    -0.690450885377    -0.444739042932
    O            2.824096201784    -0.957507941545    -0.206787251075
    C            2.016512972808     0.089906372492    -0.373029423602
    C            0.591369302721    -0.248153745073    -0.015514424676
    O            2.416862583250     1.140176438732    -0.757416530890
    C           -0.355379039519     0.937108718807    -0.203157412250
    H            0.307154317280    -1.100309600397    -0.624018040306
    H            0.600337766896    -0.604564941915     1.009528718727
    C           -1.849989531743     0.689156483703     0.143289440352
    H           -0.273024339804     1.277246448938    -1.228792940093
    H            0.018588240782     1.758741203072     0.396521439620
    C           -2.259546142335    -0.725920684416     0.568971283698
    H           -2.455766903855     0.970304464997    -0.713542045010
    H           -2.138599713183     1.369964252608     0.939479944456
    C           -3.754308480642    -0.816894552769     0.876215463653
    H           -2.016709796343    -1.439734594948    -0.213989388912
    H           -1.699685321543    -1.030695747465     1.448958797666
    H           -4.032260780505    -1.822368367156     1.176424302925
    H           -4.350180820305    -0.554193336155     0.006817127517
    H           -4.030982605982    -0.142420591647     1.681536557496

  Mulliken Charges: (a.u.)
   Center  Symbol    Alpha    Beta     Spin     Total
       1     H     0.26786  0.26786  0.00000  0.46428
       2     O     4.35184  4.35184  0.00000 -0.70368
       3     C     2.62198  2.62198  0.00000  0.75604
       4     C     3.21412  3.21412  0.00000 -0.42823
       5     O     4.27920  4.27920  0.00000 -0.55840
       6     C     3.15855  3.15855  0.00000 -0.31710
       7     H     0.39745  0.39745  0.00000  0.20511
       8     H     0.39771  0.39771  0.00000  0.20459
       9     C     3.15659  3.15659  0.00000 -0.31317
      10     H     0.40842  0.40842  0.00000  0.18315
      11     H     0.40838  0.40838  0.00000  0.18323
      12     C     3.15666  3.15666  0.00000 -0.31333
      13     H     0.41847  0.41847  0.00000  0.16307
      14     H     0.41901  0.41901  0.00000  0.16197
      15     C     3.23915  3.23915  0.00000 -0.47829
      16     H     0.42251  0.42251  0.00000  0.15499
      17     H     0.42239  0.42239  0.00000  0.15523
      18     H     0.41821  0.41821  0.00000  0.16358
      19     H     0.42073  0.42073  0.00000  0.15854
      20     H     0.42079  0.42079  0.00000  0.15842

   Total alpha = 32.00000, Total beta = 32.00000, Total charge =  0.00000
