  ==> Input File <==

--------------------------------------------------------------------------
set {
	reference rhf
	basis 6-31G*
}

set_num_threads( 4 )
memory 2 gb

molecule MOL {
0 1

H	 -1.951600	 1.456871	 -0.724495
C	 -1.216862	 1.399395	 0.071870
N	 -0.528168	 0.128977	 -0.000000
H	 -1.745849	 1.474330	 1.015053
H	 -0.557050	 2.266129	 -0.021334
C	 0.248044	 -0.037491	 -1.209632
H	 0.063522	 0.019325	 0.799317
H	 0.998722	 0.743888	 -1.266824
H	 -0.398417	 0.061950	 -2.074060
H	 0.763621	 -0.999315	 -1.275517

	symmetry c1
}
set optking {
	frozen_dihedral = ("
		2 3 6 8
	")
}

ee = optimize('scf')
oeprop('DIPOLE', 'QUADRUPOLE', 'MULLIKEN_CHARGES')
f=open( 'psi4out.xyz', 'w' )
f.write( "10  " )
f.write( str(ee) + "\n" )
f.write( MOL.save_string_xyz() )
f.close()
--------------------------------------------------------------------------

    Molecular point group: c1
  Charge       = 0
  Multiplicity = 1
  Basis Set: 6-31G*
  Basis Set:
  @DF-RHF Final Energy:  -134.23732001559921
    Total Energy =                       -134.2373200155992663
    Molecular point group: c1
  Basis Set: 6-31G*
  Basis Set:
  Basis Set: 6-31G*
  Basis Set:
  @DF-RHF Final Energy:  -134.23854343996391
    Total Energy =                       -134.2385434399639621
  Basis Set: 6-31G*
  Basis Set:
  Basis Set: 6-31G*
  Basis Set:
  @DF-RHF Final Energy:  -134.23874413256866
    Total Energy =                       -134.2387441325686268
  Basis Set: 6-31G*
  Basis Set:
  Charge       = 0
  Multiplicity = 1
  Basis Set: 6-31G*
  Basis Set:

    Orbital Energies (a.u.)
    -----------------------

    Doubly Occupied:

       1A    -15.538006     2A    -11.236011     3A    -11.235968
       4A     -1.199516     5A     -0.947874     6A     -0.854218
       7A     -0.662268     8A     -0.611745     9A     -0.591551
      10A     -0.539737    11A     -0.511141    12A     -0.506620
      13A     -0.361154

  @DF-RHF Final Energy:  -134.23874590689266

   => Energetics <=

    Nuclear Repulsion Energy =             84.6560372992985890
    One-Electron Energy =                -348.1979475276564813
    Two-Electron Energy =                 129.3031643214652036
    DFT Exchange-Correlation Energy =       0.0000000000000000
    Empirical Dispersion Energy =           0.0000000000000000
    PCM Polarization Energy =               0.0000000000000000
    EFP Energy =                            0.0000000000000000
    Total Energy =                       -134.2387459068926887
    Molecular point group: c1
  Basis Set: 6-31G*
  Basis Set:

  -Total Gradient:
     Atom            X                  Y                   Z
    ------   -----------------  -----------------  -----------------
       1       -0.000030168732     0.000004354468    -0.000007599932
       2       -0.000433665435    -0.000142842238    -0.000443827586
       3        0.000761602961     0.000107521055     0.000537095031
       4        0.000056329018    -0.000083530632    -0.000002250292
       5        0.000003452118    -0.000009817117     0.000030169002
       6       -0.000810351932     0.000593108714    -0.000603210466
       7        0.000054583459    -0.000015942938    -0.000043498196
       8        0.000481803002    -0.000447275592     0.000423177372
       9       -0.000047793754     0.000001700306     0.000047517728
      10       -0.000035790706    -0.000007276024     0.000062427339

  **** Optimization is complete! (in 4 steps) ****
    Final optimized geometry and variables:
    Molecular point group: c1

    Geometry (in Angstrom), charge = 0, multiplicity = 1:

    H           -1.467088291244     0.943514332861    -0.338221042543
    C           -0.737398704754     0.877366256431     0.462026240164
    N           -0.043170151700    -0.389031862951     0.376191318854
    H           -1.272876029759     0.935232015903     1.402715343036
    H           -0.081256737526     1.748682707271     0.387117389658
    C            0.741939414374    -0.536402064444    -0.829774046054
    H            0.541064498599    -0.512906116646     1.178905740612
    H            1.522071848684     0.220611233004    -0.945758305214
    H            0.089117838954    -0.477562225795    -1.694126247555
    H            1.214722629601    -1.512029198476    -0.838856706537

  Mulliken Charges: (a.u.)
   Center  Symbol    Alpha    Beta     Spin     Total
       1     H     0.41805  0.41805  0.00000  0.16390
       2     C     3.14506  3.14506  0.00000 -0.29013
       3     N     3.83826  3.83826  0.00000 -0.67652
       4     H     0.41679  0.41679  0.00000  0.16641
       5     H     0.43475  0.43475  0.00000  0.13050
       6     C     3.14519  3.14519  0.00000 -0.29037
       7     H     0.33255  0.33255  0.00000  0.33490
       8     H     0.43460  0.43460  0.00000  0.13081
       9     H     0.41823  0.41823  0.00000  0.16353
      10     H     0.41652  0.41652  0.00000  0.16697

   Total alpha = 13.00000, Total beta = 13.00000, Total charge = -0.00000
