  ==> Input File <==

--------------------------------------------------------------------------
set {
	reference rhf
	basis 6-31G*
}

set_num_threads( 1 )
memory 2 gb

molecule MOL {
0 1

H	 0.926730	 0.819234	 -2.024510
C	 0.876606	 1.401073	 -1.096204
C	 0.692068	 0.589600	 0.160137
O	 0.966409	 2.585559	 -1.128746
C	 -0.558097	 -0.297372	 0.091132
H	 0.647212	 1.271263	 1.001448
H	 1.573683	 -0.038666	 0.282070
C	 -1.850991	 0.512573	 -0.019058
H	 -0.476753	 -0.965681	 -0.762987
H	 -0.604799	 -0.930658	 0.975228
C	 -3.096943	 -0.368295	 -0.099594
H	 -1.800724	 1.150330	 -0.898172
H	 -1.931651	 1.177355	 0.838044
H	 -3.060452	 -1.020287	 -0.967456
H	 -3.996858	 0.233488	 -0.175704
H	 -3.191959	 -0.995686	 0.782074

	symmetry c1
}
set optking {
	frozen_dihedral = ("
		9 5 8 12,
		4 2 3 6
	")
}

ee = energy('scf')
oeprop('DIPOLE', 'QUADRUPOLE', 'MULLIKEN_CHARGES')
f=open( 'psi4out.xyz', 'w' )
f.write( "16  " )
f.write( str(ee) + "\n" )
f.write( MOL.save_string_xyz() )
f.close()
--------------------------------------------------------------------------

    Molecular point group: c1

    Geometry (in Angstrom), charge = 0, multiplicity = 1:

       Center              X                  Y                   Z               Mass
    ------------   -----------------  -----------------  -----------------  -----------------
           H          1.435593189974     0.074368647010    -1.669293151346     1.007825032070
           C          1.385469189974     0.656207647010    -0.740987151346    12.000000000000
           C          1.200931189974    -0.155265352990     0.515353848654    12.000000000000
           O          1.475272189974     1.840693647010    -0.773529151346    15.994914619560
           C         -0.049233810026    -1.042237352990     0.446348848654    12.000000000000
           H          1.156075189974     0.526397647010     1.356664848654     1.007825032070
           H          2.082546189974    -0.783531352990     0.637286848654     1.007825032070
           C         -1.342127810026    -0.232292352990     0.336158848654    12.000000000000
           H          0.032110189974    -1.710546352990    -0.407770151346     1.007825032070
           H         -0.095935810026    -1.675523352990     1.330444848654     1.007825032070
           C         -2.588079810026    -1.113160352990     0.255622848654    12.000000000000
           H         -1.291860810026     0.405464647010    -0.542955151346     1.007825032070
           H         -1.422787810026     0.432489647010     1.193260848654     1.007825032070
           H         -2.551588810026    -1.765152352990    -0.612239151346     1.007825032070
           H         -3.487994810026    -0.511377352990     0.179512848654     1.007825032070
           H         -2.683095810026    -1.740551352990     1.137290848654     1.007825032070

  Charge       = 0
  Multiplicity = 1
  Basis Set: 6-31G*
  Basis Set:

    Orbital Energies (a.u.)
    -----------------------

    Doubly Occupied:

       1A    -20.562747     2A    -11.326826     3A    -11.236016
       4A    -11.235098     5A    -11.226158     6A    -11.216933
       7A     -1.402718     8A     -1.096787     9A     -1.016231
      10A     -0.904094    11A     -0.820988    12A     -0.787607
      13A     -0.666185    14A     -0.656943    15A     -0.615385
      16A     -0.610142    17A     -0.588877    18A     -0.547861
      19A     -0.523587    20A     -0.519363    21A     -0.489074
      22A     -0.479893    23A     -0.466687    24A     -0.410488

  @DF-RHF Final Energy:  -270.01931944008072

   => Energetics <=

    Nuclear Repulsion Energy =            234.2941616860816509
    One-Electron Energy =                -829.8136754773672692
    Two-Electron Energy =                 325.5001943512050957
    DFT Exchange-Correlation Energy =       0.0000000000000000
    Empirical Dispersion Energy =           0.0000000000000000
    PCM Polarization Energy =               0.0000000000000000
    EFP Energy =                            0.0000000000000000
    Total Energy =                       -270.0193194400804941

  Mulliken Charges: (a.u.)
   Center  Symbol    Alpha    Beta     Spin     Total
       1     H     0.43220  0.43220  0.00000  0.13561
       2     C     2.83175  2.83175  0.00000  0.33651
       3     C     3.20731  3.20731  0.00000 -0.41461
       4     O     4.23744  4.23744  0.00000 -0.47488
       5     C     3.16517  3.16517  0.00000 -0.33034
       6     H     0.39978  0.39978  0.00000  0.20043
       7     H     0.40717  0.40717  0.00000  0.18565
       8     C     3.15579  3.15579  0.00000 -0.31157
       9     H     0.41974  0.41974  0.00000  0.16052
      10     H     0.41277  0.41277  0.00000  0.17445
      11     C     3.24013  3.24013  0.00000 -0.48025
      12     H     0.41681  0.41681  0.00000  0.16639
      13     H     0.41673  0.41673  0.00000  0.16655
      14     H     0.42105  0.42105  0.00000  0.15790
      15     H     0.41558  0.41558  0.00000  0.16884
      16     H     0.42059  0.42059  0.00000  0.15881

   Total alpha = 24.00000, Total beta = 24.00000, Total charge = -0.00000
