                              Psi4 1.0.54 Driver

  ==> Input File <==

--------------------------------------------------------------------------
set {
	reference rhf
	basis cc-pvtz
}

set_num_threads( 4 )
memory 2 gb

molecule MOL {
0 1

H	 -0.608880	 -1.478968	 0.560098
N	 -0.625934	 -0.663929	 -0.000707
C	 -1.815734	 -0.384905	 -0.769874
C	 0.468494	 0.129045	 -0.002160
H	 -2.019653	 -1.183884	 -1.472752
H	 -1.659258	 0.528859	 -1.317271
H	 -2.676657	 -0.262860	 -0.123379
C	 1.785715	 -0.615093	 0.000603
O	 0.413285	 1.323206	 0.000532
H	 1.866994	 -1.243310	 -0.878792
H	 2.591506	 0.100263	 0.006422
H	 1.860358	 -1.250360	 0.875522

	symmetry c1
}
set optking {
	frozen_dihedral = ("
		3 2 4 9
	")
}

ee,wfn = optimize('scf', return_wfn=True)
oeprop( wfn, 'DIPOLE', 'QUADRUPOLE', 'MULLIKEN_CHARGES')
f=open( 'psi4out.xyz', 'w' )
f.write( "12  " )
f.write( str(ee) + "\n" )
f.write( MOL.save_string_xyz() )
f.close()
--------------------------------------------------------------------------

    Molecular point group: c1
  Charge       = 0
  Multiplicity = 1
  Basis Set: CC-PVTZ
  Basis Set:
  @DF-RHF Final Energy:  -247.08519094077053
    Total Energy =                       -247.0851909407706444
    Molecular point group: c1
  Basis Set: CC-PVTZ
  Basis Set:
  Basis Set: CC-PVTZ
  Basis Set:
  @DF-RHF Final Energy:  -247.08891936906193
    Total Energy =                       -247.0889193690617276
  Basis Set: CC-PVTZ
  Basis Set:
  Basis Set: CC-PVTZ
  Basis Set:
  @DF-RHF Final Energy:  -247.09117108743027
    Total Energy =                       -247.0911710874303253
  Basis Set: CC-PVTZ
  Basis Set:
  Basis Set: CC-PVTZ
  Basis Set:
  @DF-RHF Final Energy:  -247.09435466268957
    Total Energy =                       -247.0943546626895113
  Basis Set: CC-PVTZ
  Basis Set:
  @DF-RHF Final Energy:  -247.09496981677108
    Total Energy =                       -247.0949698167711404
  @DF-RHF Final Energy:  -247.09521351664728
    Total Energy =                       -247.0952135166473909
  @DF-RHF Final Energy:  -247.09537639382435
    Total Energy =                       -247.0953763938243242
  @DF-RHF Final Energy:  -247.09534768176533
    Total Energy =                       -247.0953476817651904
  @DF-RHF Final Energy:  -247.09567476910956
    Total Energy =                       -247.0956747691094506
  @DF-RHF Final Energy:  -247.09569065909338
    Total Energy =                       -247.0956906590934068
  @DF-RHF Final Energy:  -247.09569235891530
    Total Energy =                       -247.0956923589153575
  @DF-RHF Final Energy:  -247.09569030009916
    Total Energy =                       -247.0956903000990224
  @DF-RHF Final Energy:  -247.09532475122546
    Total Energy =                       -247.0953247512255757
  @DF-RHF Final Energy:  -247.09239295675442
    Total Energy =                       -247.0923929567544519
  @DF-RHF Final Energy:  -247.09467592107839
    Total Energy =                       -247.0946759210784194
  @DF-RHF Final Energy:  -247.09535915495721
    Total Energy =                       -247.0953591549572934
  @DF-RHF Final Energy:  -247.09559097589892
    Total Energy =                       -247.0955909758989719
  @DF-RHF Final Energy:  -247.09557522387354
    Total Energy =                       -247.0955752238735386
  @DF-RHF Final Energy:  -247.09568192831750
    Total Energy =                       -247.0956819283176173
  @DF-RHF Final Energy:  -247.09568554824023
    Total Energy =                       -247.0956855482402830
  @DF-RHF Final Energy:  -247.09568220445621
    Total Energy =                       -247.0956822044562955
  @DF-RHF Final Energy:  -247.09562142287467
    Total Energy =                       -247.0956214228746148
  @DF-RHF Final Energy:  -247.09568180800252
    Total Energy =                       -247.0956818080025528
  Basis Set: CC-PVTZ
  Basis Set:
  @DF-RHF Final Energy:  -247.09568537127646
    Total Energy =                       -247.0956853712765451
  Basis Set: CC-PVTZ
  Basis Set:
  Basis Set: CC-PVTZ
  Basis Set:
  @DF-RHF Final Energy:  -247.09568552274160
    Total Energy =                       -247.0956855227417464
  Basis Set: CC-PVTZ
  Basis Set:
  Basis Set: CC-PVTZ
  Basis Set:
  @DF-RHF Final Energy:  -247.09568681711445
    Total Energy =                       -247.0956868171146539
  Basis Set: CC-PVTZ
  Basis Set:
  Charge       = 0
  Multiplicity = 1
  Basis Set: CC-PVTZ
  Basis Set:

    Orbital Energies (a.u.)
    -----------------------

    Doubly Occupied:

       1A    -20.516884     2A    -15.572867     3A    -11.339633
       4A    -11.254668     5A    -11.231349     6A     -1.396025
       7A     -1.230059     8A     -1.016857     9A     -0.931388
      10A     -0.778683    11A     -0.692029    12A     -0.652622
      13A     -0.634837    14A     -0.591714    15A     -0.585423
      16A     -0.555961    17A     -0.546825    18A     -0.510479
      19A     -0.424973    20A     -0.395635

  @DF-RHF Final Energy:  -247.09568698909143

   => Energetics <=

    Nuclear Repulsion Energy =            181.4753506823404621
    One-Electron Energy =                -695.4242496384794094
    Two-Electron Energy =                 266.8532119670474003
    DFT Exchange-Correlation Energy =       0.0000000000000000
    Empirical Dispersion Energy =           0.0000000000000000
    PCM Polarization Energy =               0.0000000000000000
    EFP Energy =                            0.0000000000000000
    Total Energy =                       -247.0956869890915186
    Molecular point group: c1
  Basis Set: CC-PVTZ
  Basis Set:

  -Total Gradient:
     Atom            X                  Y                   Z
    ------   -----------------  -----------------  -----------------
       1       -0.000173724858    -0.000033273275    -0.000022063390
       2       -0.004731396821     0.013630331121     0.005199187167
       3        0.003011124452    -0.007077355648    -0.001094095102
       4        0.002277390145    -0.013367945012    -0.010692515472
       5       -0.000009348356    -0.000075116306    -0.000034459131
       6        0.000015136286     0.000019273030    -0.000072077301
       7       -0.000046746709     0.000009350337    -0.000027569885
       8        0.000044705290     0.000033981070    -0.000219484357
       9       -0.000403096252     0.006906621311     0.006888479216
      10       -0.000013798194    -0.000078773115    -0.000015473543
      11        0.000024429001     0.000009272289    -0.000017082780
      12        0.000005326017     0.000023634201     0.000107154577

  **** Optimization is complete! (in 27 steps) ****
    Final optimized geometry and variables:
    Molecular point group: c1

    Geometry (in Angstrom), charge = 0, multiplicity = 1:

    H           -0.560776983316    -1.108192079493     1.131172785671
    N           -0.723180046487    -0.362567025015     0.494420426942
    C           -1.795398954457    -0.649830121126    -0.443749004664
    C            0.431656439508     0.220898175149     0.036303370119
    H           -1.547740383457    -1.471522284985    -1.108757015524
    H           -1.992490632082     0.227367212256    -1.038229289182
    H           -2.690892262074    -0.903163706662     0.106375581538
    C            1.697755527768    -0.233776101211     0.724964388571
    O            0.431195085865     1.086394288498    -0.781746499689
    H            1.962960642096    -1.226761056514     0.377508336284
    H            2.497136363401     0.449965380106     0.489776834742
    H            1.559505483395    -0.281174773617     1.798745016186

  Mulliken Charges: (a.u.)
   Center  Symbol    Alpha    Beta     Spin     Total
       1     H     0.42633  0.42633  0.00000  0.14733
       2     N     3.61493  3.61493  0.00000 -0.22987
       3     C     3.08612  3.08612  0.00000 -0.17224
       4     C     2.83494  2.83494  0.00000  0.33012
       5     H     0.46215  0.46215  0.00000  0.07570
       6     H     0.43472  0.43472  0.00000  0.13056
       7     H     0.45145  0.45145  0.00000  0.09710
       8     C     3.15368  3.15368  0.00000 -0.30736
       9     O     4.20163  4.20163  0.00000 -0.40326
      10     H     0.44917  0.44917  0.00000  0.10165
      11     H     0.43421  0.43421  0.00000  0.13158
      12     H     0.45066  0.45066  0.00000  0.09868

   Total alpha = 20.00000, Total beta = 20.00000, Total charge = -0.00000

*** Psi4 exiting successfully. Buy a developer a beer!
