  ==> Input File <==

--------------------------------------------------------------------------
set {
	reference rhf
	basis cc-pvtz
}

set_num_threads( 4 )
memory 2 gb

molecule MOL {
0 1

H	 1.661577	 0.441113	 -2.902664
C	 1.593065	 0.398808	 -1.820860
C	 0.172366	 0.051844	 -1.396909
H	 1.879035	 1.363418	 -1.420023
H	 2.314247	 -0.331809	 -1.476145
N	 0.000297	 0.000045	 0.046090
H	 -0.489383	 0.809835	 -1.792705
H	 -0.134395	 -0.889554	 -1.861234
C	 -1.359159	 0.315706	 0.454404
C	 0.474790	 -1.250305	 0.617058
C	 -2.416729	 -0.286720	 -0.460525
H	 -1.478729	 1.390261	 0.442008
H	 -1.539692	 0.003361	 1.486761
C	 0.938898	 -1.113792	 2.060805
H	 1.311691	 -1.599144	 0.028018
H	 -0.290576	 -2.028090	 0.545096
H	 -2.285276	 0.073129	 -1.473515
H	 -2.371743	 -1.368476	 -0.483209
H	 -3.408658	 -0.007405	 -0.121593
H	 1.745415	 -0.394218	 2.129010
H	 0.143482	 -0.785382	 2.718253
H	 1.296598	 -2.068539	 2.431372

	symmetry c1
}
set optking {
	frozen_dihedral = ("
		3 6 9 11
	")
}

ee = optimize('scf')
oeprop('DIPOLE', 'QUADRUPOLE', 'MULLIKEN_CHARGES')
f=open( 'psi4out.xyz', 'w' )
f.write( "22  " )
f.write( str(ee) + "\n" )
f.write( MOL.save_string_xyz() )
f.close()
--------------------------------------------------------------------------

    Molecular point group: c1
  Charge       = 0
  Multiplicity = 1
  Basis Set: CC-PVTZ
  Basis Set:
  @DF-RHF Final Energy:  -290.46911717401593
    Total Energy =                       -290.4691171740157642
    Molecular point group: c1
  Basis Set: CC-PVTZ
  Basis Set:
  Basis Set: CC-PVTZ
  Basis Set:
  @DF-RHF Final Energy:  -290.46977575450467
    Total Energy =                       -290.4697757545046102
  Basis Set: CC-PVTZ
  Basis Set:
  Basis Set: CC-PVTZ
  Basis Set:
  @DF-RHF Final Energy:  -290.47199758700083
    Total Energy =                       -290.4719975870006579
  Basis Set: CC-PVTZ
  Basis Set:
  Basis Set: CC-PVTZ
  Basis Set:
  @DF-RHF Final Energy:  -290.47215117493045
    Total Energy =                       -290.4721511749306160
  Basis Set: CC-PVTZ
  Basis Set:
  Basis Set: CC-PVTZ
  Basis Set:
  @DF-RHF Final Energy:  -290.47215798401083
    Total Energy =                       -290.4721579840105505
  Basis Set: CC-PVTZ
  Basis Set:
  Basis Set: CC-PVTZ
  Basis Set:
  @DF-RHF Final Energy:  -290.47216860156749
    Total Energy =                       -290.4721686015672049
  Basis Set: CC-PVTZ
  Basis Set:
  Basis Set: CC-PVTZ
  Basis Set:
  @DF-RHF Final Energy:  -290.47216996051918
    Total Energy =                       -290.4721699605195226
  Basis Set: CC-PVTZ
  Basis Set:
  Charge       = 0
  Multiplicity = 1
  Basis Set: CC-PVTZ
  Basis Set:

    Orbital Energies (a.u.)
    -----------------------

    Doubly Occupied:

       1A    -15.531260     2A    -11.238534     3A    -11.238430
       4A    -11.237164     5A    -11.206380     6A    -11.202977
       7A    -11.202143     8A     -1.222473     9A     -1.023794
      10A     -1.022082    11A     -0.956482    12A     -0.857574
      13A     -0.847110    14A     -0.759342    15A     -0.659368
      16A     -0.642462    17A     -0.618623    18A     -0.597599
      19A     -0.575621    20A     -0.548106    21A     -0.543764
      22A     -0.517110    23A     -0.511421    24A     -0.507794
      25A     -0.493421    26A     -0.488732    27A     -0.464579
      28A     -0.459517    29A     -0.339009

  @DF-RHF Final Energy:  -290.47217010600588

   => Energetics <=

    Nuclear Repulsion Energy =            338.6739505815456255
    One-Electron Energy =               -1063.2665003239608268
    Two-Electron Energy =                 434.1203796364091545
    DFT Exchange-Correlation Energy =       0.0000000000000000
    Empirical Dispersion Energy =           0.0000000000000000
    PCM Polarization Energy =               0.0000000000000000
    EFP Energy =                            0.0000000000000000
    Total Energy =                       -290.4721701060061037
    Molecular point group: c1
  Basis Set: CC-PVTZ
  Basis Set:

  -Total Gradient:
     Atom            X                  Y                   Z
    ------   -----------------  -----------------  -----------------
       1       -0.000006655156    -0.000001309285     0.000000788918
       2       -0.000001723112    -0.000005218864     0.000015662337
       3       -0.001196729683    -0.005049919850    -0.000442714790
       4       -0.000000434041    -0.000001445100    -0.000001287078
       5        0.000002040601     0.000001547219    -0.000003199227
       6        0.001773001772     0.009159703215    -0.000710384671
       7        0.000001094903     0.000001746456     0.000005092423
       8        0.000004801835    -0.000001859111     0.000003069487
       9       -0.000613569620    -0.008360078448     0.003973217523
      10       -0.000014360732     0.000014607569    -0.000036573981
      11        0.000062086103     0.004236475796    -0.002793994165
      12       -0.000002869050    -0.000005610978    -0.000013850204
      13       -0.000003448906     0.000008810178    -0.000003496745
      14       -0.000005567393     0.000008183191     0.000001156553
      15        0.000002464785     0.000005308435     0.000001312811
      16       -0.000006872932    -0.000007937122     0.000001573103
      17       -0.000002264898    -0.000002563575     0.000002554283
      18        0.000004257250     0.000003649933     0.000004536463
      19       -0.000000756099     0.000000202667    -0.000001976442
      20        0.000000988257    -0.000000045955    -0.000001270701
      21        0.000007705022    -0.000005349780     0.000007089544
      22       -0.000003188905     0.000001103410    -0.000007305436

  **** Optimization is complete! (in 8 steps) ****
    Final optimized geometry and variables:
    Molecular point group: c1

    Geometry (in Angstrom), charge = 0, multiplicity = 1:

    H            1.851865104413     0.740081658829    -2.764369729046
    C            1.744402706522     0.648828609620    -1.688703520351
    C            0.296419296607     0.334003478428    -1.333636336205
    H            2.046826052119     1.583279719942    -1.232338968333
    H            2.430050733412    -0.121173017388    -1.358202977261
    N            0.067635410859     0.263988324895     0.099061185007
    H           -0.315788207273     1.134315696942    -1.730280186621
    H           -0.017288451198    -0.578202204388    -1.845011493811
    C           -1.304964656207     0.554945973581     0.502544746603
    C            0.568305194646    -0.969023908763     0.692785988936
    C           -2.431714278890    -0.002176065661    -0.371808218429
    H           -1.423173954056     1.634342469522     0.544204742567
    H           -1.437695389486     0.202488908052     1.515644839680
    C            1.069756034104    -0.780651089249     2.118559367108
    H            1.390599357135    -1.333624389406     0.093638155172
    H           -0.188305221198    -1.756162874272     0.671256496529
    H           -2.433388300738     0.431966479144    -1.362248502835
    H           -2.372194137762    -1.079998086661    -0.478743350221
    H           -3.386514022505     0.229248293740     0.087510266318
    H            1.873779756656    -0.055346848997     2.140834736349
    H            0.288750361823    -0.430241086788     2.782196771100
    H            1.440889766502    -1.719990409970     2.515136325065

  Mulliken Charges: (a.u.)
   Center  Symbol    Alpha    Beta     Spin     Total
       1     H     0.45279  0.45279  0.00000  0.09442
       2     C     3.14470  3.14470  0.00000 -0.28940
       3     C     3.03901  3.03901  0.00000 -0.07802
       4     H     0.45144  0.45144  0.00000  0.09711
       5     H     0.45623  0.45623  0.00000  0.08755
       6     N     3.62090  3.62090  0.00000 -0.24180
       7     H     0.45277  0.45277  0.00000  0.09446
       8     H     0.46290  0.46290  0.00000  0.07419
       9     C     3.05458  3.05458  0.00000 -0.10915
      10     C     3.04755  3.04755  0.00000 -0.09509
      11     C     3.15558  3.15558  0.00000 -0.31115
      12     H     0.44872  0.44872  0.00000  0.10256
      13     H     0.45188  0.45188  0.00000  0.09624
      14     C     3.13756  3.13756  0.00000 -0.27511
      15     H     0.44898  0.44898  0.00000  0.10204
      16     H     0.46151  0.46151  0.00000  0.07698
      17     H     0.45108  0.45108  0.00000  0.09784
      18     H     0.45252  0.45252  0.00000  0.09497
      19     H     0.44646  0.44646  0.00000  0.10709
      20     H     0.45200  0.45200  0.00000  0.09601
      21     H     0.45622  0.45622  0.00000  0.08756
      22     H     0.45465  0.45465  0.00000  0.09070

   Total alpha = 29.00000, Total beta = 29.00000, Total charge = -0.00000
