  ==> Input File <==

--------------------------------------------------------------------------
set {
	reference rhf
	basis 6-31G*
}

set_num_threads( 4 )
memory 2 gb

molecule MOL {
0 1

H	 -1.748661	 -2.220942	 -0.005015
C	 -1.343207	 -1.225221	 -0.013879
N	 -0.055091	 -1.100174	 -0.261126
C	 -2.150779	 -0.125890	 0.222726
C	 0.449969	 0.122615	 -0.277109
H	 -3.200618	 -0.238980	 0.422496
N	 -1.660212	 1.097703	 0.209594
C	 -0.371804	 1.219904	 -0.038265
C	 1.928147	 0.267347	 -0.541394
H	 0.029131	 2.217482	 -0.051283
C	 2.227399	 1.276686	 -1.654810
H	 2.408151	 0.589824	 0.376466
H	 2.346366	 -0.700531	 -0.799231
H	 3.298282	 1.376811	 -1.800352
H	 1.825613	 2.251199	 -1.403069
H	 1.788218	 0.962115	 -2.596339

	symmetry c1
}
set optking {
	frozen_dihedral = ("
		12 9 5 3
	")
}

ee = optimize('scf')
oeprop('DIPOLE', 'QUADRUPOLE', 'MULLIKEN_CHARGES')
f=open( 'psi4out.xyz', 'w' )
f.write( "16  " )
f.write( str(ee) + "\n" )
f.write( MOL.save_string_xyz() )
f.close()
--------------------------------------------------------------------------

    Molecular point group: c1
  Charge       = 0
  Multiplicity = 1
  Basis Set: 6-31G*
  Basis Set:
  @DF-RHF Final Energy:  -340.75602897280561
    Total Energy =                       -340.7560289728054386
    Molecular point group: c1
  Basis Set: 6-31G*
  Basis Set:
  Basis Set: 6-31G*
  Basis Set:
  @DF-RHF Final Energy:  -340.75653164727902
    Total Energy =                       -340.7565316472787345
  Basis Set: 6-31G*
  Basis Set:
  Basis Set: 6-31G*
  Basis Set:
  @DF-RHF Final Energy:  -340.75670156350151
    Total Energy =                       -340.7567015635014513
  Basis Set: 6-31G*
  Basis Set:
  Basis Set: 6-31G*
  Basis Set:
  @DF-RHF Final Energy:  -340.75671694898381
    Total Energy =                       -340.7567169489837511
  Basis Set: 6-31G*
  Basis Set:
  Basis Set: 6-31G*
  Basis Set:
  @DF-RHF Final Energy:  -340.75672048083766
    Total Energy =                       -340.7567204808376005
  Basis Set: 6-31G*
  Basis Set:
  Basis Set: 6-31G*
  Basis Set:
  @DF-RHF Final Energy:  -340.75672757328425
    Total Energy =                       -340.7567275732840812
  Basis Set: 6-31G*
  Basis Set:
  Charge       = 0
  Multiplicity = 1
  Basis Set: 6-31G*
  Basis Set:

    Orbital Energies (a.u.)
    -----------------------

    Doubly Occupied:

       1A    -15.586561     2A    -15.581868     3A    -11.281967
       4A    -11.274759     5A    -11.272656     6A    -11.271117
       7A    -11.232655     8A    -11.223223     9A     -1.312866
      10A     -1.221350    11A     -1.084964    12A     -1.015087
      13A     -0.904880    14A     -0.894315    15A     -0.830168
      16A     -0.714342    17A     -0.710217    18A     -0.656131
      19A     -0.616824    20A     -0.607125    21A     -0.577667
      22A     -0.563322    23A     -0.522113    24A     -0.510817
      25A     -0.504150    26A     -0.480804    27A     -0.429366
      28A     -0.394784    29A     -0.344730

  @DF-RHF Final Energy:  -340.75672838407814

   => Energetics <=

    Nuclear Repulsion Energy =            349.2483495473668995
    One-Electron Energy =               -1152.7685040997580472
    Two-Electron Energy =                 462.7634261683128898
    DFT Exchange-Correlation Energy =       0.0000000000000000
    Empirical Dispersion Energy =           0.0000000000000000
    PCM Polarization Energy =               0.0000000000000000
    EFP Energy =                            0.0000000000000000
    Total Energy =                       -340.7567283840783148
    Molecular point group: c1
  Basis Set: 6-31G*
  Basis Set:

  -Total Gradient:
     Atom            X                  Y                   Z
    ------   -----------------  -----------------  -----------------
       1       -0.000013795341     0.000004348239    -0.000032658614
       2        0.000133386633    -0.000045993969     0.000028574793
       3        0.000075869200    -0.000163999371     0.001036312211
       4        0.000016399010     0.000129738704     0.000068103293
       5       -0.000219536028    -0.000092863658    -0.001307389230
       6       -0.000010598246    -0.000002490073    -0.000047763808
       7       -0.000088654300    -0.000075376918     0.000022754529
       8        0.000103650858    -0.000030843584    -0.000080166307
       9       -0.000150888566     0.001468344103     0.000017936158
      10       -0.000013532287    -0.000000843240    -0.000015925823
      11        0.000011138080    -0.000022073830     0.000002653957
      12        0.000169817993    -0.001210840569     0.000333653751
      13       -0.000013373954     0.000003806918     0.000013655335
      14       -0.000000024794     0.000012246658    -0.000026723969
      15       -0.000000136630     0.000005886167    -0.000002865908
      16        0.000000278371     0.000020954423    -0.000010150367

  **** Optimization is complete! (in 7 steps) ****
    Final optimized geometry and variables:
    Molecular point group: c1

    Geometry (in Angstrom), charge = 0, multiplicity = 1:

    H           -1.656190456130    -2.442071275133     0.287062730577
    C           -1.263164369961    -1.441467417550     0.289705479886
    N            0.027376985738    -1.300217234483     0.041844061201
    C           -2.078468638719    -0.357152277949     0.542932964139
    C            0.520965265604    -0.076378543624     0.038508242676
    H           -3.126996379761    -0.480775835051     0.742763990188
    N           -1.596538008871     0.873851989305     0.551172458290
    C           -0.313675687207     1.011526844419     0.302756092021
    C            2.000751370346     0.088423652776    -0.224348358957
    H            0.076409353791     2.013125627771     0.315847718842
    C            2.337747649320     1.061002404516    -1.358956204357
    H            2.490661733435     0.407393755540     0.692837864236
    H            2.391096493845    -0.894532968925    -0.455702575933
    H            3.410475293242     1.094586712710    -1.517550641752
    H            2.008059256916     2.071521890640    -1.142175227415
    H            1.871283276187     0.750006972448    -2.287986183529

  Mulliken Charges: (a.u.)
   Center  Symbol    Alpha    Beta     Spin     Total
       1     H     0.39383  0.39383  0.00000  0.21234
       2     C     2.99100  2.99100  0.00000  0.01801
       3     N     3.75735  3.75735  0.00000 -0.51470
       4     C     2.99826  2.99826  0.00000  0.00347
       5     C     2.87267  2.87267  0.00000  0.25467
       6     H     0.39423  0.39423  0.00000  0.21153
       7     N     3.73020  3.73020  0.00000 -0.46040
       8     C     2.99232  2.99232  0.00000  0.01536
       9     C     3.17658  3.17658  0.00000 -0.35316
      10     H     0.39477  0.39477  0.00000  0.21046
      11     C     3.24521  3.24521  0.00000 -0.49043
      12     H     0.40950  0.40950  0.00000  0.18099
      13     H     0.39795  0.39795  0.00000  0.20409
      14     H     0.41411  0.41411  0.00000  0.17178
      15     H     0.41917  0.41917  0.00000  0.16167
      16     H     0.41284  0.41284  0.00000  0.17431

   Total alpha = 29.00000, Total beta = 29.00000, Total charge =  0.00000
