  ==> Input File <==

--------------------------------------------------------------------------
set {
	reference rhf
	basis 6-31G*
}

set_num_threads( 1 )
memory 2 gb

molecule MOL {
0 1

H	 1.012811	 -1.260354	 -0.747327
O	 1.654024	 -0.625927	 -0.460906
C	 1.135793	 0.118896	 0.612333
C	 0.031547	 1.023609	 0.088541
H	 1.915668	 0.729681	 1.063582
H	 0.754543	 -0.542641	 1.387006
C	 -1.134819	 0.293262	 -0.585751
H	 0.474374	 1.714721	 -0.623187
H	 -0.338529	 1.620940	 0.920081
C	 -1.917817	 -0.639439	 0.339494
H	 -0.758119	 -0.268455	 -1.433105
H	 -1.813832	 1.041889	 -0.986690
H	 -2.777680	 -1.057197	 -0.174994
H	 -1.310268	 -1.471279	 0.680599
H	 -2.283753	 -0.111424	 1.216626

	symmetry c1
}
set optking {
	frozen_dihedral = ("
		8 4 7 11,
		2 3 4 8
	")
}

ee = energy('scf')
oeprop('DIPOLE', 'QUADRUPOLE', 'MULLIKEN_CHARGES')
f=open( 'psi4out.xyz', 'w' )
f.write( "15  " )
f.write( str(ee) + "\n" )
f.write( MOL.save_string_xyz() )
f.close()
--------------------------------------------------------------------------

    Molecular point group: c1

    Geometry (in Angstrom), charge = 0, multiplicity = 1:

       Center              X                  Y                   Z               Mass
    ------------   -----------------  -----------------  -----------------  -----------------
           H          1.030799511080    -1.259588079689    -0.739173381861     1.007825032070
           O          1.672012511080    -0.625161079689    -0.452752381861    15.994914619560
           C          1.153781511080     0.119661920311     0.620486618139    12.000000000000
           C          0.049535511080     1.024374920311     0.096694618139    12.000000000000
           H          1.933656511080     0.730446920311     1.071735618139     1.007825032070
           H          0.772531511080    -0.541875079689     1.395159618139     1.007825032070
           C         -1.116830488920     0.294027920311    -0.577597381861    12.000000000000
           H          0.492362511080     1.715486920311    -0.615033381861     1.007825032070
           H         -0.320540488920     1.621705920311     0.928234618139     1.007825032070
           C         -1.899828488920    -0.638673079689     0.347647618139    12.000000000000
           H         -0.740130488920    -0.267689079689    -1.424951381861     1.007825032070
           H         -1.795843488920     1.042654920311    -0.978536381861     1.007825032070
           H         -2.759691488920    -1.056431079689    -0.166840381861     1.007825032070
           H         -1.292279488920    -1.470513079689     0.688752618139     1.007825032070
           H         -2.265764488920    -0.110658079689     1.224779618139     1.007825032070

  Charge       = 0
  Multiplicity = 1
  Basis Set: 6-31G*
  Basis Set:

    Orbital Energies (a.u.)
    -----------------------

    Doubly Occupied:

       1A    -20.551673     2A    -11.268025     3A    -11.222975
       4A    -11.217457     5A    -11.214197     6A     -1.360095
       7A     -1.071821     8A     -0.976921     9A     -0.880221
      10A     -0.784497    11A     -0.696227    12A     -0.648421
      13A     -0.620410    14A     -0.584182    15A     -0.571860
      16A     -0.548793    17A     -0.500643    18A     -0.492419
      19A     -0.477848    20A     -0.459721    21A     -0.425649

  @DF-RHF Final Energy:  -232.14089975861847

   => Energetics <=

    Nuclear Repulsion Energy =            192.9954615302217746
    One-Electron Energy =                -697.1246291587893893
    Two-Electron Energy =                 271.9882678699502776
    DFT Exchange-Correlation Energy =       0.0000000000000000
    Empirical Dispersion Energy =           0.0000000000000000
    PCM Polarization Energy =               0.0000000000000000
    EFP Energy =                            0.0000000000000000
    Total Energy =                       -232.1408997586173655

  Mulliken Charges: (a.u.)
   Center  Symbol    Alpha    Beta     Spin     Total
       1     H     0.27764  0.27764  0.00000  0.44473
       2     O     4.37153  4.37153  0.00000 -0.74305
       3     C     3.00177  3.00177  0.00000 -0.00355
       4     C     3.15914  3.15914  0.00000 -0.31827
       5     H     0.41360  0.41360  0.00000  0.17280
       6     H     0.42885  0.42885  0.00000  0.14231
       7     C     3.16571  3.16571  0.00000 -0.33142
       8     H     0.41350  0.41350  0.00000  0.17300
       9     H     0.42680  0.42680  0.00000  0.14640
      10     C     3.24268  3.24268  0.00000 -0.48535
      11     H     0.42358  0.42358  0.00000  0.15284
      12     H     0.41536  0.41536  0.00000  0.16928
      13     H     0.41637  0.41637  0.00000  0.16725
      14     H     0.42461  0.42461  0.00000  0.15079
      15     H     0.41887  0.41887  0.00000  0.16225

   Total alpha = 21.00000, Total beta = 21.00000, Total charge = -0.00000
