  ==> Input File <==

--------------------------------------------------------------------------
set {
	reference rhf
	basis 6-31G*
}

set_num_threads( 1 )
memory 2 gb

molecule MOL {
0 1

H	 -3.301617	 0.570527	 0.000000
C	 -2.250981	 0.344174	 0.000000
C	 -1.813665	 -0.976045	 0.000000
C	 -1.315303	 1.358057	 0.000000
H	 -2.528860	 -1.779366	 0.000000
C	 -0.467298	 -1.270142	 0.000000
H	 -1.635074	 2.385107	 0.000000
C	 0.047081	 1.078114	 0.000000
H	 -0.115948	 -2.285222	 0.000000
C	 0.472063	 -0.241155	 0.000000
H	 0.749976	 1.888426	 0.000000
O	 1.765256	 -0.628444	 0.000000
C	 2.102966	 -1.920219	 0.415139
H	 1.816452	 -2.093472	 1.447237
H	 3.176690	 -1.994223	 0.328823
H	 1.642779	 -2.673383	 -0.215974

	symmetry c1
}
set optking {
	frozen_dihedral = ("
		10 12 13 14
	")
}

ee = energy('scf')
oeprop('DIPOLE', 'QUADRUPOLE', 'MULLIKEN_CHARGES')
f=open( 'psi4out.xyz', 'w' )
f.write( "16  " )
f.write( str(ee) + "\n" )
f.write( MOL.save_string_xyz() )
f.close()
--------------------------------------------------------------------------

    Molecular point group: c1

    Geometry (in Angstrom), charge = 0, multiplicity = 1:

       Center              X                  Y                   Z               Mass
    ------------   -----------------  -----------------  -----------------  -----------------
           H         -3.202931983946     0.900045149874    -0.060652530557     1.007825032070
           C         -2.152295983946     0.673692149874    -0.060652530557    12.000000000000
           C         -1.714979983946    -0.646526850126    -0.060652530557    12.000000000000
           C         -1.216617983946     1.687575149874    -0.060652530557    12.000000000000
           H         -2.430174983946    -1.449847850126    -0.060652530557     1.007825032070
           C         -0.368612983946    -0.940623850126    -0.060652530557    12.000000000000
           H         -1.536388983946     2.714625149874    -0.060652530557     1.007825032070
           C          0.145766016054     1.407632149874    -0.060652530557    12.000000000000
           H         -0.017262983946    -1.955703850126    -0.060652530557     1.007825032070
           C          0.570748016054     0.088363149874    -0.060652530557    12.000000000000
           H          0.848661016054     2.217944149874    -0.060652530557     1.007825032070
           O          1.863941016054    -0.298925850126    -0.060652530557    15.994914619560
           C          2.201651016054    -1.590700850126     0.354486469443    12.000000000000
           H          1.915137016054    -1.763953850126     1.386584469443     1.007825032070
           H          3.275375016054    -1.664704850126     0.268170469443     1.007825032070
           H          1.741464016054    -2.343864850126    -0.276626530557     1.007825032070

  Charge       = 0
  Multiplicity = 1
  Basis Set: 6-31G*
  Basis Set:

    Orbital Energies (a.u.)
    -----------------------

    Doubly Occupied:

       1A    -20.581944     2A    -11.294180     3A    -11.280636
       4A    -11.233053     5A    -11.232440     6A    -11.223772
       7A    -11.220011     8A    -11.219326     9A     -1.413524
      10A     -1.145775    11A     -1.020542    12A     -1.012894
      13A     -0.944569    14A     -0.834185    15A     -0.803447
      16A     -0.724395    17A     -0.667790    18A     -0.658305
      19A     -0.653989    20A     -0.618731    21A     -0.592954
      22A     -0.572498    23A     -0.526406    24A     -0.521852
      25A     -0.509504    26A     -0.472232    27A     -0.455406
      28A     -0.334882    29A     -0.306601

  @DF-RHF Final Energy:  -344.57295523150486

   => Energetics <=

    Nuclear Repulsion Energy =            349.2817039218651303
    One-Electron Energy =               -1159.5575125760915398
    Two-Electron Energy =                 465.7028534227216596
    DFT Exchange-Correlation Energy =       0.0000000000000000
    Empirical Dispersion Energy =           0.0000000000000000
    PCM Polarization Energy =               0.0000000000000000
    EFP Energy =                            0.0000000000000000
    Total Energy =                       -344.5729552315048068

  Mulliken Charges: (a.u.)
   Center  Symbol    Alpha    Beta     Spin     Total
       1     H     0.40113  0.40113  0.00000  0.19773
       2     C     3.11173  3.11173  0.00000 -0.22345
       3     C     3.09170  3.09170  0.00000 -0.18340
       4     C     3.09190  3.09190  0.00000 -0.18381
       5     H     0.40000  0.40000  0.00000  0.19999
       6     C     3.14876  3.14876  0.00000 -0.29753
       7     H     0.39833  0.39833  0.00000  0.20333
       8     C     3.12804  3.12804  0.00000 -0.25609
       9     H     0.39665  0.39665  0.00000  0.20671
      10     C     2.77300  2.77300  0.00000  0.45399
      11     H     0.39397  0.39397  0.00000  0.21207
      12     O     4.33073  4.33073  0.00000 -0.66146
      13     C     3.09298  3.09298  0.00000 -0.18597
      14     H     0.41688  0.41688  0.00000  0.16623
      15     H     0.40381  0.40381  0.00000  0.19238
      16     H     0.42037  0.42037  0.00000  0.15927

   Total alpha = 29.00000, Total beta = 29.00000, Total charge = -0.00000
