  ==> Input File <==

--------------------------------------------------------------------------
set {
	reference rhf
	basis 6-31G*
}

set_num_threads( 1 )
memory 2 gb

molecule MOL {
0 1

H	 -2.798360	 -0.862255	 -0.071053
N	 -1.863561	 -0.715187	 0.256814
C	 -1.344686	 0.554728	 -0.219830
H	 -1.300452	 -1.461917	 -0.101532
C	 -2.213802	 1.689113	 0.281114
H	 -0.315380	 0.750189	 0.084022
H	 -1.369281	 0.554141	 -1.305268
O	 -2.115824	 1.733680	 1.675926
H	 -1.882951	 2.634739	 -0.147800
H	 -3.245400	 1.519645	 -0.019422
C	 -2.936144	 2.682742	 2.279188
H	 -2.774262	 2.625088	 3.346974
H	 -2.695599	 3.689187	 1.941269
H	 -3.986548	 2.490522	 2.070593

	symmetry c1
}
set optking {
	frozen_dihedral = ("
		8 5 3 6,
		5 8 11 13,
		11 8 5 3
	")
}

ee = energy('scf')
oeprop('DIPOLE', 'QUADRUPOLE', 'MULLIKEN_CHARGES')
f=open( 'psi4out.xyz', 'w' )
f.write( "14  " )
f.write( str(ee) + "\n" )
f.write( MOL.save_string_xyz() )
f.close()
--------------------------------------------------------------------------

    Molecular point group: c1

    Geometry (in Angstrom), charge = 0, multiplicity = 1:

       Center              X                  Y                   Z               Mass
    ------------   -----------------  -----------------  -----------------  -----------------
           H         -0.688268715995    -2.046068579743    -0.928021866275     1.007825032070
           N          0.246530284005    -1.899000579743    -0.600154866275    14.003074004780
           C          0.765405284005    -0.629085579743    -1.076798866275    12.000000000000
           H          0.809639284005    -2.645730579743    -0.958500866275     1.007825032070
           C         -0.103710715995     0.505299420257    -0.575854866275    12.000000000000
           H          1.794711284005    -0.433624579743    -0.772946866275     1.007825032070
           H          0.740810284005    -0.629672579743    -2.162236866275     1.007825032070
           O         -0.005732715995     0.549866420257     0.818957133725    15.994914619560
           H          0.227140284005     1.450925420257    -1.004768866275     1.007825032070
           H         -1.135308715995     0.335831420257    -0.876390866275     1.007825032070
           C         -0.826052715995     1.498928420257     1.422219133725    12.000000000000
           H         -0.664170715995     1.441274420257     2.490005133725     1.007825032070
           H         -0.585507715995     2.505373420257     1.084300133725     1.007825032070
           H         -1.876456715995     1.306708420257     1.213624133725     1.007825032070

  Charge       = 0
  Multiplicity = 1
  Basis Set: 6-31G*
  Basis Set:

    Orbital Energies (a.u.)
    -----------------------

    Doubly Occupied:

       1A    -20.548595     2A    -15.529766     3A    -11.267663
       4A    -11.260660     5A    -11.242939     6A     -1.373302
       7A     -1.176653     8A     -0.998131     9A     -0.902331
      10A     -0.818122    11A     -0.683113    12A     -0.663000
      13A     -0.647913    14A     -0.614188    15A     -0.588499
      16A     -0.561422    17A     -0.522328    18A     -0.499892
      19A     -0.462626    20A     -0.413280    21A     -0.376214

  @DF-RHF Final Energy:  -248.11686877694464

   => Energetics <=

    Nuclear Repulsion Energy =            194.1935749067018548
    One-Electron Energy =                -722.3194946176113262
    Two-Electron Energy =                 280.0090509339653408
    DFT Exchange-Correlation Energy =       0.0000000000000000
    Empirical Dispersion Energy =           0.0000000000000000
    PCM Polarization Energy =               0.0000000000000000
    EFP Energy =                            0.0000000000000000
    Total Energy =                       -248.1168687769441021

  Mulliken Charges: (a.u.)
   Center  Symbol    Alpha    Beta     Spin     Total
       1     H     0.33566  0.33566  0.00000  0.32868
       2     N     3.91185  3.91185  0.00000 -0.82370
       3     C     3.07022  3.07022  0.00000 -0.14045
       4     H     0.33315  0.33315  0.00000  0.33371
       5     C     2.98911  2.98911  0.00000  0.02179
       6     H     0.41085  0.41085  0.00000  0.17830
       7     H     0.43417  0.43417  0.00000  0.13165
       8     O     4.29629  4.29629  0.00000 -0.59258
       9     H     0.42968  0.42968  0.00000  0.14065
      10     H     0.43561  0.43561  0.00000  0.12878
      11     C     3.07801  3.07801  0.00000 -0.15602
      12     H     0.41129  0.41129  0.00000  0.17742
      13     H     0.43284  0.43284  0.00000  0.13431
      14     H     0.43127  0.43127  0.00000  0.13746

   Total alpha = 21.00000, Total beta = 21.00000, Total charge = -0.00000
