  ==> Input File <==

--------------------------------------------------------------------------
set {
	reference rhf
	basis 6-31G*
}

set_num_threads( 1 )
memory 2 gb

molecule MOL {
0 1

H	 -2.646374	 -0.642757	 1.268656
C	 -2.083525	 -0.384536	 0.393091
O	 -0.807605	 -0.127164	 0.768327
F	 -2.118945	 -1.383102	 -0.486752
F	 -2.621877	 0.670592	 -0.209486
C	 -0.165321	 -1.065004	 1.556117
C	 0.507261	 -0.305660	 2.692422
Cl	 1.032642	 -1.967150	 0.613656
H	 -0.848605	 -1.777925	 1.983482
F	 1.131833	 -1.139893	 3.496229
F	 -0.418811	 0.319980	 3.391280
F	 1.366722	 0.581533	 2.254029

	symmetry c1
}
set optking {
	frozen_dihedral = ("
		10 7 6 9,
		9 6 3 2
	")
}

ee = energy('scf')
oeprop('DIPOLE', 'QUADRUPOLE', 'MULLIKEN_CHARGES')
f=open( 'psi4out.xyz', 'w' )
f.write( "12  " )
f.write( str(ee) + "\n" )
f.write( MOL.save_string_xyz() )
f.close()
--------------------------------------------------------------------------

    Molecular point group: c1

    Geometry (in Angstrom), charge = 0, multiplicity = 1:

       Center              X                  Y                   Z               Mass
    ------------   -----------------  -----------------  -----------------  -----------------
           H         -2.364890911859    -0.031844918148    -0.107495324482     1.007825032070
           C         -1.802041911859     0.226376081852    -0.983060324482    12.000000000000
           O         -0.526121911859     0.483748081852    -0.607824324482    15.994914619560
           F         -1.837461911859    -0.772189918148    -1.862903324482    18.998403224000
           F         -2.340393911859     1.281504081852    -1.585637324482    18.998403224000
           C          0.116162088141    -0.454091918148     0.179965675518    12.000000000000
           C          0.788744088141     0.305252081852     1.316270675518    12.000000000000
          CL          1.314125088141    -1.356237918148    -0.762495324482    34.968852682000
           H         -0.567121911859    -1.167012918148     0.607330675518     1.007825032070
           F          1.413316088141    -0.528980918148     2.120077675518    18.998403224000
           F         -0.137327911859     0.930892081852     2.015128675518    18.998403224000
           F          1.648205088141     1.192445081852     0.877877675518    18.998403224000

  Charge       = 0
  Multiplicity = 1
  Basis Set: 6-31G*
  Basis Set:

    Orbital Energies (a.u.)
    -----------------------

    Doubly Occupied:

       1A   -104.848890     2A    -26.367174     3A    -26.366151
       4A    -26.362166     5A    -26.345735     6A    -26.341023
       7A    -20.650094     8A    -11.534122     9A    -11.491248
      10A    -11.410642    11A    -10.583554    12A     -8.052920
      13A     -8.049326    14A     -8.049245    15A     -1.767385
      16A     -1.711821    17A     -1.664176    18A     -1.662230
      19A     -1.633729    20A     -1.489962    21A     -1.184266
      22A     -1.054604    23A     -0.985742    24A     -0.932950
      25A     -0.860448    26A     -0.856550    27A     -0.846851
      28A     -0.830398    29A     -0.813506    30A     -0.787488
      31A     -0.734032    32A     -0.730327    33A     -0.703384
      34A     -0.691066    35A     -0.685277    36A     -0.679875
      37A     -0.664113    38A     -0.655820    39A     -0.653023
      40A     -0.635860    41A     -0.617995    42A     -0.569133
      43A     -0.521551    44A     -0.481053    45A     -0.473946

  @DF-RHF Final Energy: -1146.30727406314236

   => Energetics <=

    Nuclear Repulsion Energy =            726.8476886993186099
    One-Electron Energy =               -3036.2482503748315139
    Two-Electron Energy =                1163.0932876123692949
    DFT Exchange-Correlation Energy =       0.0000000000000000
    Empirical Dispersion Energy =           0.0000000000000000
    PCM Polarization Energy =               0.0000000000000000
    EFP Energy =                            0.0000000000000000
    Total Energy =                      -1146.3072740631437227

  Mulliken Charges: (a.u.)
   Center  Symbol    Alpha    Beta     Spin     Total
       1     H     0.42188  0.42188  0.00000  0.15623
       2     C     2.56540  2.56540  0.00000  0.86920
       3     O     4.29744  4.29744  0.00000 -0.59489
       4     F     4.68058  4.68058  0.00000 -0.36117
       5     F     4.67461  4.67461  0.00000 -0.34921
       6     C     3.04126  3.04126  0.00000 -0.08251
       7     C     2.43171  2.43171  0.00000  1.13658
       8    CL     8.49306  8.49306  0.00000  0.01388
       9     H     0.37643  0.37643  0.00000  0.24713
      10     F     4.67342  4.67342  0.00000 -0.34685
      11     F     4.67751  4.67751  0.00000 -0.35501
      12     F     4.66669  4.66669  0.00000 -0.33338

   Total alpha = 45.00000, Total beta = 45.00000, Total charge = -0.00000
