  ==> Input File <==

--------------------------------------------------------------------------
set {
	reference rhf
	basis cc-pvtz
}

set_num_threads( 4 )
memory 2 gb

molecule MOL {
0 1

H	 3.889604	 0.356866	 -0.089510
N	 3.091268	 -0.241216	 -0.065538
C	 1.860978	 0.530248	 0.016256
H	 3.192566	 -0.835836	 0.730398
C	 0.644130	 -0.381765	 -0.031064
H	 1.835721	 1.204666	 -0.833114
H	 1.808789	 1.151975	 0.911067
C	 -0.678115	 0.376691	 0.025731
H	 0.693998	 -0.977147	 -0.936845
H	 0.693309	 -1.082142	 0.800523
C	 -1.269121	 0.456728	 1.430547
H	 -1.396137	 -0.102497	 -0.635916
H	 -0.536307	 1.384007	 -0.359077
C	 -2.594037	 1.210133	 1.482048
H	 -1.411124	 -0.548645	 1.817008
H	 -0.555097	 0.938624	 2.092904
H	 -3.340555	 0.732334	 0.856222
H	 -2.985568	 1.248313	 2.492123
H	 -2.477771	 2.231207	 1.133872

	symmetry c1
}
set optking {
	frozen_dihedral = ("
		12 8 5 9
	")
}

ee = optimize('scf')
oeprop('DIPOLE', 'QUADRUPOLE', 'MULLIKEN_CHARGES')
f=open( 'psi4out.xyz', 'w' )
f.write( "19  " )
f.write( str(ee) + "\n" )
f.write( MOL.save_string_xyz() )
f.close()
--------------------------------------------------------------------------

    Molecular point group: c1
  Charge       = 0
  Multiplicity = 1
  Basis Set: CC-PVTZ
  Basis Set:
  @DF-RHF Final Energy:  -251.44428558592193
    Total Energy =                       -251.4442855859219890
    Molecular point group: c1
  Basis Set: CC-PVTZ
  Basis Set:
  Basis Set: CC-PVTZ
  Basis Set:
  @DF-RHF Final Energy:  -251.44455052037546
    Total Energy =                       -251.4445505203754010
  Basis Set: CC-PVTZ
  Basis Set:
  Basis Set: CC-PVTZ
  Basis Set:
  @DF-RHF Final Energy:  -251.44460659293114
    Total Energy =                       -251.4446065929313932
  Basis Set: CC-PVTZ
  Basis Set:
  Basis Set: CC-PVTZ
  Basis Set:
  @DF-RHF Final Energy:  -251.44460764549001
    Total Energy =                       -251.4446076454899526
  Basis Set: CC-PVTZ
  Basis Set:
  Charge       = 0
  Multiplicity = 1
  Basis Set: CC-PVTZ
  Basis Set:

    Orbital Energies (a.u.)
    -----------------------

    Doubly Occupied:

       1A    -15.526501     2A    -11.238348     3A    -11.213065
       4A    -11.210574     5A    -11.207602     6A    -11.206124
       7A     -1.178395     8A     -1.073557     9A     -0.998438
      10A     -0.900788    11A     -0.822044    12A     -0.785467
      13A     -0.661306    14A     -0.638028    15A     -0.622904
      16A     -0.592314    17A     -0.567172    18A     -0.549937
      19A     -0.531787    20A     -0.498650    21A     -0.483869
      22A     -0.464884    23A     -0.457602    24A     -0.450261
      25A     -0.383570

  @DF-RHF Final Energy:  -251.44460802540920

   => Energetics <=

    Nuclear Repulsion Energy =            248.2335730018643858
    One-Electron Energy =                -830.8299847166938434
    Two-Electron Energy =                 331.1518036894202055
    DFT Exchange-Correlation Energy =       0.0000000000000000
    Empirical Dispersion Energy =           0.0000000000000000
    PCM Polarization Energy =               0.0000000000000000
    EFP Energy =                            0.0000000000000000
    Total Energy =                       -251.4446080254091953
    Molecular point group: c1
  Basis Set: CC-PVTZ
  Basis Set:

  -Total Gradient:
     Atom            X                  Y                   Z
    ------   -----------------  -----------------  -----------------
       1        0.000021892784    -0.000008646317     0.000005202878
       2        0.000031811279     0.000010984835     0.000004109117
       3       -0.000026269822    -0.000026167990    -0.000017990637
       4        0.000002990149    -0.000000831079     0.000001859274
       5        0.001498418958     0.003050161773    -0.002085164238
       6       -0.000013031188     0.000002133286     0.000000339233
       7       -0.000005220904    -0.000017793784    -0.000009844457
       8       -0.001183362290    -0.002526843202     0.002820802784
       9       -0.001061191175    -0.002099533803     0.001286941918
      10        0.000000900236    -0.000001164848     0.000012237156
      11        0.000006041425     0.000013174028    -0.000025078450
      12        0.000737766282     0.001597615761    -0.002004753648
      13        0.000006387014     0.000006347293     0.000007674068
      14       -0.000010621624    -0.000001252277     0.000017289578
      15        0.000009924208     0.000002317417    -0.000009480270
      16       -0.000003911789    -0.000002096867    -0.000011852433
      17        0.000003611109     0.000001237059     0.000001898212
      18       -0.000018082933     0.000008000783     0.000005243289
      19        0.000001948285    -0.000007642069     0.000000566627

  **** Optimization is complete! (in 5 steps) ****
    Final optimized geometry and variables:
    Molecular point group: c1

    Geometry (in Angstrom), charge = 0, multiplicity = 1:

    H            3.676485790309     0.055252955474    -0.525886453148
    N            2.883840486598    -0.550657566941    -0.510267045127
    C            1.643732733101     0.207575569051    -0.481414548894
    H            2.968835246870    -1.126846281911     0.300941285244
    C            0.438543457564    -0.719008014405    -0.550876048906
    H            1.635474841831     0.864144580652    -1.344795579781
    H            1.557688035425     0.847326620401     0.397937053504
    C           -0.906583817422     0.017027729349    -0.467058130245
    H            0.497802953329    -1.306356814164    -1.459392861776
    H            0.503058313537    -1.438791095611     0.262846801158
    C           -1.480575535024     0.111150217923     0.944510291785
    H           -1.627740403985    -0.463653656375    -1.120516367436
    H           -0.788508731461     1.022108218060    -0.866871530936
    C           -2.781329634245     0.903932009660     1.011257746308
    H           -1.650121737564    -0.891888771067     1.325910408423
    H           -0.747707848694     0.567061637659     1.604641350050
    H           -3.543905747533     0.456655167318     0.382193160812
    H           -3.168113321379     0.941294522223     2.023266508154
    H           -2.635330185790     1.925104100517     0.675048748463

  Mulliken Charges: (a.u.)
   Center  Symbol    Alpha    Beta     Spin     Total
       1     H     0.43018  0.43018  0.00000  0.13964
       2     N     3.68976  3.68976  0.00000 -0.37952
       3     C     3.02453  3.02453  0.00000 -0.04905
       4     H     0.43039  0.43039  0.00000  0.13923
       5     C     3.09011  3.09011  0.00000 -0.18023
       6     H     0.45639  0.45639  0.00000  0.08721
       7     H     0.46764  0.46764  0.00000  0.06472
       8     C     3.10336  3.10336  0.00000 -0.20672
       9     H     0.44291  0.44291  0.00000  0.11419
      10     H     0.46121  0.46121  0.00000  0.07758
      11     C     3.08133  3.08133  0.00000 -0.16265
      12     H     0.44648  0.44648  0.00000  0.10703
      13     H     0.45690  0.45690  0.00000  0.08619
      14     C     3.15015  3.15015  0.00000 -0.30030
      15     H     0.45435  0.45435  0.00000  0.09130
      16     H     0.45568  0.45568  0.00000  0.08864
      17     H     0.45475  0.45475  0.00000  0.09050
      18     H     0.44876  0.44876  0.00000  0.10248
      19     H     0.45512  0.45512  0.00000  0.08976

   Total alpha = 25.00000, Total beta = 25.00000, Total charge = -0.00000
