  ==> Input File <==

--------------------------------------------------------------------------
set {
	reference rhf
	basis cc-pvtz
}

set_num_threads( 4 )
memory 2 gb

molecule MOL {
0 1

H	 -0.498090	 -1.633182	 -0.153307
N	 -0.625934	 -0.663929	 -0.000707
C	 -1.967309	 -0.173908	 0.213045
C	 0.468494	 0.129045	 -0.002160
H	 -2.598110	 -0.384001	 -0.642489
H	 -1.920101	 0.891933	 0.357434
H	 -2.411173	 -0.627042	 1.091505
C	 1.785715	 -0.615093	 0.000603
O	 0.413285	 1.323206	 0.000532
H	 1.866994	 -1.243310	 -0.878792
H	 2.591506	 0.100263	 0.006422
H	 1.860358	 -1.250360	 0.875522

	symmetry c1
}
set optking {
	frozen_dihedral = ("
		3 2 4 9
	")
}

ee = optimize('scf')
oeprop('DIPOLE', 'QUADRUPOLE', 'MULLIKEN_CHARGES')
f=open( 'psi4out.xyz', 'w' )
f.write( "12  " )
f.write( str(ee) + "\n" )
f.write( MOL.save_string_xyz() )
f.close()
--------------------------------------------------------------------------

    Molecular point group: c1
  Charge       = 0
  Multiplicity = 1
  Basis Set: CC-PVTZ
  Basis Set:
  @DF-RHF Final Energy:  -247.09985881036911
    Total Energy =                       -247.0998588103691418
    Molecular point group: c1
  Basis Set: CC-PVTZ
  Basis Set:
  Basis Set: CC-PVTZ
  Basis Set:
  @DF-RHF Final Energy:  -247.10000478829909
    Total Energy =                       -247.1000047882989747
  Basis Set: CC-PVTZ
  Basis Set:
  Basis Set: CC-PVTZ
  Basis Set:
  @DF-RHF Final Energy:  -247.10050548266972
    Total Energy =                       -247.1005054826698029
  Basis Set: CC-PVTZ
  Basis Set:
  Basis Set: CC-PVTZ
  Basis Set:
  @DF-RHF Final Energy:  -247.10066408782117
    Total Energy =                       -247.1006640878213148
  Basis Set: CC-PVTZ
  Basis Set:
  @DF-RHF Final Energy:  -247.10071907497780
    Total Energy =                       -247.1007190749777465
  @DF-RHF Final Energy:  -247.10074533978707
    Total Energy =                       -247.1007453397870677
  @DF-RHF Final Energy:  -247.10087060159432
    Total Energy =                       -247.1008706015943517
  @DF-RHF Final Energy:  -247.10100443399935
    Total Energy =                       -247.1010044339994352
  @DF-RHF Final Energy:  -247.08739423354896
    Total Energy =                       -247.0873942335489915
  @DF-RHF Final Energy:  -247.10083837479488
    Total Energy =                       -247.1008383747949324
  @DF-RHF Final Energy:  -247.10116380110011
    Total Energy =                       -247.1011638011002560
  @DF-RHF Final Energy:  -247.10125836979475
    Total Energy =                       -247.1012583697945502
  @DF-RHF Final Energy:  -247.10128029206427
    Total Energy =                       -247.1012802920641889
  @DF-RHF Final Energy:  -247.10129505674394
    Total Energy =                       -247.1012950567439930
  @DF-RHF Final Energy:  -247.10130585329799
    Total Energy =                       -247.1013058532979585
  Basis Set: CC-PVTZ
  Basis Set:
  @DF-RHF Final Energy:  -247.10131353513071
    Total Energy =                       -247.1013135351306573
  Basis Set: CC-PVTZ
  Basis Set:
  Basis Set: CC-PVTZ
  Basis Set:
  @DF-RHF Final Energy:  -247.10131802783255
    Total Energy =                       -247.1013180278325194
  Basis Set: CC-PVTZ
  Basis Set:
  Basis Set: CC-PVTZ
  Basis Set:
  @DF-RHF Final Energy:  -247.10131906899812
    Total Energy =                       -247.1013190689981798
  Basis Set: CC-PVTZ
  Basis Set:
  Charge       = 0
  Multiplicity = 1
  Basis Set: CC-PVTZ
  Basis Set:

    Orbital Energies (a.u.)
    -----------------------

    Doubly Occupied:

       1A    -20.506979     2A    -15.575778     3A    -11.335835
       4A    -11.253754     5A    -11.228701     6A     -1.389294
       7A     -1.231206     8A     -1.016368     9A     -0.933297
      10A     -0.788251    11A     -0.690806    12A     -0.651851
      13A     -0.636103    14A     -0.586279    15A     -0.582854
      16A     -0.556181    17A     -0.547562    18A     -0.506760
      19A     -0.418300    20A     -0.391972

  @DF-RHF Final Energy:  -247.10131938551839

   => Energetics <=

    Nuclear Repulsion Energy =            181.8750635650518745
    One-Electron Energy =                -696.2965052700143360
    Two-Electron Energy =                 267.3201223194439535
    DFT Exchange-Correlation Energy =       0.0000000000000000
    Empirical Dispersion Energy =           0.0000000000000000
    PCM Polarization Energy =               0.0000000000000000
    EFP Energy =                            0.0000000000000000
    Total Energy =                       -247.1013193855185364
    Molecular point group: c1
  Basis Set: CC-PVTZ
  Basis Set:

  -Total Gradient:
     Atom            X                  Y                   Z
    ------   -----------------  -----------------  -----------------
       1       -0.000002981987     0.000011145626    -0.000015509327
       2        0.000005036602     0.001127188141    -0.001953647493
       3        0.000046524341    -0.000574966356     0.000921159081
       4       -0.000144693470    -0.001091981819     0.002284190737
       5       -0.000001590016    -0.000004746859     0.000002257360
       6       -0.000003225970    -0.000000221816    -0.000007058433
       7       -0.000000199360     0.000005996120    -0.000001335347
       8        0.000002870997    -0.000000047144     0.000010554072
       9        0.000099972495     0.000530321403    -0.001232925881
      10        0.000005831367     0.000014504517    -0.000014732039
      11        0.000005124338    -0.000001544171     0.000016621795
      12       -0.000012669337    -0.000015647643    -0.000009574524

  **** Optimization is complete! (in 19 steps) ****
    Final optimized geometry and variables:
    Molecular point group: c1

    Geometry (in Angstrom), charge = 0, multiplicity = 1:

    H           -0.520583135242    -1.523808249877    -0.618598054887
    N           -0.632409572472    -0.576497615862    -0.356005363491
    C           -1.962562989337    -0.114172016488    -0.029077144505
    C            0.466891681268     0.107543511503     0.032897623228
    H           -2.682227366309    -0.715387011753    -0.566751602243
    H           -2.076006048109     0.916534930735    -0.326982914135
    H           -2.167700501555    -0.184219657866     1.032966224222
    C            1.785129727242    -0.603451953427    -0.171883530669
    O            0.406189918467     1.203437814532     0.506271106757
    H            1.755492395281    -1.302743305323    -0.997431472207
    H            2.554919703359     0.132595241502    -0.343463396382
    H            2.029964486564    -1.148220072114     0.732932544837

  Mulliken Charges: (a.u.)
   Center  Symbol    Alpha    Beta     Spin     Total
       1     H     0.41371  0.41371  0.00000  0.17258
       2     N     3.61409  3.61409  0.00000 -0.22817
       3     C     3.07821  3.07821  0.00000 -0.15643
       4     C     2.84043  2.84043  0.00000  0.31914
       5     H     0.45511  0.45511  0.00000  0.08977
       6     H     0.44027  0.44027  0.00000  0.11945
       7     H     0.45674  0.45674  0.00000  0.08651
       8     C     3.14860  3.14860  0.00000 -0.29719
       9     O     4.21648  4.21648  0.00000 -0.43296
      10     H     0.45584  0.45584  0.00000  0.08832
      11     H     0.43531  0.43531  0.00000  0.12938
      12     H     0.44520  0.44520  0.00000  0.10960

   Total alpha = 20.00000, Total beta = 20.00000, Total charge = -0.00000
