  ==> Input File <==

--------------------------------------------------------------------------
set {
	reference rhf
	basis 6-31G*
}

set_num_threads( 4 )
memory 2 gb

molecule MOL {
0 1

H	 2.332609	 0.878551	 -1.051851
C	 2.357710	 0.000000	 -0.417167
C	 1.175432	 0.000000	 0.532082
H	 3.291263	 0.000000	 0.136880
H	 2.332609	 -0.878551	 -1.051851
O	 0.000000	 0.000000	 -0.221444
H	 1.206604	 0.877321	 1.177902
H	 1.206604	 -0.877321	 1.177902
C	 -1.175432	 0.000000	 0.532082
C	 -2.306257	 -0.514735	 -0.336905
H	 -1.395044	 1.007822	 0.883953
H	 -1.055889	 -0.630424	 1.413003
H	 -2.432327	 0.119022	 -1.207402
H	 -3.238471	 -0.528128	 0.219230
H	 -2.092697	 -1.521521	 -0.677610

	symmetry c1
}
set optking {
	frozen_dihedral = ("
		11 9 6 3
	")
}

ee = optimize('scf')
oeprop('DIPOLE', 'QUADRUPOLE', 'MULLIKEN_CHARGES')
f=open( 'psi4out.xyz', 'w' )
f.write( "15  " )
f.write( str(ee) + "\n" )
f.write( MOL.save_string_xyz() )
f.close()
--------------------------------------------------------------------------

    Molecular point group: c1
  Charge       = 0
  Multiplicity = 1
  Basis Set: 6-31G*
  Basis Set:
  @DF-RHF Final Energy:  -232.14368361494456
    Total Energy =                       -232.1436836149446776
    Molecular point group: c1
  Basis Set: 6-31G*
  Basis Set:
  Basis Set: 6-31G*
  Basis Set:
  @DF-RHF Final Energy:  -232.14373749792480
    Total Energy =                       -232.1437374979251445
  Basis Set: 6-31G*
  Basis Set:
  Basis Set: 6-31G*
  Basis Set:
  @DF-RHF Final Energy:  -232.14375218212834
    Total Energy =                       -232.1437521821283099
  Basis Set: 6-31G*
  Basis Set:
  Charge       = 0
  Multiplicity = 1
  Basis Set: 6-31G*
  Basis Set:

    Orbital Energies (a.u.)
    -----------------------

    Doubly Occupied:

       1A    -20.550459     2A    -11.268342     3A    -11.267941
       4A    -11.208785     5A    -11.208480     6A     -1.376563
       7A     -1.043829     8A     -0.982210     9A     -0.846578
      10A     -0.825758    11A     -0.676165    12A     -0.666809
      13A     -0.613015    14A     -0.591675    15A     -0.548998
      16A     -0.531270    17A     -0.522416    18A     -0.493904
      19A     -0.487201    20A     -0.464492    21A     -0.409637

  @DF-RHF Final Energy:  -232.14375239844901

   => Energetics <=

    Nuclear Repulsion Energy =            191.0844200836181699
    One-Electron Energy =                -693.2872910576967342
    Two-Electron Energy =                 270.0591185756296113
    DFT Exchange-Correlation Energy =       0.0000000000000000
    Empirical Dispersion Energy =           0.0000000000000000
    PCM Polarization Energy =               0.0000000000000000
    EFP Energy =                            0.0000000000000000
    Total Energy =                       -232.1437523984489530
    Molecular point group: c1
  Basis Set: 6-31G*
  Basis Set:

  -Total Gradient:
     Atom            X                  Y                   Z
    ------   -----------------  -----------------  -----------------
       1       -0.000005607824    -0.000003741673     0.000007593259
       2        0.000002690201    -0.000008922453    -0.000000701908
       3        0.000005205917    -0.002076781857     0.000015808239
       4        0.000010811641    -0.000002223218    -0.000000262172
       5        0.000002997171     0.000002303895    -0.000002650963
       6       -0.000396310227     0.003112689776    -0.000578542194
       7       -0.000005882285    -0.000002848439    -0.000001112449
       8       -0.000006395475     0.000002668051    -0.000004101196
       9        0.001768801199    -0.001452070150     0.002727652097
      10       -0.000005641219     0.000013478950     0.000000422890
      11       -0.001358836631     0.000411783070    -0.002165485156
      12        0.000000010594     0.000002849157     0.000007485431
      13       -0.000007312354    -0.000003003005    -0.000009239131
      14       -0.000009124908     0.000000012707    -0.000000615316
      15        0.000004594197     0.000003805189     0.000003748570

  **** Optimization is complete! (in 4 steps) ****
    Final optimized geometry and variables:
    Molecular point group: c1

    Geometry (in Angstrom), charge = 0, multiplicity = 1:

    H            2.315568490785     0.996017354601    -1.069972260903
    C            2.347466330552     0.114718631537    -0.439414233317
    C            1.170651651410     0.105484945860     0.516498266522
    H            3.284405800140     0.115573865416     0.109122453679
    H            2.321502975337    -0.761086642906    -1.077976314422
    O           -0.009020122829     0.094080370062    -0.231215425160
    H            1.201084195111     0.982871337769     1.162449777998
    H            1.211162524223    -0.771642564030     1.161364526753
    C           -1.188396699370     0.098264300365     0.519342862259
    C           -2.320667206519    -0.405759904003    -0.356355134829
    H           -1.408480972399     1.109919045047     0.857760770681
    H           -1.081764233047    -0.533164320310     1.399464290840
    H           -2.419332528810     0.216445991094    -1.238799288848
    H           -3.261174035295    -0.385743015820     0.185979293177
    H           -2.127621653701    -1.422943594292    -0.678329988444

  Mulliken Charges: (a.u.)
   Center  Symbol    Alpha    Beta     Spin     Total
       1     H     0.41339  0.41339  0.00000  0.17323
       2     C     3.24437  3.24437  0.00000 -0.48874
       3     C     2.98766  2.98766  0.00000  0.02467
       4     H     0.42258  0.42258  0.00000  0.15483
       5     H     0.41345  0.41345  0.00000  0.17311
       6     O     4.30975  4.30975  0.00000 -0.61951
       7     H     0.43265  0.43265  0.00000  0.13470
       8     H     0.43174  0.43174  0.00000  0.13653
       9     C     2.98716  2.98716  0.00000  0.02569
      10     C     3.24367  3.24367  0.00000 -0.48734
      11     H     0.43008  0.43008  0.00000  0.13984
      12     H     0.43248  0.43248  0.00000  0.13505
      13     H     0.41275  0.41275  0.00000  0.17450
      14     H     0.42315  0.42315  0.00000  0.15370
      15     H     0.41513  0.41513  0.00000  0.16974

   Total alpha = 21.00000, Total beta = 21.00000, Total charge = -0.00000
