  ==> Input File <==

--------------------------------------------------------------------------
set {
	reference rhf
	basis cc-pvtz
}

set_num_threads( 4 )
memory 2 gb

molecule MOL {
0 1

H	 -3.162190	 0.493205	 -0.000107
C	 -2.363908	 -0.234727	 0.000005
O	 -1.158738	 0.454634	 -0.000087
H	 -2.464314	 -0.863616	 -0.882153
H	 -2.464327	 -0.863359	 0.882345
C	 -0.171286	 -0.110156	 0.803821
C	 1.085682	 0.731724	 0.716296
H	 0.036409	 -1.130230	 0.479862
H	 -0.515915	 -0.164545	 1.836737
C	 2.218801	 0.177070	 1.572305
H	 1.393787	 0.785516	 -0.322022
H	 0.845860	 1.743498	 1.024115
H	 2.491493	 -0.827037	 1.264907
H	 3.103271	 0.796854	 1.491053
H	 1.940020	 0.137626	 2.620061

	symmetry c1
}
set optking {
	frozen_dihedral = ("
		6 3 2 4
	")
}

ee = optimize('scf')
oeprop('DIPOLE', 'QUADRUPOLE', 'MULLIKEN_CHARGES')
f=open( 'psi4out.xyz', 'w' )
f.write( "15  " )
f.write( str(ee) + "\n" )
f.write( MOL.save_string_xyz() )
f.close()
--------------------------------------------------------------------------

    Molecular point group: c1
  Charge       = 0
  Multiplicity = 1
  Basis Set: CC-PVTZ
  Basis Set:
  @DF-RHF Final Energy:  -232.22535514483289
    Total Energy =                       -232.2253551448329745
    Molecular point group: c1
  Basis Set: CC-PVTZ
  Basis Set:
  Basis Set: CC-PVTZ
  Basis Set:
  @DF-RHF Final Energy:  -232.22552045350895
    Total Energy =                       -232.2255204535088637
  Basis Set: CC-PVTZ
  Basis Set:
  Basis Set: CC-PVTZ
  Basis Set:
  @DF-RHF Final Energy:  -232.22555580402204
    Total Energy =                       -232.2255558040220649
  Basis Set: CC-PVTZ
  Basis Set:
  Charge       = 0
  Multiplicity = 1
  Basis Set: CC-PVTZ
  Basis Set:

    Orbital Energies (a.u.)
    -----------------------

    Doubly Occupied:

       1A    -20.544943     2A    -11.264770     3A    -11.261331
       4A    -11.212358     5A    -11.210529     6A     -1.378117
       7A     -1.058141     8A     -0.956195     9A     -0.877303
      10A     -0.809253    11A     -0.674092    12A     -0.654298
      13A     -0.631960    14A     -0.608226    15A     -0.564095
      16A     -0.544380    17A     -0.503100    18A     -0.489860
      19A     -0.479021    20A     -0.462270    21A     -0.412320

  @DF-RHF Final Energy:  -232.22555613668882

   => Energetics <=

    Nuclear Repulsion Energy =            189.7378735235628540
    One-Electron Energy =                -690.7337382295413590
    Two-Electron Energy =                 268.7703085692893410
    DFT Exchange-Correlation Energy =       0.0000000000000000
    Empirical Dispersion Energy =           0.0000000000000000
    PCM Polarization Energy =               0.0000000000000000
    EFP Energy =                            0.0000000000000000
    Total Energy =                       -232.2255561366891925
    Molecular point group: c1
  Basis Set: CC-PVTZ
  Basis Set:

  -Total Gradient:
     Atom            X                  Y                   Z
    ------   -----------------  -----------------  -----------------
       1       -0.000010300753    -0.000004500818     0.000000749738
       2        0.001121781000    -0.001995530691     0.002293107543
       3        0.000544191595    -0.001117123917    -0.002672825928
       4       -0.001077153755     0.001980251619    -0.001248901211
       5        0.000000645488    -0.000003928974     0.000005163300
       6       -0.000606445107     0.001135317879     0.001588944543
       7       -0.000006583905    -0.000013657541     0.000016635044
       8       -0.000006645163     0.000008313599     0.000009759878
       9       -0.000008375293     0.000008503125    -0.000022121742
      10        0.000040665440     0.000016315434     0.000010583456
      11       -0.000012834455    -0.000006799073     0.000009501235
      12        0.000002885275    -0.000003921325    -0.000001971535
      13       -0.000002829024     0.000004279331     0.000000109297
      14        0.000019148159    -0.000006821373     0.000013132678
      15        0.000001850492    -0.000000697275    -0.000001866296

  **** Optimization is complete! (in 4 steps) ****
    Final optimized geometry and variables:
    Molecular point group: c1

    Geometry (in Angstrom), charge = 0, multiplicity = 1:

    H           -3.066721387745     0.310223796402    -0.636216934679
    C           -2.267836707478    -0.420326126824    -0.621146399436
    O           -1.050460136835     0.255854131125    -0.603691763184
    H           -2.358288901550    -1.032439130007    -1.513911817273
    H           -2.397422406202    -1.049401156346     0.253852875470
    C           -0.055683707702    -0.308548271430     0.193103245141
    C            1.196238455099     0.539956479589     0.097860075017
    H            0.158750768150    -1.327038635993    -0.131399898343
    H           -0.393120112193    -0.363710894608     1.227589110049
    C            2.335541608508    -0.005083827043     0.952152963236
    H            1.500701212682     0.591914422841    -0.941657452655
    H            0.951361695127     1.551522135216     0.402645014318
    H            2.612904069055    -1.008828064727     0.647612469391
    H            3.216401419192     0.619296398299     0.865785630548
    H            2.060457675959    -0.042184050315     2.001038518526

  Mulliken Charges: (a.u.)
   Center  Symbol    Alpha    Beta     Spin     Total
       1     H     0.45309  0.45309  0.00000  0.09383
       2     C     3.03038  3.03038  0.00000 -0.06077
       3     O     4.17528  4.17528  0.00000 -0.35057
       4     H     0.46285  0.46285  0.00000  0.07430
       5     H     0.47347  0.47347  0.00000  0.05306
       6     C     2.95563  2.95563  0.00000  0.08875
       7     C     3.08164  3.08164  0.00000 -0.16327
       8     H     0.47644  0.47644  0.00000  0.04713
       9     H     0.47503  0.47503  0.00000  0.04994
      10     C     3.15586  3.15586  0.00000 -0.31171
      11     H     0.45105  0.45105  0.00000  0.09790
      12     H     0.45125  0.45125  0.00000  0.09751
      13     H     0.45584  0.45584  0.00000  0.08833
      14     H     0.44628  0.44628  0.00000  0.10745
      15     H     0.45593  0.45593  0.00000  0.08814

   Total alpha = 21.00000, Total beta = 21.00000, Total charge = -0.00000
