  ==> Input File <==

--------------------------------------------------------------------------
set {
	reference rhf
	basis 6-31G*
}

set_num_threads( 1 )
memory 2 gb

molecule MOL {
0 1

H	 2.708198	 -0.565855	 -0.581639
O	 2.016064	 -0.864478	 0.000222
C	 1.050492	 0.053836	 0.000068
C	 -0.318135	 -0.576402	 0.000164
O	 1.285279	 1.218255	 -0.000078
C	 -1.454360	 0.441875	 -0.000474
H	 -0.374042	 -1.230163	 -0.866135
H	 -0.374274	 -1.229227	 0.867154
C	 -2.826123	 -0.230780	 0.000056
H	 -1.357605	 1.085198	 -0.868380
H	 -1.357504	 1.086451	 0.866496
H	 -2.959731	 -0.858053	 -0.876869
H	 -3.619374	 0.509403	 -0.000080
H	 -2.959371	 -0.857318	 0.877556

	symmetry c1
}
set optking {
	frozen_dihedral = ("
		7 4 6 10,
		2 3 4 7
	")
}

ee = energy('scf')
oeprop('DIPOLE', 'QUADRUPOLE', 'MULLIKEN_CHARGES')
f=open( 'psi4out.xyz', 'w' )
f.write( "14  " )
f.write( str(ee) + "\n" )
f.write( MOL.save_string_xyz() )
f.close()
--------------------------------------------------------------------------

    Molecular point group: c1

    Geometry (in Angstrom), charge = 0, multiplicity = 1:

       Center              X                  Y                   Z               Mass
    ------------   -----------------  -----------------  -----------------  -----------------
           H          2.709868188342    -0.564098100777    -0.574979568814     1.007825032070
           O          2.017734188342    -0.862721100777     0.006881431186    15.994914619560
           C          1.052162188342     0.055592899223     0.006727431186    12.000000000000
           C         -0.316464811658    -0.574645100777     0.006823431186    12.000000000000
           O          1.286949188342     1.220011899223     0.006581431186    15.994914619560
           C         -1.452689811658     0.443631899223     0.006185431186    12.000000000000
           H         -0.372371811658    -1.228406100777    -0.859475568814     1.007825032070
           H         -0.372603811658    -1.227470100777     0.873813431186     1.007825032070
           C         -2.824452811658    -0.229023100777     0.006715431186    12.000000000000
           H         -1.355934811658     1.086954899223    -0.861720568814     1.007825032070
           H         -1.355833811658     1.088207899223     0.873155431186     1.007825032070
           H         -2.958060811658    -0.856296100777    -0.870209568814     1.007825032070
           H         -3.617703811658     0.511159899223     0.006579431186     1.007825032070
           H         -2.957700811658    -0.855561100777     0.884215431186     1.007825032070

  Charge       = 0
  Multiplicity = 1
  Basis Set: 6-31G*
  Basis Set:

    Orbital Energies (a.u.)
    -----------------------

    Doubly Occupied:

       1A    -20.607176     2A    -20.554836     3A    -11.381191
       4A    -11.240942     5A    -11.225231     6A    -11.217069
       7A     -1.473056     8A     -1.366813     9A     -1.082669
      10A     -0.978389    11A     -0.855789    12A     -0.792850
      13A     -0.703606    14A     -0.686787    15A     -0.666194
      16A     -0.625544    17A     -0.581673    18A     -0.568935
      19A     -0.544617    20A     -0.504649    21A     -0.493066
      22A     -0.482418    23A     -0.478296    24A     -0.444470

  @DF-RHF Final Energy:  -305.87186387227757

   => Energetics <=

    Nuclear Repulsion Energy =            239.9657438267890655
    One-Electron Energy =                -892.5627021113746196
    Two-Electron Energy =                 346.7250944123076124
    DFT Exchange-Correlation Energy =       0.0000000000000000
    Empirical Dispersion Energy =           0.0000000000000000
    PCM Polarization Energy =               0.0000000000000000
    EFP Energy =                            0.0000000000000000
    Total Energy =                       -305.8718638722779133

  Mulliken Charges: (a.u.)
   Center  Symbol    Alpha    Beta     Spin     Total
       1     H     0.26616  0.26616  0.00000  0.46767
       2     O     4.35381  4.35381  0.00000 -0.70762
       3     C     2.62870  2.62870  0.00000  0.74260
       4     C     3.20865  3.20865  0.00000 -0.41729
       5     O     4.26945  4.26945  0.00000 -0.53891
       6     C     3.15277  3.15277  0.00000 -0.30555
       7     H     0.40182  0.40182  0.00000  0.19635
       8     H     0.39839  0.39839  0.00000  0.20322
       9     C     3.24278  3.24278  0.00000 -0.48557
      10     H     0.41127  0.41127  0.00000  0.17747
      11     H     0.40960  0.40960  0.00000  0.18080
      12     H     0.42141  0.42141  0.00000  0.15717
      13     H     0.41455  0.41455  0.00000  0.17089
      14     H     0.42062  0.42062  0.00000  0.15877

   Total alpha = 24.00000, Total beta = 24.00000, Total charge =  0.00000
