                              Psi4 1.0.54 Driver

  ==> Input File <==

--------------------------------------------------------------------------
set {
	reference rhf
	basis cc-pvtz
}

set_num_threads( 4 )
memory 2 gb

molecule MOL {
0 1

H	 0.965108	 1.328518	 -1.805509
O	 1.214233	 1.567580	 -0.930731
C	 0.706474	 0.636793	 -0.025501
C	 -0.793473	 0.591216	 0.050087
H	 1.104486	 0.905157	 0.946029
H	 1.077678	 -0.362103	 -0.247117
C	 -1.534243	 -0.493009	 -0.013340
H	 -1.266611	 1.552628	 0.164437
H	 -1.101195	 -1.466332	 -0.144046
H	 -2.604242	 -0.437780	 0.050785

	symmetry c1
}
set optking {
	frozen_dihedral = ("
		5 3 4 7
	")
}

ee,wfn = optimize('scf', return_wfn=True)
oeprop( wfn, 'DIPOLE', 'QUADRUPOLE', 'MULLIKEN_CHARGES')
f=open( 'psi4out.xyz', 'w' )
f.write( "10  " )
f.write( str(ee) + "\n" )
f.write( MOL.save_string_xyz() )
f.close()
--------------------------------------------------------------------------

    Molecular point group: c1
  Charge       = 0
  Multiplicity = 1
  Basis Set: CC-PVTZ
  Basis Set:
  @DF-RHF Final Energy:  -191.99854800166764
    Total Energy =                       -191.9985480016675012
    Molecular point group: c1
  Basis Set: CC-PVTZ
  Basis Set:
  Basis Set: CC-PVTZ
  Basis Set:
  @DF-RHF Final Energy:  -191.99892364243868
    Total Energy =                       -191.9989236424386831
  Basis Set: CC-PVTZ
  Basis Set:
  Basis Set: CC-PVTZ
  Basis Set:
  @DF-RHF Final Energy:  -191.99899432811813
    Total Energy =                       -191.9989943281181013
  Basis Set: CC-PVTZ
  Basis Set:
  Basis Set: CC-PVTZ
  Basis Set:
  @DF-RHF Final Energy:  -191.99899878484950
    Total Energy =                       -191.9989987848495900
  Basis Set: CC-PVTZ
  Basis Set:
  Charge       = 0
  Multiplicity = 1
  Basis Set: CC-PVTZ
  Basis Set:

    Orbital Energies (a.u.)
    -----------------------

    Doubly Occupied:

       1A    -20.552339     2A    -11.275938     3A    -11.231028
       4A    -11.224505     5A     -1.370982     6A     -1.068039
       7A     -0.924700     8A     -0.778620     9A     -0.708110
      10A     -0.626539    11A     -0.616853    12A     -0.612320
      13A     -0.531033    14A     -0.494130    15A     -0.450113
      16A     -0.377050

  @DF-RHF Final Energy:  -191.99899923747651

   => Energetics <=

    Nuclear Repulsion Energy =            117.6019829617776224
    One-Electron Energy =                -493.5173626455695626
    Two-Electron Energy =                 183.9163804463154861
    DFT Exchange-Correlation Energy =       0.0000000000000000
    Empirical Dispersion Energy =           0.0000000000000000
    PCM Polarization Energy =               0.0000000000000000
    EFP Energy =                            0.0000000000000000
    Total Energy =                       -191.9989992374764256
    Molecular point group: c1
  Basis Set: CC-PVTZ
  Basis Set:

  -Total Gradient:
     Atom            X                  Y                   Z
    ------   -----------------  -----------------  -----------------
       1       -0.000003837783    -0.000010243549     0.000014866603
       2        0.000016458766     0.000027213999     0.000022728720
       3       -0.000010806454     0.001200513554     0.000045206297
       4       -0.000116057543    -0.000204519795    -0.001379969493
       5        0.000038342637    -0.000985067743     0.000292759280
       6       -0.000006116704    -0.000008820633     0.000017911111
       7        0.000085102018    -0.000003785553     0.000985536082
       8        0.000004785805    -0.000005819547     0.000004361271
       9       -0.000005894203     0.000000488384     0.000004929788
      10       -0.000001976537    -0.000009959117    -0.000008329659

  **** Optimization is complete! (in 5 steps) ****
    Final optimized geometry and variables:
    Molecular point group: c1

    Geometry (in Angstrom), charge = 0, multiplicity = 1:

    H            0.894037895209     0.707101447398    -1.562846374498
    O            1.212681315356     0.944001373843    -0.710354439608
    C            0.747483896125     0.024465046238     0.238925007444
    C           -0.750878489178    -0.004418639803     0.325010550151
    H            1.162475550930     0.340473215127     1.187593833732
    H            1.126572132253    -0.973217656846     0.037450396556
    C           -1.477017823194    -1.101028076143     0.322336755167
    H           -1.227160922121     0.957565318889     0.412210315828
    H           -1.028777851253    -2.074595613441     0.233280167886
    H           -2.546262279391    -1.068250007513     0.413459513419

  Mulliken Charges: (a.u.)
   Center  Symbol    Alpha    Beta     Spin     Total
       1     H     0.39365  0.39365  0.00000  0.21270
       2     O     4.20043  4.20043  0.00000 -0.40085
       3     C     2.94869  2.94869  0.00000  0.10262
       4     C     3.08363  3.08363  0.00000 -0.16727
       5     H     0.45841  0.45841  0.00000  0.08319
       6     H     0.46923  0.46923  0.00000  0.06155
       7     C     3.17212  3.17212  0.00000 -0.34424
       8     H     0.41772  0.41772  0.00000  0.16457
       9     H     0.42977  0.42977  0.00000  0.14045
      10     H     0.42636  0.42636  0.00000  0.14728

   Total alpha = 16.00000, Total beta = 16.00000, Total charge = -0.00000

*** Psi4 exiting successfully. Buy a developer a beer!
