  ==> Input File <==

--------------------------------------------------------------------------
set {
	reference rhf
	basis 6-31G*
}

set_num_threads( 4 )
memory 2 gb

molecule MOL {
0 1

O	 -2.324811	 1.361668	 -0.277141
C	 -2.105949	 0.203097	 -0.092081
C	 -0.889235	 -0.467034	 -0.705952
C	 -3.002726	 -0.644460	 0.782455
C	 0.146901	 -0.817358	 0.374251
H	 -0.452634	 0.228971	 -1.413949
H	 -1.178824	 -1.363219	 -1.247263
C	 1.401976	 -1.465463	 -0.215124
H	 0.401012	 0.092224	 0.906673
H	 -0.297458	 -1.494171	 1.102409
C	 2.439682	 -1.899055	 0.826613
H	 1.865143	 -0.775005	 -0.917599
H	 1.107072	 -2.337915	 -0.794527
C	 3.088069	 -0.745709	 1.594328
H	 3.218453	 -2.462616	 0.319064
H	 1.976681	 -2.588247	 1.529985
H	 3.550093	 -0.035263	 0.914236
H	 3.861398	 -1.114673	 2.260832
H	 2.368975	 -0.204220	 2.199707
H	 -3.496582	 -1.399307	 0.176174
H	 -3.747939	 -0.023774	 1.260148
H	 -2.421318	 -1.168775	 1.535358

	symmetry c1
}
set optking {
	frozen_dihedral = ("
		6 3 2 1
	")
}

ee = optimize('scf')
oeprop('DIPOLE', 'QUADRUPOLE', 'MULLIKEN_CHARGES')
f=open( 'psi4out.xyz', 'w' )
f.write( "22  " )
f.write( str(ee) + "\n" )
f.write( MOL.save_string_xyz() )
f.close()
--------------------------------------------------------------------------

    Molecular point group: c1
  Charge       = 0
  Multiplicity = 1
  Basis Set: 6-31G*
  Basis Set:
  @DF-RHF Final Energy:  -348.09712373003515
    Total Energy =                       -348.0971237300346388
    Molecular point group: c1
  Basis Set: 6-31G*
  Basis Set:
  Basis Set: 6-31G*
  Basis Set:
  @DF-RHF Final Energy:  -348.09587286985322
    Total Energy =                       -348.0958728698532809
  Basis Set: 6-31G*
  Basis Set:
  Basis Set: 6-31G*
  Basis Set:
  @DF-RHF Final Energy:  -348.09745807271275
    Total Energy =                       -348.0974580727133230
  Basis Set: 6-31G*
  Basis Set:
  Basis Set: 6-31G*
  Basis Set:
  @DF-RHF Final Energy:  -348.09769714936351
    Total Energy =                       -348.0976971493633414
  Basis Set: 6-31G*
  Basis Set:
  @DF-RHF Final Energy:  -348.09683947436838
    Total Energy =                       -348.0968394743684371
  @DF-RHF Final Energy:  -348.09765032865926
    Total Energy =                       -348.0976503286593129
  @DF-RHF Final Energy:  -348.09775360827553
    Total Energy =                       -348.0977536082759798
  @DF-RHF Final Energy:  -348.09775151483439
    Total Energy =                       -348.0977515148343855
  @DF-RHF Final Energy:  -348.09777066626248
    Total Energy =                       -348.0977706662626474
  @DF-RHF Final Energy:  -348.09779413946308
    Total Energy =                       -348.0977941394631898
  Basis Set: 6-31G*
  Basis Set:
  @DF-RHF Final Energy:  -348.09781165427739
    Total Energy =                       -348.0978116542778480
  Basis Set: 6-31G*
  Basis Set:
  Basis Set: 6-31G*
  Basis Set:
  @DF-RHF Final Energy:  -348.09781408443303
    Total Energy =                       -348.0978140844330255
  Basis Set: 6-31G*
  Basis Set:
  Basis Set: 6-31G*
  Basis Set:
  @DF-RHF Final Energy:  -348.09781518286297
    Total Energy =                       -348.0978151828629734
  Basis Set: 6-31G*
  Basis Set:
  Charge       = 0
  Multiplicity = 1
  Basis Set: 6-31G*
  Basis Set:

    Orbital Energies (a.u.)
    -----------------------

    Doubly Occupied:

       1A    -20.547955     2A    -11.324097     3A    -11.232509
       4A    -11.229368     5A    -11.227250     6A    -11.224429
       7A    -11.222615     8A    -11.213498     9A     -1.393034
      10A     -1.098266    11A     -1.045572    12A     -0.997121
      13A     -0.939631    14A     -0.861363    15A     -0.788732
      16A     -0.733023    17A     -0.663159    18A     -0.643809
      19A     -0.630573    20A     -0.618316    21A     -0.600018
      22A     -0.585534    23A     -0.560109    24A     -0.538399
      25A     -0.533953    26A     -0.526099    27A     -0.495403
      28A     -0.490926    29A     -0.472584    30A     -0.467644
      31A     -0.463167    32A     -0.396364

  @DF-RHF Final Energy:  -348.09781520174931

   => Energetics <=

    Nuclear Repulsion Energy =            372.8043671109105617
    One-Electron Energy =               -1210.2753236255391585
    Two-Electron Energy =                 489.3731413128791132
    DFT Exchange-Correlation Energy =       0.0000000000000000
    Empirical Dispersion Energy =           0.0000000000000000
    PCM Polarization Energy =               0.0000000000000000
    EFP Energy =                            0.0000000000000000
    Total Energy =                       -348.0978152017494835
    Molecular point group: c1
  Basis Set: 6-31G*
  Basis Set:

  -Total Gradient:
     Atom            X                  Y                   Z
    ------   -----------------  -----------------  -----------------
       1       -0.000025396218    -0.000010530523    -0.000040411304
       2        0.000045247826     0.000018206814     0.000060935350
       3       -0.000039325714    -0.000028637672    -0.000053648272
       4        0.000005910754     0.000001918649    -0.000000596122
       5       -0.000003245928     0.000006757225    -0.000004556638
       6        0.000026985700     0.000020850351     0.000036367017
       7       -0.000002763052    -0.000002062287    -0.000001034935
       8        0.000000069826     0.000004837718    -0.000006835587
       9       -0.000004553814     0.000000521118    -0.000001152032
      10        0.000001341226    -0.000001215595    -0.000001633586
      11       -0.000001893962     0.000000393006     0.000009915750
      12       -0.000001811225    -0.000001428847    -0.000005484147
      13       -0.000004462713     0.000002626261     0.000001397750
      14        0.000000275946    -0.000005228621    -0.000003508056
      15        0.000007498929     0.000002731062     0.000009401027
      16       -0.000000360798    -0.000001735863    -0.000000014452
      17       -0.000007826764    -0.000000642553    -0.000001144611
      18        0.000004850365    -0.000000160708    -0.000003053086
      19        0.000004114758    -0.000004378261     0.000002917062
      20       -0.000003217785    -0.000000032883    -0.000001292014
      21       -0.000000487195    -0.000003439328     0.000000223460
      22       -0.000000950157     0.000000650936     0.000003207428

  **** Optimization is complete! (in 14 steps) ****
    Final optimized geometry and variables:
    Molecular point group: c1

    Geometry (in Angstrom), charge = 0, multiplicity = 1:

    O           -2.190952042926     1.911165424183    -0.622828660239
    C           -1.962194000067     0.762405054475    -0.393879211574
    C           -0.738332642407     0.074126756592    -0.970711279471
    C           -2.878100970391    -0.054662574600     0.495040671690
    C            0.307453446233    -0.287680283990     0.095920916811
    H           -0.307529208993     0.749593082349    -1.699928794421
    H           -1.050678316412    -0.828680692883    -1.491346847574
    C            1.571834474234    -0.888798686447    -0.523974146242
    H            0.556316357256     0.606674468244     0.659567622593
    H           -0.113253266624    -0.998011680524     0.803740777105
    C            2.620881893709    -1.350426422086     0.493858223265
    H            2.020358906501    -0.162034137138    -1.198404293452
    H            1.287079820127    -1.740033462965    -1.138923265302
    C            3.248937261328    -0.222705881857     1.314787468989
    H            3.409259286545    -1.873090933918    -0.041726577379
    H            2.174469350648    -2.081881933429     1.164526682119
    H            3.690956772925     0.530751190365     0.668645833991
    H            4.034270573152    -0.607257666288     1.957951147235
    H            2.522280590190     0.272005041168     1.950677463313
    H           -3.115291863934    -1.011174144481     0.040075299374
    H           -3.787581448403     0.499798795056     0.680341269884
    H           -2.392185820129    -0.258672766766     1.444649290278

  Mulliken Charges: (a.u.)
   Center  Symbol    Alpha    Beta     Spin     Total
       1     O     4.26027  4.26027  0.00000 -0.52054
       2     C     2.73559  2.73559  0.00000  0.52882
       3     C     3.20254  3.20254  0.00000 -0.40507
       4     C     3.28984  3.28984  0.00000 -0.57969
       5     C     3.16681  3.16681  0.00000 -0.33361
       6     H     0.39947  0.39947  0.00000  0.20105
       7     H     0.41446  0.41446  0.00000  0.17109
       8     C     3.15247  3.15247  0.00000 -0.30495
       9     H     0.41018  0.41018  0.00000  0.17964
      10     H     0.41991  0.41991  0.00000  0.16018
      11     C     3.15345  3.15345  0.00000 -0.30689
      12     H     0.41950  0.41950  0.00000  0.16100
      13     H     0.42095  0.42095  0.00000  0.15811
      14     C     3.24194  3.24194  0.00000 -0.48388
      15     H     0.41888  0.41888  0.00000  0.16224
      16     H     0.42302  0.42302  0.00000  0.15395
      17     H     0.42031  0.42031  0.00000  0.15937
      18     H     0.41776  0.41776  0.00000  0.16449
      19     H     0.41983  0.41983  0.00000  0.16035
      20     H     0.41132  0.41132  0.00000  0.17737
      21     H     0.39627  0.39627  0.00000  0.20746
      22     H     0.40524  0.40524  0.00000  0.18953

   Total alpha = 32.00000, Total beta = 32.00000, Total charge =  0.00000
