  ==> Input File <==

--------------------------------------------------------------------------
set {
	reference rhf
	basis 6-31G*
}

set_num_threads( 4 )
memory 2 gb

molecule MOL {
0 1

O	 2.862325	 1.357334	 0.000267
C	 2.843464	 0.164689	 -0.000222
C	 1.546494	 -0.624492	 -0.000609
C	 4.124123	 -0.644674	 -0.000428
C	 0.291004	 0.242674	 0.000989
H	 1.557904	 -1.283758	 -0.867573
H	 1.558622	 -1.285963	 0.864672
C	 -0.963549	 -0.541333	 -0.387847
H	 0.432603	 1.074875	 -0.681302
H	 0.162331	 0.680557	 0.985798
C	 -2.228620	 0.318502	 -0.390949
H	 -0.826328	 -0.980601	 -1.374893
H	 -1.098658	 -1.375299	 0.299403
C	 -3.487804	 -0.458572	 -0.779054
H	 -2.094954	 1.152105	 -1.078161
H	 -2.367277	 0.757441	 0.595511
C	 -4.747270	 0.407122	 -0.780105
H	 -3.350856	 -0.896814	 -1.765468
H	 -3.623318	 -1.291229	 -0.091903
H	 -4.656493	 1.230283	 -1.483180
H	 -5.622499	 -0.171319	 -1.059536
H	 -4.931555	 0.832145	 0.202514
H	 4.165367	 -1.288615	 -0.874074
H	 4.976217	 0.020734	 -0.001915
H	 4.166763	 -1.286207	 0.874930

	symmetry c1
}
set optking {
	frozen_dihedral = ("
		9 5 3 6
	")
}

ee = optimize('scf')
oeprop('DIPOLE', 'QUADRUPOLE', 'MULLIKEN_CHARGES')
f=open( 'psi4out.xyz', 'w' )
f.write( "25  " )
f.write( str(ee) + "\n" )
f.write( MOL.save_string_xyz() )
f.close()
--------------------------------------------------------------------------

    Molecular point group: c1
  Charge       = 0
  Multiplicity = 1
  Basis Set: 6-31G*
  Basis Set:
  @DF-RHF Final Energy:  -387.13570639428718
    Total Energy =                       -387.1357063942878085
    Molecular point group: c1
  Basis Set: 6-31G*
  Basis Set:
  Basis Set: 6-31G*
  Basis Set:
  @DF-RHF Final Energy:  -387.13579000598207
    Total Energy =                       -387.1357900059816757
  Basis Set: 6-31G*
  Basis Set:
  Basis Set: 6-31G*
  Basis Set:
  @DF-RHF Final Energy:  -387.13581563636660
    Total Energy =                       -387.1358156363666012
  Basis Set: 6-31G*
  Basis Set:
  Basis Set: 6-31G*
  Basis Set:
  @DF-RHF Final Energy:  -387.13572548299317
    Total Energy =                       -387.1357254829933936
  Basis Set: 6-31G*
  Basis Set:
  Basis Set: 6-31G*
  Basis Set:
  @DF-RHF Final Energy:  -387.13582755025283
    Total Energy =                       -387.1358275502523156
  Basis Set: 6-31G*
  Basis Set:
  Charge       = 0
  Multiplicity = 1
  Basis Set: 6-31G*
  Basis Set:

    Orbital Energies (a.u.)
    -----------------------

    Doubly Occupied:

       1A    -20.550705     2A    -11.326679     3A    -11.231825
       4A    -11.228444     5A    -11.217158     6A    -11.216319
       7A    -11.215402     8A    -11.213551     9A    -11.208333
      10A     -1.396038    11A     -1.093450    12A     -1.056237
      13A     -1.014632    14A     -0.969234    15A     -0.890847
      16A     -0.814402    17A     -0.790992    18A     -0.730402
      19A     -0.661711    20A     -0.651287    21A     -0.631575
      22A     -0.624125    23A     -0.595726    24A     -0.584280
      25A     -0.567452    26A     -0.559436    27A     -0.540163
      28A     -0.526178    29A     -0.512505    30A     -0.491338
      31A     -0.486724    32A     -0.471933    33A     -0.464022
      34A     -0.461999    35A     -0.450672    36A     -0.400059

  @DF-RHF Final Energy:  -387.13582759742349

   => Energetics <=

    Nuclear Repulsion Energy =            438.2980866047562358
    One-Electron Energy =               -1393.1761583370948756
    Two-Electron Energy =                 567.7422441349151541
    DFT Exchange-Correlation Energy =       0.0000000000000000
    Empirical Dispersion Energy =           0.0000000000000000
    PCM Polarization Energy =               0.0000000000000000
    EFP Energy =                            0.0000000000000000
    Total Energy =                       -387.1358275974234857
    Molecular point group: c1
  Basis Set: 6-31G*
  Basis Set:

  -Total Gradient:
     Atom            X                  Y                   Z
    ------   -----------------  -----------------  -----------------
       1       -0.000001887454    -0.000030406973    -0.000043392806
       2       -0.000031420781     0.000020588403     0.000083948826
       3        0.001741547324     0.002531659986    -0.001183805887
       4        0.000005488615    -0.000002740652    -0.000037153803
       5       -0.001433358042    -0.002196910111    -0.001985958536
       6       -0.001221428435    -0.001733524705     0.001306734488
       7       -0.000001586314    -0.000010182058     0.000001602848
       8        0.000019378109     0.000019038692    -0.000021711874
       9        0.000939516996     0.001412330968     0.001837498398
      10       -0.000010881501    -0.000016059573     0.000007423927
      11       -0.000004601089    -0.000010681599     0.000044442774
      12       -0.000026475077    -0.000007360128     0.000001000752
      13        0.000026257690     0.000016826951     0.000008946662
      14       -0.000000085925     0.000009767478    -0.000026474128
      15       -0.000000890762     0.000000041675     0.000021807178
      16       -0.000002297050    -0.000014783714     0.000012949341
      17       -0.000000908099     0.000001765440    -0.000020472769
      18        0.000000252779    -0.000018183446    -0.000002668473
      19       -0.000000958971     0.000018116544     0.000005436908
      20       -0.000004968103     0.000003466496    -0.000001523966
      21       -0.000002124323     0.000001635622    -0.000002184156
      22        0.000006167622    -0.000003095265    -0.000001908975
      23        0.000003353350    -0.000009670687     0.000001201265
      24        0.000011136853    -0.000001880343    -0.000003809482
      25       -0.000009227416     0.000020240999    -0.000001928513

  **** Optimization is complete! (in 6 steps) ****
    Final optimized geometry and variables:
    Molecular point group: c1

    Geometry (in Angstrom), charge = 0, multiplicity = 1:

    O            2.858195285027     1.326121860313     0.291028547348
    C            2.829479984387     0.133850512674     0.273403652972
    C            1.527885579809    -0.645375576061     0.232841775696
    C            4.103106415211    -0.686182549666     0.295009110453
    C            0.271410699225     0.222783919351     0.207127609472
    H            1.553672720256    -1.318119712122    -0.623416018194
    H            1.513987686015    -1.305857296936     1.099294036047
    C           -0.986891643902    -0.567102269360    -0.153222958818
    H            0.418235566395     1.046088943324    -0.483389739666
    H            0.145446305495     0.684835171494     1.182572988215
    C           -2.255503212825     0.287107555560    -0.133180368821
    H           -0.866275692391    -1.006963124458    -1.142065836730
    H           -1.104633685749    -1.400778126499     0.537722866896
    C           -3.516279437300    -0.492536835059    -0.510867823867
    H           -2.133955623332     1.126274759236    -0.815767501071
    H           -2.383377670783     0.718041910735     0.858275806834
    C           -4.778893810355     0.368353830250    -0.492010703933
    H           -3.389429198587    -0.924524795499    -1.501373040470
    H           -3.640498860177    -1.329658817654     0.172993796079
    H           -4.699796275695     1.195436179527    -1.191859393964
    H           -5.655301097475    -0.211966500686    -0.763702648985
    H           -4.952722455258     0.787611057160     0.494990351762
    H            4.159879737646    -1.321648652179    -0.583901346968
    H            4.960347459705    -0.027935382135     0.320769598508
    H            4.119603474084    -1.336627625570     1.164646527804

  Mulliken Charges: (a.u.)
   Center  Symbol    Alpha    Beta     Spin     Total
       1     O     4.26100  4.26100  0.00000 -0.52201
       2     C     2.73568  2.73568  0.00000  0.52864
       3     C     3.21195  3.21195  0.00000 -0.42390
       4     C     3.28676  3.28676  0.00000 -0.57352
       5     C     3.14934  3.14934  0.00000 -0.29868
       6     H     0.40994  0.40994  0.00000  0.18011
       7     H     0.40942  0.40942  0.00000  0.18115
       8     C     3.15418  3.15418  0.00000 -0.30835
       9     H     0.40695  0.40695  0.00000  0.18610
      10     H     0.41597  0.41597  0.00000  0.16806
      11     C     3.15093  3.15093  0.00000 -0.30186
      12     H     0.42426  0.42426  0.00000  0.15148
      13     H     0.42503  0.42503  0.00000  0.14994
      14     C     3.15153  3.15153  0.00000 -0.30307
      15     H     0.42192  0.42192  0.00000  0.15617
      16     H     0.42281  0.42281  0.00000  0.15438
      17     C     3.23933  3.23933  0.00000 -0.47867
      18     H     0.42340  0.42340  0.00000  0.15320
      19     H     0.42363  0.42363  0.00000  0.15275
      20     H     0.42122  0.42122  0.00000  0.15755
      21     H     0.41952  0.41952  0.00000  0.16096
      22     H     0.42151  0.42151  0.00000  0.15699
      23     H     0.40870  0.40870  0.00000  0.18259
      24     H     0.39642  0.39642  0.00000  0.20715
      25     H     0.40858  0.40858  0.00000  0.18284

   Total alpha = 36.00000, Total beta = 36.00000, Total charge = -0.00000
