                              Psi4 1.0.54 Driver

  ==> Input File <==

--------------------------------------------------------------------------
set {
	reference rhf
	basis cc-pvtz
}

set_num_threads( 4 )
memory 2 gb

molecule MOL {
0 1

H	 3.845184	 3.654410	 -2.349399
C	 3.891084	 2.718527	 -1.804529
C	 2.622192	 2.492270	 -0.989640
H	 4.036183	 1.922283	 -2.526441
H	 4.768112	 2.750108	 -1.166073
C	 2.655658	 1.186288	 -0.198903
H	 1.765931	 2.490560	 -1.654284
H	 2.484112	 3.323630	 -0.302183
C	 1.400836	 0.935986	 0.631553
H	 2.800643	 0.355190	 -0.877934
H	 3.510451	 1.199950	 0.471116
C	 0.166485	 0.574257	 -0.177158
H	 1.569270	 0.105872	 1.312954
H	 1.174059	 1.791471	 1.261026
C	 -1.180025	 0.697761	 0.509157
O	 0.246181	 0.188383	 -1.298775
C	 -2.285431	 -0.137488	 -0.145671
H	 -1.447360	 1.745713	 0.496200
H	 -1.065514	 0.394096	 1.546399
C	 -3.646545	 0.082747	 0.508954
H	 -2.348635	 0.118247	 -1.199806
H	 -2.034895	 -1.192387	 -0.096473
C	 -4.757412	 -0.737227	 -0.138149
H	 -3.900211	 1.137405	 0.459735
H	 -3.580878	 -0.166775	 1.564416
H	 -4.867876	 -0.486707	 -1.187777
H	 -4.549650	 -1.800049	 -0.072540
H	 -5.709585	 -0.556397	 0.346597

	symmetry c1
}
set optking {
	frozen_dihedral = ("
		16 12 15 17
	")
}

ee,wfn = optimize('scf', return_wfn=True)
oeprop( wfn, 'DIPOLE', 'QUADRUPOLE', 'MULLIKEN_CHARGES')
f=open( 'psi4out.xyz', 'w' )
f.write( "28  " )
f.write( str(ee) + "\n" )
f.write( MOL.save_string_xyz() )
f.close()
--------------------------------------------------------------------------

    Molecular point group: c1
  Charge       = 0
  Multiplicity = 1
  Basis Set: CC-PVTZ
  Basis Set:
  @DF-RHF Final Energy:  -426.32143018449460
    Total Energy =                       -426.3214301844940337
    Molecular point group: c1
  Basis Set: CC-PVTZ
  Basis Set:
  Basis Set: CC-PVTZ
  Basis Set:
  @DF-RHF Final Energy:  -426.31820592814631
    Total Energy =                       -426.3182059281458578
  Basis Set: CC-PVTZ
  Basis Set:
  Basis Set: CC-PVTZ
  Basis Set:
  @DF-RHF Final Energy:  -426.32175086575774
    Total Energy =                       -426.3217508657575081
  Basis Set: CC-PVTZ
  Basis Set:
  Basis Set: CC-PVTZ
  Basis Set:
  @DF-RHF Final Energy:  -426.32000820922281
    Total Energy =                       -426.3200082092230332
  Basis Set: CC-PVTZ
  Basis Set:
  @DF-RHF Final Energy:  -426.32150027575335
    Total Energy =                       -426.3215002757533512
  @DF-RHF Final Energy:  -426.32200984254644
    Total Energy =                       -426.3220098425474589
  Basis Set: CC-PVTZ
  Basis Set:
  @DF-RHF Final Energy:  -426.32201179526498
    Total Energy =                       -426.3220117952644159
  Basis Set: CC-PVTZ
  Basis Set:
  Basis Set: CC-PVTZ
  Basis Set:
  @DF-RHF Final Energy:  -426.32201390783757
    Total Energy =                       -426.3220139078377997
  Basis Set: CC-PVTZ
  Basis Set:
  Basis Set: CC-PVTZ
  Basis Set:
  @DF-RHF Final Energy:  -426.32201539847495
    Total Energy =                       -426.3220153984744911
  Basis Set: CC-PVTZ
  Basis Set:
  Charge       = 0
  Multiplicity = 1
  Basis Set: CC-PVTZ
  Basis Set:

    Orbital Energies (a.u.)
    -----------------------

    Doubly Occupied:

       1A    -20.537425     2A    -11.317992     3A    -11.229182
       4A    -11.228946     5A    -11.217524     6A    -11.215472
       7A    -11.215064     8A    -11.211231     9A    -11.208162
      10A    -11.204315    11A     -1.398181    12A     -1.090063
      13A     -1.078914    14A     -1.023494    15A     -0.991754
      16A     -0.911649    17A     -0.866363    18A     -0.806951
      19A     -0.792090    20A     -0.725117    21A     -0.670504
      22A     -0.655493    23A     -0.627970    24A     -0.620257
      25A     -0.610842    26A     -0.584782    27A     -0.580131
      28A     -0.573918    29A     -0.537832    30A     -0.528231
      31A     -0.521994    32A     -0.509390    33A     -0.492601
      34A     -0.482059    35A     -0.474768    36A     -0.471744
      37A     -0.469194    38A     -0.466940    39A     -0.458009
      40A     -0.395860

  @DF-RHF Final Energy:  -426.32201544773920

   => Energetics <=

    Nuclear Repulsion Energy =            530.0834320584998522
    One-Electron Energy =               -1628.8060791304528721
    Two-Electron Energy =                 672.4006316242140429
    DFT Exchange-Correlation Energy =       0.0000000000000000
    Empirical Dispersion Energy =           0.0000000000000000
    PCM Polarization Energy =               0.0000000000000000
    EFP Energy =                            0.0000000000000000
    Total Energy =                       -426.3220154477388633
    Molecular point group: c1
  Basis Set: CC-PVTZ
  Basis Set:

  -Total Gradient:
     Atom            X                  Y                   Z
    ------   -----------------  -----------------  -----------------
       1       -0.000002005360    -0.000001557889     0.000003548978
       2        0.000000559477    -0.000004446333     0.000002235033
       3        0.000005638600     0.000010366303     0.000002646068
       4        0.000000264700     0.000002670909     0.000000513820
       5       -0.000000039223    -0.000000372059    -0.000001034590
       6        0.000008862581    -0.000007521323     0.000002592537
       7       -0.000004976267     0.000000659431    -0.000004486197
       8       -0.000001964569    -0.000002873057    -0.000000887310
       9       -0.000005233644     0.000023197100    -0.000003045043
      10       -0.000002009824     0.000004951272     0.000002694220
      11       -0.000000251133    -0.000001056742     0.000000753460
      12        0.000172372191    -0.001279937851     0.000937926248
      13        0.000000830483    -0.000002090594    -0.000002788053
      14        0.000005529057    -0.000002752654     0.000002963276
      15       -0.000258912481     0.000894080141    -0.000946511141
      16       -0.000097261692     0.000771292674    -0.000510951739
      17        0.000173937888    -0.000427527404     0.000530347052
      18        0.000006069778     0.000003393837     0.000004739665
      19        0.000003606473     0.000004558569    -0.000004025445
      20       -0.000006428348     0.000015648039    -0.000024330245
      21       -0.000002273683     0.000001129839     0.000002505975
      22        0.000008477968    -0.000011209822    -0.000007312547
      23        0.000008723345     0.000001185797     0.000009261790
      24       -0.000013098354     0.000013119601     0.000001913989
      25        0.000001374995    -0.000001964897     0.000000559565
      26        0.000001461028     0.000002640821    -0.000004883422
      27        0.000002044586    -0.000006470100    -0.000001284887
      28       -0.000005298575     0.000000886392     0.000006338947

  **** Optimization is complete! (in 10 steps) ****
    Final optimized geometry and variables:
    Molecular point group: c1

    Geometry (in Angstrom), charge = 0, multiplicity = 1:

    H            4.010044572181     2.197653083198    -2.671575583320
    C            4.032868598802     1.449754950641    -1.887382386777
    C            2.738542148916     1.456812526100    -1.081270093273
    H            4.193731084340     0.484690799858    -2.355329682358
    H            4.890563646512     1.658445367392    -1.256045334502
    C            2.739102654025     0.422298463658     0.042107663970
    H            1.902531932440     1.268732482985    -1.744941417628
    H            2.585729348263     2.446176898840    -0.656361786838
    C            1.457047592405     0.408504818740     0.866998543622
    H            2.901219978576    -0.564448355558    -0.374292649124
    H            3.572295997514     0.624395892804     0.708913125789
    C            0.246750354287    -0.179333653407     0.165620955570
    H            1.594522514867    -0.188653854485     1.766271294757
    H            1.206152532951     1.406113920997     1.216917137023
    C           -1.095765148982     0.109462680467     0.808371194721
    O            0.342079631674    -0.825162102125    -0.827041522684
    C           -2.207976500751    -0.845775910529     0.396096583774
    H           -1.350155318980     1.132256383428     0.535183662420
    H           -0.972872115096     0.117248076944     1.887533633150
    C           -3.549405156347    -0.498870355165     1.035589024655
    H           -2.300813374561    -0.839202926115    -0.682881799455
    H           -1.925909510219    -1.858463579090     0.667423746123
    C           -4.664397455376    -1.457010289525     0.630576959650
    H           -3.828867548203     0.514703813758     0.759914112694
    H           -3.448360390555    -0.502390382509     2.117852478426
    H           -4.813748653349    -1.450156201111    -0.443725523986
    H           -4.430492191149    -2.474943637727     0.923659293929
    H           -5.604082154666    -1.185683435718     1.097734287760

  Mulliken Charges: (a.u.)
   Center  Symbol    Alpha    Beta     Spin     Total
       1     H     0.44870  0.44870  0.00000  0.10260
       2     C     3.15156  3.15156  0.00000 -0.30312
       3     C     3.08448  3.08448  0.00000 -0.16896
       4     H     0.45182  0.45182  0.00000  0.09635
       5     H     0.45685  0.45685  0.00000  0.08630
       6     C     3.08737  3.08737  0.00000 -0.17474
       7     H     0.44587  0.44587  0.00000  0.10825
       8     H     0.45852  0.45852  0.00000  0.08296
       9     C     3.12106  3.12106  0.00000 -0.24213
      10     H     0.44477  0.44477  0.00000  0.11045
      11     H     0.44749  0.44749  0.00000  0.10502
      12     C     2.87208  2.87208  0.00000  0.25584
      13     H     0.43565  0.43565  0.00000  0.12871
      14     H     0.44263  0.44263  0.00000  0.11474
      15     C     3.10667  3.10667  0.00000 -0.21335
      16     O     4.17790  4.17790  0.00000 -0.35580
      17     C     3.08102  3.08102  0.00000 -0.16204
      18     H     0.44520  0.44520  0.00000  0.10960
      19     H     0.44418  0.44418  0.00000  0.11164
      20     C     3.08589  3.08589  0.00000 -0.17178
      21     H     0.44181  0.44181  0.00000  0.11638
      22     H     0.45106  0.45106  0.00000  0.09789
      23     C     3.14964  3.14964  0.00000 -0.29928
      24     H     0.45516  0.45516  0.00000  0.08969
      25     H     0.45610  0.45610  0.00000  0.08780
      26     H     0.45344  0.45344  0.00000  0.09312
      27     H     0.45439  0.45439  0.00000  0.09122
      28     H     0.44868  0.44868  0.00000  0.10264

   Total alpha = 40.00000, Total beta = 40.00000, Total charge = -0.00000

*** Psi4 exiting successfully. Buy a developer a beer!
