  ==> Input File <==

--------------------------------------------------------------------------
set {
	reference rhf
	basis cc-pvtz
}

set_num_threads( 4 )
memory 2 gb

molecule MOL {
0 1

H	 -3.401682	 -1.036167	 0.000000
O	 -3.113760	 -0.140926	 0.000000
C	 -1.775087	 -0.058754	 0.000000
C	 -1.084806	 0.741718	 -0.901771
C	 -1.087855	 -0.807533	 0.940863
H	 -1.624990	 1.319733	 -1.628770
C	 0.288338	 0.789257	 -0.858058
H	 -1.639353	 -1.418264	 1.627068
C	 0.287152	 -0.748793	 0.971389
H	 0.832559	 1.402900	 -1.548258
C	 0.991481	 0.044776	 0.078855
H	 0.821337	 -1.329289	 1.700901
C	 2.464567	 0.091658	 0.130646
O	 3.150055	 0.738618	 -0.588871
H	 2.915851	 -0.534221	 0.908090

	symmetry c1
}
set optking {
	frozen_dihedral = ("
		5 3 2 1
	")
}

ee = optimize('scf')
oeprop('DIPOLE', 'QUADRUPOLE', 'MULLIKEN_CHARGES')
f=open( 'psi4out.xyz', 'w' )
f.write( "15  " )
f.write( str(ee) + "\n" )
f.write( MOL.save_string_xyz() )
f.close()
--------------------------------------------------------------------------

    Molecular point group: c1
  Charge       = 0
  Multiplicity = 1
  Basis Set: CC-PVTZ
  Basis Set:
  @DF-RHF Final Energy:  -418.43743262009394
    Total Energy =                       -418.4374326200940004
    Molecular point group: c1
  Basis Set: CC-PVTZ
  Basis Set:
  Basis Set: CC-PVTZ
  Basis Set:
  @DF-RHF Final Energy:  -418.43898719414284
    Total Energy =                       -418.4389871941433512
  Basis Set: CC-PVTZ
  Basis Set:
  Basis Set: CC-PVTZ
  Basis Set:
  @DF-RHF Final Energy:  -418.43903892910112
    Total Energy =                       -418.4390389291012298
  Basis Set: CC-PVTZ
  Basis Set:
  Basis Set: CC-PVTZ
  Basis Set:
  @DF-RHF Final Energy:  -418.43826532892143
    Total Energy =                       -418.4382653289212612
  Basis Set: CC-PVTZ
  Basis Set:
  Basis Set: CC-PVTZ
  Basis Set:
  @DF-RHF Final Energy:  -418.43910973531825
    Total Energy =                       -418.4391097353180839
  Basis Set: CC-PVTZ
  Basis Set:
  Charge       = 0
  Multiplicity = 1
  Basis Set: CC-PVTZ
  Basis Set:

    Orbital Energies (a.u.)
    -----------------------

    Doubly Occupied:

       1A    -20.595002     2A    -20.548459     3A    -11.324750
       4A    -11.316851     5A    -11.259253     6A    -11.251639
       7A    -11.242346     8A    -11.240584     9A    -11.237899
      10A     -1.425752    11A     -1.404675    12A     -1.175499
      13A     -1.045895    14A     -1.040440    15A     -0.894025
      16A     -0.860323    17A     -0.803676    18A     -0.758936
      19A     -0.702949    20A     -0.686061    21A     -0.646078
      22A     -0.633165    23A     -0.623549    24A     -0.610054
      25A     -0.568095    26A     -0.558586    27A     -0.549970
      28A     -0.506320    29A     -0.489592    30A     -0.423578
      31A     -0.360568    32A     -0.339564

  @DF-RHF Final Energy:  -418.43911214867688

   => Energetics <=

    Nuclear Repulsion Energy =            401.9451845077558687
    One-Electron Energy =               -1366.5203239744851089
    Two-Electron Energy =                 546.1360273180528111
    DFT Exchange-Correlation Energy =       0.0000000000000000
    Empirical Dispersion Energy =           0.0000000000000000
    PCM Polarization Energy =               0.0000000000000000
    EFP Energy =                            0.0000000000000000
    Total Energy =                       -418.4391121486764860
    Molecular point group: c1
  Basis Set: CC-PVTZ
  Basis Set:

  -Total Gradient:
     Atom            X                  Y                   Z
    ------   -----------------  -----------------  -----------------
       1        0.000081968846    -0.000129797712    -0.003411523137
       2       -0.000157505163     0.001213761735     0.005121121390
       3        0.000206227401    -0.002919613257    -0.003470775533
       4       -0.000317723021    -0.000114555536     0.000097558480
       5        0.000193116412     0.001966800344     0.001673479247
       6        0.000009829282    -0.000004082151     0.000005703730
       7        0.000351281952    -0.000108643023     0.000163432366
       8       -0.000008711614    -0.000010267082     0.000006857156
       9       -0.000298857335    -0.000167070319     0.000086810668
      10       -0.000018088317     0.000008561777    -0.000010892146
      11       -0.000032789344     0.000251327206    -0.000307521142
      12        0.000001961658     0.000018213473     0.000000291184
      13        0.000034630696     0.000040278120     0.000078428774
      14       -0.000033699155    -0.000020393142    -0.000023970553
      15       -0.000011642303    -0.000024520429    -0.000009000486

  **** Optimization is complete! (in 6 steps) ****
    Final optimized geometry and variables:
    Molecular point group: c1

    Geometry (in Angstrom), charge = 0, multiplicity = 1:

    H           -3.460390197536    -1.039186757284     0.012945053753
    O           -3.117728168865    -0.162960144011    -0.005517744437
    C           -1.764917641930    -0.165458060271     0.032633677413
    C           -1.086378635708     0.648982078010    -0.862917423103
    C           -1.072437220996    -0.895954869363     0.980355059349
    H           -1.649303562175     1.215358672967    -1.577729157937
    C            0.285142790755     0.714862907299    -0.817047928930
    H           -1.609111662934    -1.499449660470     1.687180446106
    C            0.306290643701    -0.830926908871     1.008823633121
    H            0.823957541463     1.337202329605    -1.503652831552
    C            0.996189239144    -0.029623893017     0.117205587341
    H            0.846758374857    -1.401873390172     1.741131426738
    C            2.471404917378     0.030690817844     0.170350425777
    O            3.149859012911     0.683379094516    -0.549107929453
    H            2.927226115082    -0.591483611815     0.948242926729

  Mulliken Charges: (a.u.)
   Center  Symbol    Alpha    Beta     Spin     Total
       1     H     0.38379  0.38379  0.00000  0.23243
       2     O     4.17884  4.17884  0.00000 -0.35768
       3     C     2.85929  2.85929  0.00000  0.28143
       4     C     3.10647  3.10647  0.00000 -0.21295
       5     C     3.12282  3.12282  0.00000 -0.24564
       6     H     0.41307  0.41307  0.00000  0.17386
       7     C     3.06420  3.06420  0.00000 -0.12840
       8     H     0.42183  0.42183  0.00000  0.15633
       9     C     3.07627  3.07627  0.00000 -0.15255
      10     H     0.40710  0.40710  0.00000  0.18580
      11     C     2.99807  2.99807  0.00000  0.00386
      12     H     0.42121  0.42121  0.00000  0.15757
      13     C     2.91071  2.91071  0.00000  0.17859
      14     O     4.17630  4.17630  0.00000 -0.35260
      15     H     0.46003  0.46003  0.00000  0.07995

   Total alpha = 32.00000, Total beta = 32.00000, Total charge =  0.00000
