  ==> Input File <==

--------------------------------------------------------------------------
set {
	reference rhf
	basis 6-31G*
}

set_num_threads( 1 )
memory 2 gb

molecule MOL {
0 1

H	 3.089270	 -1.380733	 0.000000
O	 2.178328	 -1.639175	 0.000000
C	 1.368216	 -0.558384	 0.000000
C	 1.803740	 0.698088	 0.401128
C	 0.061378	 -0.736336	 -0.419448
H	 2.821152	 0.834419	 0.727198
C	 0.933057	 1.774767	 0.382590
H	 -0.276312	 -1.706327	 -0.729545
C	 -0.803854	 0.346802	 -0.434989
H	 1.281568	 2.742305	 0.695302
C	 -0.374686	 1.606040	 -0.035108
C	 -2.209167	 0.162613	 -0.884478
H	 -1.052684	 2.440961	 -0.050305
O	 -2.671680	 -0.872091	 -1.245055
H	 -2.821796	 1.069011	 -0.865034

	symmetry c1
}
set optking {
	frozen_dihedral = ("
		11 9 12 14
	")
}

ee = energy('scf')
oeprop('DIPOLE', 'QUADRUPOLE', 'MULLIKEN_CHARGES')
f=open( 'psi4out.xyz', 'w' )
f.write( "15  " )
f.write( str(ee) + "\n" )
f.write( MOL.save_string_xyz() )
f.close()
--------------------------------------------------------------------------

    Molecular point group: c1

    Geometry (in Angstrom), charge = 0, multiplicity = 1:

       Center              X                  Y                   Z               Mass
    ------------   -----------------  -----------------  -----------------  -----------------
           H          3.052247715607    -1.408483060586     0.262399030299     1.007825032070
           O          2.141305715607    -1.666925060586     0.262399030299    15.994914619560
           C          1.331193715607    -0.586134060586     0.262399030299    12.000000000000
           C          1.766717715607     0.670337939414     0.663527030299    12.000000000000
           C          0.024355715607    -0.764086060586    -0.157048969701    12.000000000000
           H          2.784129715607     0.806668939414     0.989597030299     1.007825032070
           C          0.896034715607     1.747016939414     0.644989030299    12.000000000000
           H         -0.313334284393    -1.734077060586    -0.467145969701     1.007825032070
           C         -0.840876284393     0.319051939414    -0.172589969701    12.000000000000
           H          1.244545715607     2.714554939414     0.957701030299     1.007825032070
           C         -0.411708284393     1.578289939414     0.227291030299    12.000000000000
           C         -2.246189284393     0.134862939414    -0.622078969701    12.000000000000
           H         -1.089706284393     2.413210939414     0.212094030299     1.007825032070
           O         -2.708702284393    -0.899841060586    -0.982655969701    15.994914619560
           H         -2.858818284393     1.041260939414    -0.602634969701     1.007825032070

  Charge       = 0
  Multiplicity = 1
  Basis Set: 6-31G*
  Basis Set:

    Orbital Energies (a.u.)
    -----------------------

    Doubly Occupied:

       1A    -20.600077     2A    -20.564324     3A    -11.332394
       4A    -11.311721     5A    -11.253026     6A    -11.251586
       7A    -11.249896     8A    -11.246832     9A    -11.239705
      10A     -1.420308    11A     -1.404964    12A     -1.169560
      13A     -1.048616    14A     -1.026939    15A     -0.899603
      16A     -0.845809    17A     -0.812484    18A     -0.736328
      19A     -0.701717    20A     -0.685556    21A     -0.639665
      22A     -0.636090    23A     -0.612390    24A     -0.604891
      25A     -0.567923    26A     -0.550165    27A     -0.542296
      28A     -0.511984    29A     -0.486291    30A     -0.423382
      31A     -0.353329    32A     -0.327214

  @DF-RHF Final Energy:  -418.28565046770495

   => Energetics <=

    Nuclear Repulsion Energy =            403.1635114322575646
    One-Electron Energy =               -1368.7842392180416482
    Two-Electron Energy =                 547.3350773180790156
    DFT Exchange-Correlation Energy =       0.0000000000000000
    Empirical Dispersion Energy =           0.0000000000000000
    PCM Polarization Energy =               0.0000000000000000
    EFP Energy =                            0.0000000000000000
    Total Energy =                       -418.2856504677050680

  Mulliken Charges: (a.u.)
   Center  Symbol    Alpha    Beta     Spin     Total
       1     H     0.27077  0.27077  0.00000  0.45846
       2     O     4.37677  4.37677  0.00000 -0.75354
       3     C     2.79724  2.79724  0.00000  0.40552
       4     C     3.13198  3.13198  0.00000 -0.26396
       5     C     3.11283  3.11283  0.00000 -0.22566
       6     H     0.39797  0.39797  0.00000  0.20407
       7     C     3.09567  3.09567  0.00000 -0.19135
       8     H     0.37029  0.37029  0.00000  0.25942
       9     C     3.04648  3.04648  0.00000 -0.09295
      10     H     0.39304  0.39304  0.00000  0.21392
      11     C     3.11445  3.11445  0.00000 -0.22889
      12     C     2.83255  2.83255  0.00000  0.33489
      13     H     0.39310  0.39310  0.00000  0.21380
      14     O     4.24497  4.24497  0.00000 -0.48994
      15     H     0.42190  0.42190  0.00000  0.15621

   Total alpha = 32.00000, Total beta = 32.00000, Total charge = -0.00000
