  ==> Input File <==

--------------------------------------------------------------------------
set {
	reference rhf
	basis 6-31G*
}

set_num_threads( 1 )
memory 2 gb

molecule MOL {
0 1

H	 -3.161837	 0.500524	 -0.000234
C	 -2.367097	 -0.232926	 -0.000000
O	 -1.158440	 0.455814	 -0.000122
H	 -2.468853	 -0.861886	 -0.882833
H	 -2.468942	 -0.861421	 0.883154
C	 -0.029776	 -0.365156	 0.000148
C	 1.212217	 0.508981	 0.000007
H	 -0.036772	 -1.013236	 -0.877259
H	 -0.036869	 -1.012778	 0.877897
C	 1.322508	 1.367457	 -1.259253
H	 1.189093	 1.140043	 0.883120
H	 2.083857	 -0.131243	 0.095169
H	 0.470453	 2.033908	 -1.360591
H	 2.217299	 1.980240	 -1.232975
H	 1.370870	 0.753555	 -2.154345

	symmetry c1
}
set optking {
	frozen_dihedral = ("
		6 3 2 4,
		8 6 3 2
	")
}

ee = energy('scf')
oeprop('DIPOLE', 'QUADRUPOLE', 'MULLIKEN_CHARGES')
f=open( 'psi4out.xyz', 'w' )
f.write( "15  " )
f.write( str(ee) + "\n" )
f.write( MOL.save_string_xyz() )
f.close()
--------------------------------------------------------------------------

    Molecular point group: c1

    Geometry (in Angstrom), charge = 0, multiplicity = 1:

       Center              X                  Y                   Z               Mass
    ------------   -----------------  -----------------  -----------------  -----------------
           H         -2.922570698317     0.160610572334     0.255047600762     1.007825032070
           C         -2.127830698317    -0.572839427666     0.255281600762    12.000000000000
           O         -0.919173698317     0.115900572334     0.255159600762    15.994914619560
           H         -2.229586698317    -1.201799427666    -0.627551399238     1.007825032070
           H         -2.229675698317    -1.201334427666     1.138435600762     1.007825032070
           C          0.209490301683    -0.705069427666     0.255429600762    12.000000000000
           C          1.451483301683     0.169067572334     0.255288600762    12.000000000000
           H          0.202494301683    -1.353149427666    -0.621977399238     1.007825032070
           H          0.202397301683    -1.352691427666     1.133178600762     1.007825032070
           C          1.561774301683     1.027543572334    -1.003971399238    12.000000000000
           H          1.428359301683     0.800129572334     1.138401600762     1.007825032070
           H          2.323123301683    -0.471156427666     0.350450600762     1.007825032070
           H          0.709719301683     1.693994572334    -1.105309399238     1.007825032070
           H          2.456565301683     1.640326572334    -0.977693399238     1.007825032070
           H          1.610136301683     0.413641572334    -1.899063399238     1.007825032070

  Charge       = 0
  Multiplicity = 1
  Basis Set: 6-31G*
  Basis Set:

    Orbital Energies (a.u.)
    -----------------------

    Doubly Occupied:

       1A    -20.554393     2A    -11.266437     3A    -11.264653
       4A    -11.214648     5A    -11.203273     6A     -1.379478
       7A     -1.054012     8A     -0.949814     9A     -0.886143
      10A     -0.799645    11A     -0.669649    12A     -0.662339
      13A     -0.633341    14A     -0.591477    15A     -0.564252
      16A     -0.545594    17A     -0.499891    18A     -0.484842
      19A     -0.477575    20A     -0.459118    21A     -0.413478

  @DF-RHF Final Energy:  -232.13959082821677

   => Energetics <=

    Nuclear Repulsion Energy =            193.0876144260666081
    One-Electron Energy =                -697.3063858189484563
    Two-Electron Energy =                 272.0791805646648527
    DFT Exchange-Correlation Energy =       0.0000000000000000
    Empirical Dispersion Energy =           0.0000000000000000
    PCM Polarization Energy =               0.0000000000000000
    EFP Energy =                            0.0000000000000000
    Total Energy =                       -232.1395908282170240

  Mulliken Charges: (a.u.)
   Center  Symbol    Alpha    Beta     Spin     Total
       1     H     0.41223  0.41223  0.00000  0.17554
       2     C     3.07898  3.07898  0.00000 -0.15796
       3     O     4.30336  4.30336  0.00000 -0.60673
       4     H     0.43010  0.43010  0.00000  0.13980
       5     H     0.43027  0.43027  0.00000  0.13946
       6     C     2.98925  2.98925  0.00000  0.02150
       7     C     3.15994  3.15994  0.00000 -0.31989
       8     H     0.43311  0.43311  0.00000  0.13378
       9     H     0.43039  0.43039  0.00000  0.13921
      10     C     3.24214  3.24214  0.00000 -0.48427
      11     H     0.41448  0.41448  0.00000  0.17105
      12     H     0.42264  0.42264  0.00000  0.15473
      13     H     0.40754  0.40754  0.00000  0.18493
      14     H     0.42099  0.42099  0.00000  0.15802
      15     H     0.42459  0.42459  0.00000  0.15083

   Total alpha = 21.00000, Total beta = 21.00000, Total charge = -0.00000
