                              Psi4 1.0.54 Driver

  ==> Input File <==

--------------------------------------------------------------------------
set {
	reference rhf
	basis cc-pvtz
}

set_num_threads( 4 )
memory 2 gb

molecule MOL {
0 1

H	 2.312334	 -0.067909	 -0.334743
O	 1.555995	 -0.634677	 -0.348572
C	 0.489979	 0.078084	 0.002623
C	 -0.763662	 -0.754014	 0.000816
O	 0.559597	 1.227855	 0.269251
C	 -2.038001	 0.074705	 -0.000833
H	 -0.712945	 -1.405886	 -0.864342
H	 -0.715137	 -1.405770	 0.866182
H	 -2.087267	 0.710831	 -0.874232
H	 -2.903419	 -0.576199	 -0.001922
H	 -2.089467	 0.710909	 0.872389

	symmetry c1
}
set optking {
	frozen_dihedral = ("
		2 3 4 7
	")
}

ee,wfn = optimize('scf', return_wfn=True)
oeprop( wfn, 'DIPOLE', 'QUADRUPOLE', 'MULLIKEN_CHARGES')
f=open( 'psi4out.xyz', 'w' )
f.write( "11  " )
f.write( str(ee) + "\n" )
f.write( MOL.save_string_xyz() )
f.close()
--------------------------------------------------------------------------

    Molecular point group: c1
  Charge       = 0
  Multiplicity = 1
  Basis Set: CC-PVTZ
  Basis Set:
  @DF-RHF Final Energy:  -266.95293056004851
    Total Energy =                       -266.9529305600486850
    Molecular point group: c1
  Basis Set: CC-PVTZ
  Basis Set:
  Basis Set: CC-PVTZ
  Basis Set:
  @DF-RHF Final Energy:  -266.95279452671565
    Total Energy =                       -266.9527945267157065
  Basis Set: CC-PVTZ
  Basis Set:
  Basis Set: CC-PVTZ
  Basis Set:
  @DF-RHF Final Energy:  -266.95294378707285
    Total Energy =                       -266.9529437870727406
  Basis Set: CC-PVTZ
  Basis Set:
  Charge       = 0
  Multiplicity = 1
  Basis Set: CC-PVTZ
  Basis Set:

    Orbital Energies (a.u.)
    -----------------------

    Doubly Occupied:

       1A    -20.605594     2A    -20.541153     3A    -11.374465
       4A    -11.242804     5A    -11.219410     6A     -1.478874
       7A     -1.370118     8A     -1.066501     9A     -0.918776
      10A     -0.804595    11A     -0.706129    12A     -0.693535
      13A     -0.663830    14A     -0.599326    15A     -0.596562
      16A     -0.534407    17A     -0.527422    18A     -0.506260
      19A     -0.484573    20A     -0.448583

  @DF-RHF Final Energy:  -266.95303879896449

   => Energetics <=

    Nuclear Repulsion Energy =            180.1402574634768996
    One-Electron Energy =                -721.4207545169256264
    Two-Electron Energy =                 274.3274582544843270
    DFT Exchange-Correlation Energy =       0.0000000000000000
    Empirical Dispersion Energy =           0.0000000000000000
    PCM Polarization Energy =               0.0000000000000000
    EFP Energy =                            0.0000000000000000
    Total Energy =                       -266.9530387989643714
    Molecular point group: c1
  Basis Set: CC-PVTZ
  Basis Set:

  -Total Gradient:
     Atom            X                  Y                   Z
    ------   -----------------  -----------------  -----------------
       1        0.000044268817     0.000137938188     0.000037754586
       2       -0.000237199856     0.000066805527    -0.000751073065
       3        0.000257997731    -0.000601288639     0.000939040232
       4       -0.000555538894     0.000877641143    -0.000745738892
       5        0.000033756654     0.000173344416     0.000094746250
       6        0.000025437651     0.000038322747    -0.000045171164
       7        0.000465563939    -0.000730008232     0.000504427075
       8       -0.000008637395     0.000025958844    -0.000097638181
       9        0.000014894034     0.000005496299     0.000002525600
      10       -0.000011599342    -0.000013847816     0.000034865383
      11       -0.000028943337     0.000019637523     0.000026262177

  **** Optimization is complete! (in 4 steps) ****
    Final optimized geometry and variables:
    Molecular point group: c1

    Geometry (in Angstrom), charge = 0, multiplicity = 1:

    H            2.320758480674    -0.076710261123    -0.277120292578
    O            1.561593293913    -0.638647533538    -0.322449457093
    C            0.491407191640     0.074676830461     0.013380618268
    C           -0.763621369759    -0.756162490247     0.011361813504
    O            0.560354261434     1.222692583908     0.288513758536
    C           -2.036806837325     0.074897117696     0.030988274408
    H           -0.724288021460    -1.423028547643    -0.840714786312
    H           -0.705039624827    -1.394237021162     0.888210775944
    H           -2.107791577090     0.699745448478    -0.850087406792
    H           -2.903291830557    -0.574065104294     0.057971266326
    H           -2.064077331541     0.721622557491     0.896748635157

  Mulliken Charges: (a.u.)
   Center  Symbol    Alpha    Beta     Spin     Total
       1     H     0.38134  0.38134  0.00000  0.23732
       2     O     4.16023  4.16023  0.00000 -0.32045
       3     C     2.80383  2.80383  0.00000  0.39234
       4     C     3.09940  3.09940  0.00000 -0.19879
       5     O     4.19168  4.19168  0.00000 -0.38337
       6     C     3.13954  3.13954  0.00000 -0.27908
       7     H     0.43752  0.43752  0.00000  0.12496
       8     H     0.44188  0.44188  0.00000  0.11625
       9     H     0.45034  0.45034  0.00000  0.09932
      10     H     0.44952  0.44952  0.00000  0.10096
      11     H     0.44473  0.44473  0.00000  0.11054

   Total alpha = 20.00000, Total beta = 20.00000, Total charge =  0.00000

*** Psi4 exiting successfully. Buy a developer a beer!
