  ==> Input File <==

--------------------------------------------------------------------------
set {
	reference rhf
	basis 6-31G*
}

set_num_threads( 4 )
memory 2 gb

molecule MOL {
0 1

H	 0.220249	 -3.246570	 1.476619
O	 0.718673	 -2.550048	 1.060462
C	 -0.086656	 -1.498815	 0.909568
C	 0.624473	 -0.343591	 0.253101
O	 -1.220161	 -1.515744	 1.264385
C	 -0.265902	 0.883932	 0.072916
H	 1.500791	 -0.127403	 0.855349
H	 1.001306	 -0.699054	 -0.702616
C	 -1.728698	 0.646073	 0.462102
H	 -0.209144	 1.219470	 -0.958188
H	 0.135059	 1.692851	 0.673903
C	 -2.482460	 -0.343073	 -0.431425
H	 -2.245265	 1.602650	 0.432430
H	 -1.779332	 0.308348	 1.496285
C	 -3.960546	 -0.461025	 -0.060175
H	 -2.395034	 -0.026811	 -1.468912
H	 -2.024850	 -1.327147	 -0.371646
H	 -4.472726	 -1.168004	 -0.705284
H	 -4.465146	 0.496508	 -0.151489
H	 -4.081218	 -0.800940	 0.964585

	symmetry c1
}
set optking {
	frozen_dihedral = ("
		7 4 6 10
	")
}

ee = optimize('scf')
oeprop('DIPOLE', 'QUADRUPOLE', 'MULLIKEN_CHARGES')
f=open( 'psi4out.xyz', 'w' )
f.write( "20  " )
f.write( str(ee) + "\n" )
f.write( MOL.save_string_xyz() )
f.close()
--------------------------------------------------------------------------

    Molecular point group: c1
  Charge       = 0
  Multiplicity = 1
  Basis Set: 6-31G*
  Basis Set:
  @DF-RHF Final Energy:  -383.89727502633048
    Total Energy =                       -383.8972750263302487
    Molecular point group: c1
  Basis Set: 6-31G*
  Basis Set:
  Basis Set: 6-31G*
  Basis Set:
  @DF-RHF Final Energy:  -383.91700393932609
    Total Energy =                       -383.9170039393263778
  Basis Set: 6-31G*
  Basis Set:
  Basis Set: 6-31G*
  Basis Set:
  @DF-RHF Final Energy:  -383.92804910591383
    Total Energy =                       -383.9280491059138285
  Basis Set: 6-31G*
  Basis Set:
  Basis Set: 6-31G*
  Basis Set:
  @DF-RHF Final Energy:  -383.93289901814484
    Total Energy =                       -383.9328990181445533
  Basis Set: 6-31G*
  Basis Set:
  @DF-RHF Final Energy:  -383.93144835412039
    Total Energy =                       -383.9314483541209029
  @DF-RHF Final Energy:  -383.93561146616941
    Total Energy =                       -383.9356114661694619
  @DF-RHF Final Energy:  -383.93604284451936
    Total Energy =                       -383.9360428445194202
  @DF-RHF Final Energy:  -383.93630416975088
    Total Energy =                       -383.9363041697507697
  @DF-RHF Final Energy:  -383.93654895105317
    Total Energy =                       -383.9365489510527141
  @DF-RHF Final Energy:  -383.93678386805499
    Total Energy =                       -383.9367838680549312
  @DF-RHF Final Energy:  -383.93736857259802
    Total Energy =                       -383.9373685725983023
  @DF-RHF Final Energy:  -383.93779866857648
    Total Energy =                       -383.9377986685761925
  @DF-RHF Final Energy:  -383.93821035496421
    Total Energy =                       -383.9382103549643261
  @DF-RHF Final Energy:  -383.93848305246303
    Total Energy =                       -383.9384830524629706
  @DF-RHF Final Energy:  -383.93852487270999
    Total Energy =                       -383.9385248727101043
  @DF-RHF Final Energy:  -383.93869904282565
    Total Energy =                       -383.9386990428258741
  Basis Set: 6-31G*
  Basis Set:
  @DF-RHF Final Energy:  -383.93872926889281
    Total Energy =                       -383.9387292688925299
  Basis Set: 6-31G*
  Basis Set:
  Basis Set: 6-31G*
  Basis Set:
  @DF-RHF Final Energy:  -383.93873593234105
    Total Energy =                       -383.9387359323410465
  Basis Set: 6-31G*
  Basis Set:
  Basis Set: 6-31G*
  Basis Set:
  @DF-RHF Final Energy:  -383.93873797495371
    Total Energy =                       -383.9387379749537104
  Basis Set: 6-31G*
  Basis Set:
  Charge       = 0
  Multiplicity = 1
  Basis Set: 6-31G*
  Basis Set:

    Orbital Energies (a.u.)
    -----------------------

    Doubly Occupied:

       1A    -20.615477     2A    -20.549022     3A    -11.382049
       4A    -11.240456     5A    -11.231389     6A    -11.216616
       7A    -11.214253     8A    -11.208321     9A     -1.475768
      10A     -1.365054    11A     -1.091425    12A     -1.036413
      13A     -0.959247    14A     -0.871749    15A     -0.814353
      16A     -0.779973    17A     -0.702873    18A     -0.679352
      19A     -0.658013    20A     -0.633626    21A     -0.608011
      22A     -0.589303    23A     -0.574464    24A     -0.556731
      25A     -0.538993    26A     -0.509495    27A     -0.499079
      28A     -0.479605    29A     -0.469023    30A     -0.463127
      31A     -0.454113    32A     -0.434958

  @DF-RHF Final Energy:  -383.93873840584405

   => Energetics <=

    Nuclear Repulsion Energy =            394.2896969067995201
    One-Electron Energy =               -1304.6522078168561620
    Two-Electron Energy =                 526.4237725042127067
    DFT Exchange-Correlation Energy =       0.0000000000000000
    Empirical Dispersion Energy =           0.0000000000000000
    PCM Polarization Energy =               0.0000000000000000
    EFP Energy =                            0.0000000000000000
    Total Energy =                       -383.9387384058439920
    Molecular point group: c1
  Basis Set: 6-31G*
  Basis Set:

  -Total Gradient:
     Atom            X                  Y                   Z
    ------   -----------------  -----------------  -----------------
       1       -0.000018048763    -0.000004225368    -0.000009511305
       2        0.000016170833     0.000026043847     0.000027800727
       3        0.000001187256    -0.000018921753    -0.000011702800
       4        0.001882528846     0.000626751540    -0.004540407664
       5        0.000006307748     0.000005463916    -0.000011332003
       6        0.003336243587     0.003055556032     0.001798595408
       7       -0.002079335133    -0.000972741134     0.003579606621
       8        0.000003676938    -0.000001875772    -0.000001884358
       9        0.000025219643    -0.000004617778     0.000025308272
      10       -0.003132598437    -0.002691848868    -0.000830251361
      11       -0.000015078427    -0.000016611727    -0.000004120391
      12       -0.000042377492     0.000016799974    -0.000051087539
      13       -0.000021450081    -0.000003126973    -0.000001413796
      14       -0.000005881433     0.000009631202     0.000005146307
      15        0.000031344715     0.000005475880     0.000018773936
      16        0.000015347887    -0.000006271868     0.000003496733
      17        0.000012702521    -0.000026132510    -0.000004024583
      18       -0.000010502782     0.000001382084     0.000003664422
      19       -0.000004213585     0.000000283606    -0.000002678910
      20       -0.000001243845    -0.000001014322     0.000006022286

  **** Optimization is complete! (in 20 steps) ****
    Final optimized geometry and variables:
    Molecular point group: c1

    Geometry (in Angstrom), charge = 0, multiplicity = 1:

    H            0.862572572723    -2.634051429999     0.593828441608
    O            1.189995948101    -1.962566325588     0.002696419933
    C            1.109736404848    -0.789790604068     0.628601906048
    C            1.654479879689     0.353490118256    -0.194153313915
    O            0.686498323826    -0.698362661624     1.736312256649
    C            0.686967753199     1.550338984271    -0.434962044323
    H            2.498687846122     0.702014513009     0.392011206368
    H            2.032001793338    -0.039383073814    -1.126950814132
    C           -0.800441712520     1.349129476112    -0.111316325316
    H            0.749086390181     1.805669285136    -1.488384351214
    H            1.048294724565     2.405582221351     0.122872761291
    C           -1.517348307423     0.363951548741    -1.039807349134
    H           -1.283375229370     2.319500007382    -0.204333483325
    H           -0.922121264109     1.043116664439     0.920867578456
    C           -2.996211373628     0.200485206715    -0.690510763508
    H           -1.424490338934     0.710851825057    -2.067206735934
    H           -1.036256436393    -0.610031603338    -1.007620548232
    H           -3.486744298312    -0.490772155218    -1.368857164146
    H           -3.520032813933     1.150378064256    -0.750237849922
    H           -3.118701654768    -0.181171145004     0.318820632344

  Mulliken Charges: (a.u.)
   Center  Symbol    Alpha    Beta     Spin     Total
       1     H     0.26836  0.26836  0.00000  0.46329
       2     O     4.34852  4.34852  0.00000 -0.69703
       3     C     2.62838  2.62838  0.00000  0.74324
       4     C     3.21171  3.21171  0.00000 -0.42341
       5     O     4.27999  4.27999  0.00000 -0.55998
       6     C     3.15342  3.15342  0.00000 -0.30685
       7     H     0.39597  0.39597  0.00000  0.20807
       8     H     0.39643  0.39643  0.00000  0.20714
       9     C     3.16805  3.16805  0.00000 -0.33609
      10     H     0.41603  0.41603  0.00000  0.16793
      11     H     0.41117  0.41117  0.00000  0.17766
      12     C     3.15799  3.15799  0.00000 -0.31597
      13     H     0.42062  0.42062  0.00000  0.15876
      14     H     0.40044  0.40044  0.00000  0.19912
      15     C     3.23954  3.23954  0.00000 -0.47908
      16     H     0.42382  0.42382  0.00000  0.15237
      17     H     0.42016  0.42016  0.00000  0.15969
      18     H     0.41954  0.41954  0.00000  0.16091
      19     H     0.42169  0.42169  0.00000  0.15662
      20     H     0.41818  0.41818  0.00000  0.16363

   Total alpha = 32.00000, Total beta = 32.00000, Total charge = -0.00000
