  ==> Input File <==

--------------------------------------------------------------------------
set {
	reference rhf
	basis 6-31G*
}

set_num_threads( 4 )
memory 2 gb

molecule MOL {
0 1

H	 -2.499100	 -0.730091	 -0.745082
O	 -2.347518	 -0.290803	 0.079804
C	 -1.184022	 0.487508	 -0.006784
C	 0.062599	 -0.378592	 0.031606
H	 -1.176523	 1.099369	 -0.904519
H	 -1.187323	 1.153111	 0.844927
O	 1.171513	 0.459272	 -0.058250
H	 0.050699	 -1.089204	 -0.797170
H	 0.078739	 -0.954914	 0.954740
C	 2.283678	 -0.118130	 -0.665570
H	 2.067888	 -0.415838	 -1.689989
H	 3.072002	 0.621713	 -0.674446
H	 2.626445	 -0.992887	 -0.116842

	symmetry c1
}
set optking {
	frozen_dihedral = ("
		10 7 4 8
	")
}

ee = optimize('scf')
oeprop('DIPOLE', 'QUADRUPOLE', 'MULLIKEN_CHARGES')
f=open( 'psi4out.xyz', 'w' )
f.write( "13  " )
f.write( str(ee) + "\n" )
f.write( MOL.save_string_xyz() )
f.close()
--------------------------------------------------------------------------

    Molecular point group: c1
  Charge       = 0
  Multiplicity = 1
  Basis Set: 6-31G*
  Basis Set:
  @DF-RHF Final Energy:  -267.94863014231237
    Total Energy =                       -267.9486301423121404
    Molecular point group: c1
  Basis Set: 6-31G*
  Basis Set:
  Basis Set: 6-31G*
  Basis Set:
  @DF-RHF Final Energy:  -267.94874107682176
    Total Energy =                       -267.9487410768219888
  Basis Set: 6-31G*
  Basis Set:
  Basis Set: 6-31G*
  Basis Set:
  @DF-RHF Final Energy:  -267.94878490699978
    Total Energy =                       -267.9487849069996059
  Basis Set: 6-31G*
  Basis Set:
  Charge       = 0
  Multiplicity = 1
  Basis Set: 6-31G*
  Basis Set:

    Orbital Energies (a.u.)
    -----------------------

    Doubly Occupied:

       1A    -20.561077     2A    -20.560364     3A    -11.271165
       4A    -11.270711     5A    -11.269006     6A     -1.386807
       7A     -1.365179     8A     -1.018357     9A     -0.914763
      10A     -0.842043    11A     -0.709647    12A     -0.670091
      13A     -0.661261    14A     -0.640829    15A     -0.590560
      16A     -0.568576    17A     -0.552389    18A     -0.489195
      19A     -0.477009    20A     -0.448021    21A     -0.414531

  @DF-RHF Final Energy:  -267.94878539469971

   => Energetics <=

    Nuclear Repulsion Energy =            190.2123774553142255
    One-Electron Energy =                -742.9591644081012873
    Two-Electron Energy =                 284.7980015580876625
    DFT Exchange-Correlation Energy =       0.0000000000000000
    Empirical Dispersion Energy =           0.0000000000000000
    PCM Polarization Energy =               0.0000000000000000
    EFP Energy =                            0.0000000000000000
    Total Energy =                       -267.9487853946993710
    Molecular point group: c1
  Basis Set: 6-31G*
  Basis Set:

  -Total Gradient:
     Atom            X                  Y                   Z
    ------   -----------------  -----------------  -----------------
       1        0.000020652969     0.000020183816     0.000001685310
       2       -0.000022785878     0.000001449611     0.000053380503
       3        0.000006993933    -0.000047893955    -0.000059117623
       4       -0.002120923830     0.002731663405    -0.002841009957
       5        0.000017396086     0.000015425127     0.000006246550
       6       -0.000032154102    -0.000026004524    -0.000004259896
       7        0.001346731996    -0.001635069043     0.003335395374
       8        0.001427247116    -0.001850184594     0.001527764375
       9       -0.000004009639     0.000010994221     0.000005399619
      10       -0.000610953482     0.000772185580    -0.002038066878
      11       -0.000026041178     0.000003263945     0.000019680662
      12        0.000016863107    -0.000005814829    -0.000005662417
      13       -0.000019017099     0.000009801241    -0.000001435623

  **** Optimization is complete! (in 4 steps) ****
    Final optimized geometry and variables:
    Molecular point group: c1

    Geometry (in Angstrom), charge = 0, multiplicity = 1:

    H           -2.508518544615    -0.751198711500    -0.557469533005
    O           -2.331648104036    -0.295209493543     0.253164606737
    C           -1.165521469160     0.472473552828     0.119160699295
    C            0.077704306931    -0.399073483449     0.138430806149
    H           -1.180537583792     1.069735542488    -0.788522793389
    H           -1.139316803775     1.152664500164     0.958891874959
    O            1.198570578667     0.430899553950     0.072843903808
    H            0.067217435524    -1.103618154211    -0.693620733375
    H            0.093029536601    -0.990865708003     1.050913109679
    C            2.326013998759    -0.133230470228    -0.519113420008
    H            2.129544373262    -0.423101233278    -1.549244894172
    H            3.107275561741     0.614171683218    -0.507957256194
    H            2.671070997498    -1.008897312413     0.026915218351

  Mulliken Charges: (a.u.)
   Center  Symbol    Alpha    Beta     Spin     Total
       1     H     0.28155  0.28155  0.00000  0.43691
       2     O     4.37051  4.37051  0.00000 -0.74101
       3     C     3.00411  3.00411  0.00000 -0.00823
       4     C     2.99741  2.99741  0.00000  0.00519
       5     H     0.42474  0.42474  0.00000  0.15052
       6     H     0.40732  0.40732  0.00000  0.18536
       7     O     4.30850  4.30850  0.00000 -0.61701
       8     H     0.43769  0.43769  0.00000  0.12462
       9     H     0.41984  0.41984  0.00000  0.16031
      10     C     3.07986  3.07986  0.00000 -0.15973
      11     H     0.42946  0.42946  0.00000  0.14107
      12     H     0.41104  0.41104  0.00000  0.17792
      13     H     0.42796  0.42796  0.00000  0.14408

   Total alpha = 21.00000, Total beta = 21.00000, Total charge = -0.00000
