  ==> Input File <==

--------------------------------------------------------------------------
set {
	reference rhf
	basis 6-31G*
}

set_num_threads( 4 )
memory 2 gb

molecule MOL {
0 1

O	 -1.276010	 1.052711	 -0.768302
C	 -1.204840	 0.067374	 -0.106123
C	 -2.388195	 -0.672128	 0.458071
O	 -0.067104	 -0.527208	 0.221609
H	 -2.388023	 -1.694060	 0.097175
H	 -3.300579	 -0.174919	 0.164318
H	 -2.315377	 -0.706351	 1.539059
C	 1.108273	 -0.258846	 -0.555822
C	 2.005187	 -1.472513	 -0.388061
C	 1.756484	 1.031335	 -0.078436
H	 0.807072	 -0.156260	 -1.587938
H	 1.500522	 -2.371026	 -0.724566
H	 2.912372	 -1.350230	 -0.970636
H	 2.280919	 -1.604626	 0.652695
H	 2.659451	 1.228076	 -0.647610
H	 1.084867	 1.870103	 -0.210256
H	 2.023443	 0.955845	 0.970870

	symmetry c1
}
set optking {
	frozen_dihedral = ("
		8 4 2 1
	")
}

ee = optimize('scf')
oeprop('DIPOLE', 'QUADRUPOLE', 'MULLIKEN_CHARGES')
f=open( 'psi4out.xyz', 'w' )
f.write( "17  " )
f.write( str(ee) + "\n" )
f.write( MOL.save_string_xyz() )
f.close()
--------------------------------------------------------------------------

    Molecular point group: c1
  Charge       = 0
  Multiplicity = 1
  Basis Set: 6-31G*
  Basis Set:
  @DF-RHF Final Energy:  -344.91215069599616
    Total Energy =                       -344.9121506959964449
    Molecular point group: c1
  Basis Set: 6-31G*
  Basis Set:
  Basis Set: 6-31G*
  Basis Set:
  @DF-RHF Final Energy:  -344.90907508110246
    Total Energy =                       -344.9090750811025146
  Basis Set: 6-31G*
  Basis Set:
  Basis Set: 6-31G*
  Basis Set:
  @DF-RHF Final Energy:  -344.91259062679262
    Total Energy =                       -344.9125906267929622
  Basis Set: 6-31G*
  Basis Set:
  Basis Set: 6-31G*
  Basis Set:
  @DF-RHF Final Energy:  -344.91268255672088
    Total Energy =                       -344.9126825567209380
  Basis Set: 6-31G*
  Basis Set:
  Basis Set: 6-31G*
  Basis Set:
  @DF-RHF Final Energy:  -344.91270172656897
    Total Energy =                       -344.9127017265686277
  Basis Set: 6-31G*
  Basis Set:
  Basis Set: 6-31G*
  Basis Set:
  @DF-RHF Final Energy:  -344.91270691572691
    Total Energy =                       -344.9127069157268579
  Basis Set: 6-31G*
  Basis Set:
  Basis Set: 6-31G*
  Basis Set:
  @DF-RHF Final Energy:  -344.91270805354770
    Total Energy =                       -344.9127080535479308
  Basis Set: 6-31G*
  Basis Set:
  Charge       = 0
  Multiplicity = 1
  Basis Set: 6-31G*
  Basis Set:

    Orbital Energies (a.u.)
    -----------------------

    Doubly Occupied:

       1A    -20.597080     2A    -20.544217     3A    -11.375049
       4A    -11.291416     5A    -11.232729     6A    -11.220135
       7A    -11.213629     8A     -1.464504     9A     -1.361714
      10A     -1.078005    11A     -1.005244    12A     -0.947094
      13A     -0.847439    14A     -0.767783    15A     -0.691519
      16A     -0.670624    17A     -0.656045    18A     -0.610748
      19A     -0.586627    20A     -0.579108    21A     -0.563597
      22A     -0.550219    23A     -0.540825    24A     -0.516897
      25A     -0.500124    26A     -0.483828    27A     -0.444997
      28A     -0.436747

  @DF-RHF Final Energy:  -344.91270857663778

   => Energetics <=

    Nuclear Repulsion Energy =            322.6643757665026442
    One-Electron Energy =               -1109.5982834428600654
    Two-Electron Energy =                 442.0211990997198086
    DFT Exchange-Correlation Energy =       0.0000000000000000
    Empirical Dispersion Energy =           0.0000000000000000
    PCM Polarization Energy =               0.0000000000000000
    EFP Energy =                            0.0000000000000000
    Total Energy =                       -344.9127085766376126
    Molecular point group: c1
  Basis Set: 6-31G*
  Basis Set:

  -Total Gradient:
     Atom            X                  Y                   Z
    ------   -----------------  -----------------  -----------------
       1        0.000072653307     0.003812737802     0.004549122684
       2       -0.000539811466    -0.007730632291    -0.008132269891
       3       -0.000003777630    -0.000064355373    -0.000008005801
       4        0.001243978051     0.007839104160     0.006035851221
       5        0.000003304936    -0.000006578752     0.000021169600
       6        0.000016632475     0.000008379918    -0.000002116376
       7       -0.000004730184     0.000018317014     0.000008184264
       8       -0.000814006632    -0.003883373012    -0.002513308370
       9       -0.000007011656     0.000002859679     0.000004351456
      10        0.000053835905    -0.000002506070     0.000038368730
      11       -0.000006320351    -0.000002025814    -0.000004174062
      12        0.000002152297    -0.000003587586     0.000000371540
      13       -0.000004088099     0.000000020060    -0.000000782433
      14        0.000002822166    -0.000002266293     0.000001567824
      15       -0.000009809296     0.000000116554    -0.000000081492
      16       -0.000004093620     0.000007782907     0.000001762438
      17       -0.000001730201     0.000006007094    -0.000000011334

  **** Optimization is complete! (in 8 steps) ****
    Final optimized geometry and variables:
    Molecular point group: c1

    Geometry (in Angstrom), charge = 0, multiplicity = 1:

    O           -1.308156309092     1.051021078124    -0.742368003215
    C           -1.210729013278     0.139346773959     0.014324945306
    C           -2.372537259021    -0.554296440700     0.673428694931
    O           -0.052808043976    -0.359389681322     0.427342926872
    H           -2.385387160438    -1.599065497990     0.384031653600
    H           -3.295722872061    -0.077816862020     0.379060511454
    H           -2.258876627896    -0.514441593985     1.750471891591
    C            1.129915408922    -0.103226050376    -0.344283688932
    C            1.999720697380    -1.340287225415    -0.205637908578
    C            1.807129615132     1.161856890682     0.158572754074
    H            0.830039987328     0.031113016977    -1.373911539374
    H            1.476707727971    -2.219710025303    -0.564051591012
    H            2.910679566976    -1.223670659494    -0.783544477598
    H            2.270080125210    -1.503099573863     0.832087053994
    H            2.713819120537     1.352405921486    -0.407103134428
    H            1.149407044996     2.014143956302     0.047669071472
    H            2.072858933733     1.057818065516     1.205725993410

  Mulliken Charges: (a.u.)
   Center  Symbol    Alpha    Beta     Spin     Total
       1     O     4.28270  4.28270  0.00000 -0.56540
       2     C     2.61942  2.61942  0.00000  0.76116
       3     C     3.28147  3.28147  0.00000 -0.56295
       4     O     4.31341  4.31341  0.00000 -0.62683
       5     H     0.40228  0.40228  0.00000  0.19544
       6     H     0.39746  0.39746  0.00000  0.20508
       7     H     0.39965  0.39965  0.00000  0.20071
       8     C     2.92890  2.92890  0.00000  0.14220
       9     C     3.24032  3.24032  0.00000 -0.48064
      10     C     3.24788  3.24788  0.00000 -0.49577
      11     H     0.40470  0.40470  0.00000  0.19060
      12     H     0.41370  0.41370  0.00000  0.17260
      13     H     0.41761  0.41761  0.00000  0.16479
      14     H     0.41333  0.41333  0.00000  0.17334
      15     H     0.41994  0.41994  0.00000  0.16013
      16     H     0.40011  0.40011  0.00000  0.19978
      17     H     0.41711  0.41711  0.00000  0.16577

   Total alpha = 28.00000, Total beta = 28.00000, Total charge =  0.00000
