  ==> Input File <==

--------------------------------------------------------------------------
set {
	reference rhf
	basis cc-pvtz
}

set_num_threads( 4 )
memory 2 gb

molecule MOL {
0 1

O	 0.749630	 1.305591	 -0.000460
C	 0.576499	 0.134701	 -0.003900
C	 -0.765656	 -0.550508	 -0.002152
O	 1.564816	 -0.744612	 -0.000631
C	 -1.945526	 0.411052	 0.000603
H	 -0.794329	 -1.203792	 -0.868145
H	 -0.791555	 -1.205429	 0.862701
C	 -2.491544	 0.645745	 1.404778
H	 -2.727030	 0.019510	 -0.639193
H	 -1.640022	 1.352669	 -0.439174
H	 -2.833987	 -0.280169	 1.855029
H	 -3.329681	 1.331706	 1.383683
H	 -1.734803	 1.069074	 2.057054
C	 2.884339	 -0.237801	 0.002883
H	 3.064150	 0.362814	 -0.876312
H	 3.533055	 -1.098529	 0.004958
H	 3.059365	 0.363432	 0.882614

	symmetry c1
}
set optking {
	frozen_dihedral = ("
		9 5 3 6
	")
}

ee = optimize('scf')
oeprop('DIPOLE', 'QUADRUPOLE', 'MULLIKEN_CHARGES')
f=open( 'psi4out.xyz', 'w' )
f.write( "17  " )
f.write( str(ee) + "\n" )
f.write( MOL.save_string_xyz() )
f.close()
--------------------------------------------------------------------------

    Molecular point group: c1
  Charge       = 0
  Multiplicity = 1
  Basis Set: CC-PVTZ
  Basis Set:
  @DF-RHF Final Energy:  -345.03220276651757
    Total Energy =                       -345.0322027665179121
    Molecular point group: c1
  Basis Set: CC-PVTZ
  Basis Set:
  Basis Set: CC-PVTZ
  Basis Set:
  @DF-RHF Final Energy:  -345.03234509933998
    Total Energy =                       -345.0323450993395795
  Basis Set: CC-PVTZ
  Basis Set:
  Basis Set: CC-PVTZ
  Basis Set:
  @DF-RHF Final Energy:  -345.03241032407544
    Total Energy =                       -345.0324103240754425
  Basis Set: CC-PVTZ
  Basis Set:
  Basis Set: CC-PVTZ
  Basis Set:
  @DF-RHF Final Energy:  -345.03253651470749
    Total Energy =                       -345.0325365147072034
  Basis Set: CC-PVTZ
  Basis Set:
  Basis Set: CC-PVTZ
  Basis Set:
  @DF-RHF Final Energy:  -345.03256304384394
    Total Energy =                       -345.0325630438441635
  Basis Set: CC-PVTZ
  Basis Set:
  Basis Set: CC-PVTZ
  Basis Set:
  @DF-RHF Final Energy:  -345.03256646873064
    Total Energy =                       -345.0325664687307494
  Basis Set: CC-PVTZ
  Basis Set:
  Basis Set: CC-PVTZ
  Basis Set:
  @DF-RHF Final Energy:  -345.03256877799356
    Total Energy =                       -345.0325687779933332
  Basis Set: CC-PVTZ
  Basis Set:
  Charge       = 0
  Multiplicity = 1
  Basis Set: CC-PVTZ
  Basis Set:

    Orbital Energies (a.u.)
    -----------------------

    Doubly Occupied:

       1A    -20.597230     2A    -20.535344     3A    -11.365961
       4A    -11.279165     5A    -11.234075     6A    -11.219084
       7A    -11.208847     8A     -1.473401     9A     -1.366917
      10A     -1.079210    11A     -1.001656    12A     -0.939302
      13A     -0.829870    14A     -0.768823    15A     -0.705574
      16A     -0.684895    17A     -0.676275    18A     -0.621475
      19A     -0.610561    20A     -0.570368    21A     -0.569119
      22A     -0.535083    23A     -0.525888    24A     -0.488101
      25A     -0.483424    26A     -0.480109    27A     -0.461299
      28A     -0.443010

  @DF-RHF Final Energy:  -345.03256974098815

   => Energetics <=

    Nuclear Repulsion Energy =            316.2168607053398546
    One-Electron Energy =               -1096.9907281950754623
    Two-Electron Energy =                 435.7412977487475132
    DFT Exchange-Correlation Energy =       0.0000000000000000
    Empirical Dispersion Energy =           0.0000000000000000
    PCM Polarization Energy =               0.0000000000000000
    EFP Energy =                            0.0000000000000000
    Total Energy =                       -345.0325697409880945
    Molecular point group: c1
  Basis Set: CC-PVTZ
  Basis Set:

  -Total Gradient:
     Atom            X                  Y                   Z
    ------   -----------------  -----------------  -----------------
       1        0.000016189893     0.000003017215    -0.000001034251
       2       -0.000006265246     0.000031852568    -0.000005806516
       3        0.002729594276     0.003468528738    -0.003083819481
       4       -0.000018856178    -0.000004069182    -0.000004210613
       5       -0.002167271364    -0.002791194487     0.004006166323
       6       -0.001909310438    -0.002485756639     0.001931397908
       7        0.000000947047     0.000027181519    -0.000022579137
       8       -0.000006608617    -0.000008423494    -0.000006624020
       9        0.001367603266     0.001762845988    -0.002831338285
      10        0.000009513622    -0.000002018886     0.000004514650
      11       -0.000005919631    -0.000003816173     0.000012355330
      12       -0.000003758478     0.000001794578    -0.000000885953
      13       -0.000000003663     0.000000044461    -0.000002057590
      14       -0.000007259801    -0.000000924854    -0.000003769111
      15       -0.000002904651    -0.000001375439     0.000002730604
      16        0.000000975884     0.000000280805     0.000001452579
      17        0.000003334079     0.000002033281     0.000003507563

  **** Optimization is complete! (in 8 steps) ****
    Final optimized geometry and variables:
    Molecular point group: c1

    Geometry (in Angstrom), charge = 0, multiplicity = 1:

    O            0.638851472374     1.161408145983    -0.132434208988
    C            0.464010420836    -0.007511966635    -0.198655174086
    C           -0.876660666107    -0.696959672758    -0.228314952009
    O            1.452204670284    -0.885033388765    -0.248184740300
    C           -2.080467754058     0.247662708675    -0.210216549163
    H           -0.895364132668    -1.357723654203    -1.086653071876
    H           -0.895035438849    -1.364365043884     0.628106930396
    C           -2.614356572175     0.527045824056     1.189685622400
    H           -2.860522228673    -0.166349098107    -0.838952242785
    H           -1.792896366113     1.182526831259    -0.673303782229
    H           -2.955311693272    -0.384097225056     1.670618668281
    H           -3.449601999638     1.216479310949     1.155639715807
    H           -1.846342915090     0.969158959513     1.814149231860
    C            2.771747536126    -0.379607830117    -0.216609020008
    H            2.950789068154     0.271749190629    -1.059105615665
    H            3.420645778166    -1.238860253546    -0.265981710593
    H            2.948163164065     0.168839769131     0.696796991400

  Mulliken Charges: (a.u.)
   Center  Symbol    Alpha    Beta     Spin     Total
       1     O     4.19786  4.19786  0.00000 -0.39572
       2     C     2.80297  2.80297  0.00000  0.39405
       3     C     3.10513  3.10513  0.00000 -0.21026
       4     O     4.14682  4.14682  0.00000 -0.29364
       5     C     3.08768  3.08768  0.00000 -0.17536
       6     H     0.43192  0.43192  0.00000  0.13616
       7     H     0.44191  0.44191  0.00000  0.11617
       8     C     3.14828  3.14828  0.00000 -0.29656
       9     H     0.44836  0.44836  0.00000  0.10328
      10     H     0.44298  0.44298  0.00000  0.11404
      11     H     0.45786  0.45786  0.00000  0.08427
      12     H     0.44840  0.44840  0.00000  0.10320
      13     H     0.44935  0.44935  0.00000  0.10129
      14     C     3.03644  3.03644  0.00000 -0.07288
      15     H     0.45420  0.45420  0.00000  0.09159
      16     H     0.44537  0.44537  0.00000  0.10925
      17     H     0.45445  0.45445  0.00000  0.09111

   Total alpha = 28.00000, Total beta = 28.00000, Total charge = -0.00000
