  ==> Input File <==

--------------------------------------------------------------------------
set {
	reference rhf
	basis 6-31G*
}

set_num_threads( 4 )
memory 2 gb

molecule MOL {
0 1

O	 2.862325	 1.357334	 0.000267
C	 2.843464	 0.164689	 -0.000222
C	 1.546494	 -0.624492	 -0.000609
C	 4.124123	 -0.644674	 -0.000428
C	 0.291004	 0.242674	 0.000989
H	 1.557904	 -1.283758	 -0.867573
H	 1.558622	 -1.285963	 0.864672
C	 -0.411561	 0.254619	 1.359673
H	 -0.390321	 -0.116408	 -0.763855
H	 0.557504	 1.255035	 -0.285807
C	 -1.672769	 1.120017	 1.372752
H	 -0.672895	 -0.764019	 1.642742
H	 0.277798	 0.614187	 2.122275
C	 -2.381304	 1.136964	 2.728372
H	 -2.362914	 0.761037	 0.611271
H	 -1.412587	 2.138736	 1.090771
C	 -3.640299	 2.003329	 2.733443
H	 -2.642944	 0.119305	 3.010752
H	 -1.692888	 1.497062	 3.490127
H	 -4.363589	 1.647925	 2.004958
H	 -4.120315	 1.994771	 3.707205
H	 -3.406666	 3.035678	 2.488874
H	 4.165367	 -1.288615	 -0.874074
H	 4.976217	 0.020734	 -0.001915
H	 4.166763	 -1.286207	 0.874930

	symmetry c1
}
set optking {
	frozen_dihedral = ("
		9 5 3 6
	")
}

ee = optimize('scf')
oeprop('DIPOLE', 'QUADRUPOLE', 'MULLIKEN_CHARGES')
f=open( 'psi4out.xyz', 'w' )
f.write( "25  " )
f.write( str(ee) + "\n" )
f.write( MOL.save_string_xyz() )
f.close()
--------------------------------------------------------------------------

    Molecular point group: c1
  Charge       = 0
  Multiplicity = 1
  Basis Set: 6-31G*
  Basis Set:
  @DF-RHF Final Energy:  -387.13244747681239
    Total Energy =                       -387.1324474768130131
    Molecular point group: c1
  Basis Set: 6-31G*
  Basis Set:
  Basis Set: 6-31G*
  Basis Set:
  @DF-RHF Final Energy:  -387.13273738978859
    Total Energy =                       -387.1327373897889856
  Basis Set: 6-31G*
  Basis Set:
  Basis Set: 6-31G*
  Basis Set:
  @DF-RHF Final Energy:  -387.13221990362337
    Total Energy =                       -387.1322199036231950
  Basis Set: 6-31G*
  Basis Set:
  Basis Set: 6-31G*
  Basis Set:
  @DF-RHF Final Energy:  -387.13282781265633
    Total Energy =                       -387.1328278126562736
  Basis Set: 6-31G*
  Basis Set:
  @DF-RHF Final Energy:  -387.13284455999388
    Total Energy =                       -387.1328445599934867
  @DF-RHF Final Energy:  -387.13285681027054
    Total Energy =                       -387.1328568102708232
  @DF-RHF Final Energy:  -387.13286640520408
    Total Energy =                       -387.1328664052045951
  @DF-RHF Final Energy:  -387.13287278298611
    Total Energy =                       -387.1328727829861691
  Basis Set: 6-31G*
  Basis Set:
  @DF-RHF Final Energy:  -387.13287824882769
    Total Energy =                       -387.1328782488274101
  Basis Set: 6-31G*
  Basis Set:
  Basis Set: 6-31G*
  Basis Set:
  @DF-RHF Final Energy:  -387.13288346817751
    Total Energy =                       -387.1328834681771696
  Basis Set: 6-31G*
  Basis Set:
  Basis Set: 6-31G*
  Basis Set:
  @DF-RHF Final Energy:  -387.13289079662945
    Total Energy =                       -387.1328907966299084
  Basis Set: 6-31G*
  Basis Set:
  Charge       = 0
  Multiplicity = 1
  Basis Set: 6-31G*
  Basis Set:

    Orbital Energies (a.u.)
    -----------------------

    Doubly Occupied:

       1A    -20.551128     2A    -11.327512     3A    -11.231787
       4A    -11.228923     5A    -11.215456     6A    -11.213552
       7A    -11.212900     8A    -11.210788     9A    -11.206382
      10A     -1.396678    11A     -1.090682    12A     -1.054530
      13A     -1.014115    14A     -0.967379    15A     -0.889727
      16A     -0.814743    17A     -0.788623    18A     -0.729667
      19A     -0.667495    20A     -0.639383    21A     -0.632753
      22A     -0.620538    23A     -0.592545    24A     -0.583370
      25A     -0.574457    26A     -0.557763    27A     -0.532592
      28A     -0.525472    29A     -0.515984    30A     -0.496087
      31A     -0.481469    32A     -0.471745    33A     -0.461560
      34A     -0.458753    35A     -0.442397    36A     -0.401975

  @DF-RHF Final Energy:  -387.13289142070499

   => Energetics <=

    Nuclear Repulsion Energy =            443.2947071980926808
    One-Electron Energy =               -1403.2533744960824151
    Two-Electron Energy =                 572.8257758772845136
    DFT Exchange-Correlation Energy =       0.0000000000000000
    Empirical Dispersion Energy =           0.0000000000000000
    PCM Polarization Energy =               0.0000000000000000
    EFP Energy =                            0.0000000000000000
    Total Energy =                       -387.1328914207051639
    Molecular point group: c1
  Basis Set: 6-31G*
  Basis Set:

  -Total Gradient:
     Atom            X                  Y                   Z
    ------   -----------------  -----------------  -----------------
       1       -0.000051706991     0.000025720776    -0.000000975524
       2        0.000048706395    -0.000054203738     0.000004137666
       3        0.002093898974     0.003160367130    -0.002640701071
       4       -0.000026409387     0.000034302243     0.000043319797
       5       -0.001893373240    -0.002843623590     0.003004096757
       6       -0.001425379593    -0.002172270478     0.001682030423
       7        0.000013386472     0.000017589415     0.000007613010
       8       -0.000011496525    -0.000001312884     0.000046816136
       9        0.001240186755     0.001860103868    -0.002078187338
      10        0.000017885992     0.000011418854    -0.000001700352
      11        0.000012047354    -0.000001906214    -0.000011157598
      12       -0.000006559843    -0.000007408061    -0.000003184631
      13       -0.000000887673    -0.000002450568    -0.000009247397
      14        0.000015384842    -0.000001371777     0.000002678915
      15       -0.000006181625    -0.000000190911    -0.000002224168
      16       -0.000000589856     0.000002976272    -0.000002789712
      17       -0.000000162830    -0.000000978168    -0.000004988521
      18       -0.000000645266     0.000000597617    -0.000000452281
      19        0.000000380686    -0.000001375961    -0.000000143887
      20       -0.000001440252     0.000000764090    -0.000001071359
      21        0.000002213740    -0.000002340746    -0.000000834804
      22        0.000000335889     0.000000211413     0.000001051798
      23       -0.000005809844    -0.000017421694    -0.000015637013
      24       -0.000009592506     0.000000129611    -0.000006456089
      25       -0.000004191677    -0.000007326499    -0.000011992757

  **** Optimization is complete! (in 12 steps) ****
    Final optimized geometry and variables:
    Molecular point group: c1

    Geometry (in Angstrom), charge = 0, multiplicity = 1:

    O            2.470922111879     0.781021194007    -0.711803137602
    C            2.459921047858    -0.401137831395    -0.869412077680
    C            1.174219746995    -1.208893099485    -0.920360109917
    C            3.745829466673    -1.187085694708    -1.021012567492
    C           -0.116801241615    -0.376839489838    -0.929414403359
    H            1.219484008990    -1.888299217956    -1.768070529533
    H            1.195778395514    -1.866781597178    -0.051419167910
    C           -0.816381621101    -0.321823561434     0.429327236562
    H           -0.792828574696    -0.768702536388    -1.684330163103
    H            0.126003924382     0.632236070299    -1.240958439541
    C           -2.076835736650     0.543241356948     0.419297026571
    H           -1.074173883924    -1.331298747890     0.747066933844
    H           -0.118513750153     0.066298286732     1.168627339839
    C           -2.780054335861     0.603249235435     1.776513377368
    H           -2.770991878166     0.160486404237    -0.327570041185
    H           -1.816311471644     1.552095186454     0.104960254985
    C           -4.037974430408     1.471011509628     1.759532066306
    H           -3.041816507519    -0.404736311298     2.091893222263
    H           -2.087848891683     0.986438220118     2.523105380749
    H           -4.765094209592     1.093756487898     1.045819356176
    H           -4.513794073154     1.494051552068     2.735139370417
    H           -3.803850931831     2.494697208126     1.481482867246
    H            3.817610421246    -1.581569920631    -2.030901671074
    H            4.592707484187    -0.542883424266    -0.829848219567
    H            3.767147601643    -2.033660161855    -0.341764568050

  Mulliken Charges: (a.u.)
   Center  Symbol    Alpha    Beta     Spin     Total
       1     O     4.26130  4.26130  0.00000 -0.52260
       2     C     2.73706  2.73706  0.00000  0.52588
       3     C     3.21533  3.21533  0.00000 -0.43066
       4     C     3.28736  3.28736  0.00000 -0.57472
       5     C     3.15515  3.15515  0.00000 -0.31029
       6     H     0.40751  0.40751  0.00000  0.18497
       7     H     0.40669  0.40669  0.00000  0.18662
       8     C     3.15507  3.15507  0.00000 -0.31015
       9     H     0.42093  0.42093  0.00000  0.15815
      10     H     0.39906  0.39906  0.00000  0.20188
      11     C     3.15208  3.15208  0.00000 -0.30416
      12     H     0.42618  0.42618  0.00000  0.14765
      13     H     0.41768  0.41768  0.00000  0.16463
      14     C     3.15156  3.15156  0.00000 -0.30313
      15     H     0.42507  0.42507  0.00000  0.14987
      16     H     0.42011  0.42011  0.00000  0.15978
      17     C     3.23930  3.23930  0.00000 -0.47861
      18     H     0.42429  0.42429  0.00000  0.15143
      19     H     0.42205  0.42205  0.00000  0.15589
      20     H     0.42237  0.42237  0.00000  0.15526
      21     H     0.41975  0.41975  0.00000  0.16050
      22     H     0.42097  0.42097  0.00000  0.15805
      23     H     0.40684  0.40684  0.00000  0.18632
      24     H     0.39644  0.39644  0.00000  0.20712
      25     H     0.40985  0.40985  0.00000  0.18030

   Total alpha = 36.00000, Total beta = 36.00000, Total charge =  0.00000
