  ==> Input File <==

--------------------------------------------------------------------------
set {
	reference rhf
	basis 6-31G*
}

set_num_threads( 4 )
memory 2 gb

molecule MOL {
0 1

O	 -2.042549	 -1.228399	 -0.269030
C	 -1.653912	 -0.146171	 0.050137
C	 -0.332303	 0.024011	 0.778412
C	 -2.438579	 1.106236	 -0.272369
C	 -0.535221	 -0.016700	 2.301251
H	 0.370460	 -0.748250	 0.478215
H	 0.079153	 0.985841	 0.492914
C	 0.769164	 0.181960	 3.074650
H	 -0.980514	 -0.967832	 2.587858
H	 -1.247232	 0.755638	 2.576344
C	 0.568952	 0.150880	 4.589298
H	 1.480792	 -0.589161	 2.787626
H	 1.213988	 1.131902	 2.787754
H	 0.156309	 -0.800938	 4.911509
H	 -0.113377	 0.932486	 4.910176
H	 1.509187	 0.297212	 5.111381
H	 -3.277823	 0.863061	 -0.908988
H	 -1.806773	 1.843019	 -0.759671
H	 -2.802853	 1.554979	 0.648059

	symmetry c1
}
set optking {
	frozen_dihedral = ("
		5 3 2 4
	")
}

ee = optimize('scf')
oeprop('DIPOLE', 'QUADRUPOLE', 'MULLIKEN_CHARGES')
f=open( 'psi4out.xyz', 'w' )
f.write( "19  " )
f.write( str(ee) + "\n" )
f.write( MOL.save_string_xyz() )
f.close()
--------------------------------------------------------------------------

    Molecular point group: c1
  Charge       = 0
  Multiplicity = 1
  Basis Set: 6-31G*
  Basis Set:
  @DF-RHF Final Energy:  -309.06398889136926
    Total Energy =                       -309.0639888913692062
    Molecular point group: c1
  Basis Set: 6-31G*
  Basis Set:
  Basis Set: 6-31G*
  Basis Set:
  @DF-RHF Final Energy:  -309.06312369720951
    Total Energy =                       -309.0631236972096758
  Basis Set: 6-31G*
  Basis Set:
  Basis Set: 6-31G*
  Basis Set:
  @DF-RHF Final Energy:  -309.06461992387131
    Total Energy =                       -309.0646199238711915
  Basis Set: 6-31G*
  Basis Set:
  Basis Set: 6-31G*
  Basis Set:
  @DF-RHF Final Energy:  -309.06499694311697
    Total Energy =                       -309.0649969431166824
  Basis Set: 6-31G*
  Basis Set:
  @DF-RHF Final Energy:  -309.06479649707518
    Total Energy =                       -309.0647964970753492
  @DF-RHF Final Energy:  -309.06508347072844
    Total Energy =                       -309.0650834707283821
  Basis Set: 6-31G*
  Basis Set:
  @DF-RHF Final Energy:  -309.06511850567205
    Total Energy =                       -309.0651185056722170
  Basis Set: 6-31G*
  Basis Set:
  Basis Set: 6-31G*
  Basis Set:
  @DF-RHF Final Energy:  -309.06512070030141
    Total Energy =                       -309.0651207003008949
  Basis Set: 6-31G*
  Basis Set:
  Basis Set: 6-31G*
  Basis Set:
  @DF-RHF Final Energy:  -309.06512509255936
    Total Energy =                       -309.0651250925595264
  Basis Set: 6-31G*
  Basis Set:
  Charge       = 0
  Multiplicity = 1
  Basis Set: 6-31G*
  Basis Set:

    Orbital Energies (a.u.)
    -----------------------

    Doubly Occupied:

       1A    -20.547654     2A    -11.324488     3A    -11.231684
       4A    -11.229516     5A    -11.228060     6A    -11.225527
       7A    -11.215519     8A     -1.393211     9A     -1.092266
      10A     -1.029416    11A     -0.983473    12A     -0.890778
      13A     -0.807602    14A     -0.733378    15A     -0.663969
      16A     -0.645443    17A     -0.623063    18A     -0.613414
      19A     -0.582196    20A     -0.573682    21A     -0.552991
      22A     -0.537197    23A     -0.511529    24A     -0.501242
      25A     -0.483318    26A     -0.476435    27A     -0.468059
      28A     -0.396866

  @DF-RHF Final Energy:  -309.06512511861973

   => Energetics <=

    Nuclear Repulsion Energy =            301.2292173773107038
    One-Electron Energy =               -1015.4647283791737209
    Two-Electron Energy =                 405.1703858832431138
    DFT Exchange-Correlation Energy =       0.0000000000000000
    Empirical Dispersion Energy =           0.0000000000000000
    PCM Polarization Energy =               0.0000000000000000
    EFP Energy =                            0.0000000000000000
    Total Energy =                       -309.0651251186198465
    Molecular point group: c1
  Basis Set: 6-31G*
  Basis Set:

  -Total Gradient:
     Atom            X                  Y                   Z
    ------   -----------------  -----------------  -----------------
       1       -0.000000649463     0.000003136172    -0.000000412385
       2        0.000152900218     0.000125308846    -0.000325708577
       3       -0.000002037804    -0.000320893540     0.000108741669
       4       -0.000119774821    -0.000037271029     0.000220601595
       5       -0.000035807354     0.000221113160    -0.000002738593
       6       -0.000000895667    -0.000000641112     0.000005375249
       7        0.000001476832     0.000003367060    -0.000001142057
       8        0.000002700694     0.000005574600    -0.000000530879
       9       -0.000004960046    -0.000002950280     0.000001320503
      10        0.000004835066    -0.000000396332    -0.000006581420
      11       -0.000001084062     0.000000482943    -0.000001357853
      12       -0.000001151906     0.000000424120    -0.000001553073
      13        0.000000632572     0.000000876241     0.000001343953
      14       -0.000001071348     0.000001040404    -0.000001133321
      15        0.000000476444     0.000001234250     0.000001822576
      16        0.000000474134    -0.000001392884    -0.000000405957
      17       -0.000000608202     0.000000935458    -0.000000877051
      18        0.000001941367    -0.000000221146     0.000001080270
      19        0.000002603348     0.000000273071     0.000002155352

  **** Optimization is complete! (in 10 steps) ****
    Final optimized geometry and variables:
    Molecular point group: c1

    Geometry (in Angstrom), charge = 0, multiplicity = 1:

    O           -1.179456398485    -1.247165212238    -1.751255471281
    C           -0.817234773103    -0.152772792306    -1.442728915023
    C            0.485553353532     0.058505434128    -0.692968864933
    C           -1.643757509517     1.074111478060    -1.762242724111
    C            0.268851813365    -0.007069649493     0.827462004613
    H            1.170813584086    -0.723931112954    -0.997916621423
    H            0.921997019359     1.017538476623    -0.959755629171
    C            1.568411884260     0.171939680615     1.614012665067
    H           -0.179087850772    -0.965482067704     1.074463176437
    H           -0.442488493709     0.757569079755     1.133307684772
    C            1.359687614015     0.097224542708     3.125953597992
    H            2.279529751297    -0.591816405551     1.308496750665
    H            2.016846642500     1.129166160080     1.357116953644
    H            0.942226513741    -0.862267480507     3.416758855662
    H            0.678306192200     0.871385850829     3.467258346847
    H            2.297572916436     0.224829680361     3.657066045254
    H           -2.613419216868     0.777416348649    -2.137111821012
    H           -1.134249895036     1.666857429514    -2.517575634134
    H           -1.763556882921     1.704599742927    -0.886717714302

  Mulliken Charges: (a.u.)
   Center  Symbol    Alpha    Beta     Spin     Total
       1     O     4.26132  4.26132  0.00000 -0.52264
       2     C     2.73736  2.73736  0.00000  0.52529
       3     C     3.20027  3.20027  0.00000 -0.40054
       4     C     3.28963  3.28963  0.00000 -0.57925
       5     C     3.16206  3.16206  0.00000 -0.32412
       6     H     0.40057  0.40057  0.00000  0.19886
       7     H     0.41669  0.41669  0.00000  0.16663
       8     C     3.15160  3.15160  0.00000 -0.30321
       9     H     0.40786  0.40786  0.00000  0.18428
      10     H     0.42066  0.42066  0.00000  0.15867
      11     C     3.24039  3.24039  0.00000 -0.48079
      12     H     0.41882  0.41882  0.00000  0.16237
      13     H     0.42213  0.42213  0.00000  0.15575
      14     H     0.41888  0.41888  0.00000  0.16225
      15     H     0.42120  0.42120  0.00000  0.15759
      16     H     0.41722  0.41722  0.00000  0.16556
      17     H     0.39687  0.39687  0.00000  0.20626
      18     H     0.40653  0.40653  0.00000  0.18694
      19     H     0.40995  0.40995  0.00000  0.18010

   Total alpha = 28.00000, Total beta = 28.00000, Total charge =  0.00000
