  ==> Input File <==

--------------------------------------------------------------------------
set {
	reference rhf
	basis 6-31G*
}

set_num_threads( 4 )
memory 2 gb

molecule MOL {
0 1

O	 0.675698	 0.320887	 -4.773302
C	 0.115212	 0.676541	 -3.781435
C	 0.181765	 -0.151586	 -2.510183
C	 -0.657373	 1.975652	 -3.728536
C	 1.517530	 0.068637	 -1.781915
H	 0.091138	 -1.194917	 -2.792232
H	 -0.645683	 0.093642	 -1.850472
C	 1.631333	 -0.777471	 -0.511575
H	 2.320988	 -0.166771	 -2.470699
H	 1.624169	 1.120755	 -1.522258
C	 2.915987	 -0.544314	 0.291766
H	 1.559036	 -1.830958	 -0.775516
H	 0.778288	 -0.564391	 0.129331
C	 3.373361	 0.914346	 0.347591
H	 3.708709	 -1.142521	 -0.150311
H	 2.780642	 -0.921148	 1.303579
H	 3.506512	 1.320010	 -0.651625
H	 4.322697	 0.999599	 0.867103
H	 2.660624	 1.545032	 0.868198
H	 -1.715045	 1.766317	 -3.591523
H	 -0.516825	 2.527702	 -4.647379
H	 -0.338332	 2.578530	 -2.883222

	symmetry c1
}
set optking {
	frozen_dihedral = ("
		12 8 11 15
	")
}

ee = optimize('scf')
oeprop('DIPOLE', 'QUADRUPOLE', 'MULLIKEN_CHARGES')
f=open( 'psi4out.xyz', 'w' )
f.write( "22  " )
f.write( str(ee) + "\n" )
f.write( MOL.save_string_xyz() )
f.close()
--------------------------------------------------------------------------

    Molecular point group: c1
  Charge       = 0
  Multiplicity = 1
  Basis Set: 6-31G*
  Basis Set:
  @DF-RHF Final Energy:  -348.09418183706845
    Total Energy =                       -348.0941818370686178
    Molecular point group: c1
  Basis Set: 6-31G*
  Basis Set:
  Basis Set: 6-31G*
  Basis Set:
  @DF-RHF Final Energy:  -348.09534643847093
    Total Energy =                       -348.0953464384708127
  Basis Set: 6-31G*
  Basis Set:
  Basis Set: 6-31G*
  Basis Set:
  @DF-RHF Final Energy:  -348.09613532768907
    Total Energy =                       -348.0961353276890691
  Basis Set: 6-31G*
  Basis Set:
  Basis Set: 6-31G*
  Basis Set:
  @DF-RHF Final Energy:  -348.09460652158015
    Total Energy =                       -348.0946065215799763
  Basis Set: 6-31G*
  Basis Set:
  @DF-RHF Final Energy:  -348.09622595356745
    Total Energy =                       -348.0962259535671137
  @DF-RHF Final Energy:  -348.09580411026309
    Total Energy =                       -348.0958041102630887
  @DF-RHF Final Energy:  -348.09586033483419
    Total Energy =                       -348.0958603348343559
  Basis Set: 6-31G*
  Basis Set:
  @DF-RHF Final Energy:  -348.09625117945870
    Total Energy =                       -348.0962511794587613
  Basis Set: 6-31G*
  Basis Set:
  Basis Set: 6-31G*
  Basis Set:
  @DF-RHF Final Energy:  -348.09628586736903
    Total Energy =                       -348.0962858673690334
  Basis Set: 6-31G*
  Basis Set:
  Basis Set: 6-31G*
  Basis Set:
  @DF-RHF Final Energy:  -348.09631417075059
    Total Energy =                       -348.0963141707504178
  Basis Set: 6-31G*
  Basis Set:
  Charge       = 0
  Multiplicity = 1
  Basis Set: 6-31G*
  Basis Set:

    Orbital Energies (a.u.)
    -----------------------

    Doubly Occupied:

       1A    -20.547170     2A    -11.324239     3A    -11.229413
       4A    -11.228804     5A    -11.228065     6A    -11.222877
       7A    -11.220802     8A    -11.213212     9A     -1.392901
      10A     -1.095494    11A     -1.043929    12A     -0.999158
      13A     -0.938217    14A     -0.861646    15A     -0.782282
      16A     -0.733137    17A     -0.662401    18A     -0.647226
      19A     -0.627624    20A     -0.615815    21A     -0.596134
      22A     -0.587821    23A     -0.555867    24A     -0.547936
      25A     -0.529376    26A     -0.524753    27A     -0.502366
      28A     -0.484973    29A     -0.467652    30A     -0.463537
      31A     -0.461281    32A     -0.395881

  @DF-RHF Final Energy:  -348.09631497100838

   => Energetics <=

    Nuclear Repulsion Energy =            373.8590533957136586
    One-Electron Energy =               -1212.4467575545286309
    Two-Electron Energy =                 490.4913891878065897
    DFT Exchange-Correlation Energy =       0.0000000000000000
    Empirical Dispersion Energy =           0.0000000000000000
    PCM Polarization Energy =               0.0000000000000000
    EFP Energy =                            0.0000000000000000
    Total Energy =                       -348.0963149710083826
    Molecular point group: c1
  Basis Set: 6-31G*
  Basis Set:

  -Total Gradient:
     Atom            X                  Y                   Z
    ------   -----------------  -----------------  -----------------
       1        0.000022399327    -0.000006428329     0.000018279264
       2       -0.000027291458     0.000033700060     0.000003133605
       3       -0.000001404980     0.000030489349    -0.000033463632
       4       -0.000027841166    -0.000018900445    -0.000033787850
       5       -0.000016002172     0.000000202459     0.000007117637
       6       -0.000004705206    -0.000017034778     0.000008290462
       7        0.000005527739    -0.000000965538    -0.000018245378
       8       -0.002769141424    -0.001887393643     0.005503576329
       9        0.000023121200     0.000018353330     0.000047923443
      10       -0.000057913047    -0.000006360293    -0.000011125577
      11        0.001823951437     0.004613136531    -0.004267256994
      12        0.002049148564     0.000798720897    -0.004106992738
      13        0.000070273638     0.000016743127     0.000021332563
      14        0.000044182736    -0.000018361002     0.000010484040
      15       -0.001196013508    -0.003573258505     0.002824212953
      16        0.000037666324    -0.000000237023     0.000045144134
      17       -0.000027983328    -0.000000556713    -0.000026437914
      18        0.000011418879     0.000034946367    -0.000018468290
      19        0.000026474104    -0.000020618591     0.000009654325
      20       -0.000003900514     0.000009266120     0.000011586129
      21        0.000002790330     0.000001918609     0.000000110598
      22        0.000015242528    -0.000007361989     0.000004932900

  **** Optimization is complete! (in 11 steps) ****
    Final optimized geometry and variables:
    Molecular point group: c1

    Geometry (in Angstrom), charge = 0, multiplicity = 1:

    O           -0.543565315267    -0.015733811561    -2.731233358649
    C           -1.122926946445     0.329178166914    -1.746521969686
    C           -1.045009243075    -0.489159025426    -0.469773768144
    C           -1.938872321926     1.602421253119    -1.710481750553
    C            0.254128117683    -0.189233223158     0.295534333804
    H           -1.069934211795    -1.536805001688    -0.748504236360
    H           -1.903160681563    -0.287175533990     0.165368874210
    C            0.367758030813    -1.013949750487     1.582311608498
    H            1.095643404278    -0.402898671086    -0.357310083855
    H            0.298984142356     0.871500299400     0.527307597324
    C            1.713873814646    -0.882405462186     2.313008124386
    H            0.231501598572    -2.057092727512     1.307747350155
    H           -0.444900586471    -0.744548926442     2.252950870436
    C            2.246423523095     0.541152540623     2.473252927549
    H            2.452206101198    -1.511303840409     1.821533210559
    H            1.594462294525    -1.317850465968     3.302905293840
    H            2.502550053515     0.990833321885     1.520023195163
    H            3.142222622881     0.544875989243     3.086019122586
    H            1.514560192916     1.182274240995     2.957786101240
    H           -2.991182471234     1.357936537243    -1.591685715805
    H           -1.800879544091     2.156306304423    -2.628594280604
    H           -1.655505291522     2.218098433304    -0.861805366952

  Mulliken Charges: (a.u.)
   Center  Symbol    Alpha    Beta     Spin     Total
       1     O     4.26233  4.26233  0.00000 -0.52466
       2     C     2.73703  2.73703  0.00000  0.52593
       3     C     3.19966  3.19966  0.00000 -0.39932
       4     C     3.28958  3.28958  0.00000 -0.57916
       5     C     3.16550  3.16550  0.00000 -0.33100
       6     H     0.40137  0.40137  0.00000  0.19726
       7     H     0.41704  0.41704  0.00000  0.16592
       8     C     3.15228  3.15228  0.00000 -0.30457
       9     H     0.40684  0.40684  0.00000  0.18633
      10     H     0.41821  0.41821  0.00000  0.16357
      11     C     3.15340  3.15340  0.00000 -0.30680
      12     H     0.41895  0.41895  0.00000  0.16209
      13     H     0.42262  0.42262  0.00000  0.15476
      14     C     3.24355  3.24355  0.00000 -0.48710
      15     H     0.41971  0.41971  0.00000  0.16059
      16     H     0.42023  0.42023  0.00000  0.15954
      17     H     0.41808  0.41808  0.00000  0.16385
      18     H     0.41725  0.41725  0.00000  0.16550
      19     H     0.42259  0.42259  0.00000  0.15481
      20     H     0.40681  0.40681  0.00000  0.18637
      21     H     0.39709  0.39709  0.00000  0.20581
      22     H     0.40987  0.40987  0.00000  0.18027

   Total alpha = 32.00000, Total beta = 32.00000, Total charge =  0.00000
