                              Psi4 1.0.54 Driver

  ==> Input File <==

--------------------------------------------------------------------------
set {
	reference rhf
	basis cc-pvtz
}

set_num_threads( 4 )
memory 2 gb

molecule MOL {
0 1

H	 -3.144994	 -1.202467	 -0.018751
O	 -2.321472	 -0.864941	 -0.318626
C	 -2.021813	 0.336996	 0.342658
C	 -0.669613	 0.837286	 -0.127252
H	 -2.780861	 1.084746	 0.127159
H	 -2.006390	 0.184138	 1.420053
C	 0.490865	 -0.082543	 0.241244
H	 -0.708709	 0.967192	 -1.204587
H	 -0.507562	 1.822272	 0.303070
C	 1.656640	 0.004551	 -0.739567
H	 0.133557	 -1.104783	 0.290343
H	 0.843443	 0.169356	 1.239422
C	 2.820061	 -0.908686	 -0.367764
H	 1.305406	 -0.248830	 -1.736128
H	 2.008690	 1.031615	 -0.793333
H	 2.507611	 -1.947213	 -0.340338
H	 3.630055	 -0.825548	 -1.083517
H	 3.216765	 -0.658663	 0.610785

	symmetry c1
}
set optking {
	frozen_dihedral = ("
		10 7 4 8
	")
}

ee,wfn = optimize('scf', return_wfn=True)
oeprop( wfn, 'DIPOLE', 'QUADRUPOLE', 'MULLIKEN_CHARGES')
f=open( 'psi4out.xyz', 'w' )
f.write( "18  " )
f.write( str(ee) + "\n" )
f.write( MOL.save_string_xyz() )
f.close()
--------------------------------------------------------------------------

    Molecular point group: c1
  Charge       = 0
  Multiplicity = 1
  Basis Set: CC-PVTZ
  Basis Set:
  @DF-RHF Final Energy:  -271.28469972513335
    Total Energy =                       -271.2846997251332368
    Molecular point group: c1
  Basis Set: CC-PVTZ
  Basis Set:
  Basis Set: CC-PVTZ
  Basis Set:
  @DF-RHF Final Energy:  -271.28487085377640
    Total Energy =                       -271.2848708537765106
  Basis Set: CC-PVTZ
  Basis Set:
  Basis Set: CC-PVTZ
  Basis Set:
  @DF-RHF Final Energy:  -271.28491150281889
    Total Energy =                       -271.2849115028185452
  Basis Set: CC-PVTZ
  Basis Set:
  Basis Set: CC-PVTZ
  Basis Set:
  @DF-RHF Final Energy:  -271.28491291400246
    Total Energy =                       -271.2849129140025184
  Basis Set: CC-PVTZ
  Basis Set:
  Charge       = 0
  Multiplicity = 1
  Basis Set: CC-PVTZ
  Basis Set:

    Orbital Energies (a.u.)
    -----------------------

    Doubly Occupied:

       1A    -20.546625     2A    -11.266374     3A    -11.210226
       4A    -11.208367     5A    -11.204878     6A    -11.202125
       7A     -1.364503     8A     -1.075385     9A     -1.009848
      10A     -0.914252    11A     -0.818674    12A     -0.784917
      13A     -0.708955    14A     -0.638613    15A     -0.629560
      16A     -0.584298    17A     -0.570479    18A     -0.559671
      19A     -0.523786    20A     -0.498083    21A     -0.491770
      22A     -0.468690    23A     -0.457596    24A     -0.448949
      25A     -0.431267

  @DF-RHF Final Energy:  -271.28491376769949

   => Energetics <=

    Nuclear Repulsion Energy =            249.8150488826719879
    One-Electron Energy =                -862.9641398231312905
    Two-Electron Energy =                 341.8641771727600371
    DFT Exchange-Correlation Energy =       0.0000000000000000
    Empirical Dispersion Energy =           0.0000000000000000
    PCM Polarization Energy =               0.0000000000000000
    EFP Energy =                            0.0000000000000000
    Total Energy =                       -271.2849137676992086
    Molecular point group: c1
  Basis Set: CC-PVTZ
  Basis Set:

  -Total Gradient:
     Atom            X                  Y                   Z
    ------   -----------------  -----------------  -----------------
       1        0.000004306682     0.000019278284    -0.000003886219
       2       -0.000013193780    -0.000002204214    -0.000013859501
       3        0.000018369123     0.000022337517     0.000044237776
       4       -0.003223041605    -0.004418576778    -0.000991185721
       5        0.000008818841    -0.000035464108    -0.000005586309
       6        0.000001420025     0.000008899676    -0.000018569238
       7        0.002052241400     0.003402550140     0.002159255628
       8        0.002233022826     0.002913096647     0.000306743883
       9       -0.000000673387     0.000006021082     0.000014099739
      10       -0.001091573303    -0.001926629857    -0.001492483330
      11        0.000007344028     0.000014295545     0.000003802184
      12       -0.000001682957     0.000007061058    -0.000014580696
      13        0.000014902661    -0.000007012492     0.000011739465
      14       -0.000007593924     0.000009870453     0.000009993164
      15       -0.000001565040    -0.000018528266     0.000000656284
      16        0.000002797111     0.000014073956    -0.000000469025
      17        0.000002157976    -0.000002110352     0.000002237951
      18       -0.000006056680    -0.000006958291    -0.000012146036

  **** Optimization is complete! (in 5 steps) ****
    Final optimized geometry and variables:
    Molecular point group: c1

    Geometry (in Angstrom), charge = 0, multiplicity = 1:

    H           -3.111230739858    -1.036184395618     0.161646365025
    O           -2.297796498539    -0.697837784669    -0.163540564941
    C           -1.959920621068     0.484378563554     0.514624361980
    C           -0.608245505086     0.964853429715     0.026682514058
    H           -2.707944512751     1.250952944926     0.329956513154
    H           -1.925057323438     0.309842085051     1.588391233284
    C            0.554981536474     0.035721321887     0.388842239939
    H           -0.648457021539     1.112725916387    -1.047629922503
    H           -0.431601965930     1.950056131240     0.450875256137
    C            1.727570001119     0.130742973543    -0.583329962933
    H            0.199658014182    -0.988804233750     0.396130153392
    H            0.894038666369     0.253464613850     1.398171016858
    C            2.901298460013    -0.761189110643    -0.193835887867
    H            1.381520310121    -0.140152337543    -1.576271434834
    H            2.066197412511     1.162100718559    -0.649014136690
    H            2.600655411644    -1.802593937025    -0.147032519738
    H            3.710438535120    -0.682427222847    -0.911025963226
    H            3.294981367134    -0.488258810240     0.779765353282

  Mulliken Charges: (a.u.)
   Center  Symbol    Alpha    Beta     Spin     Total
       1     H     0.39545  0.39545  0.00000  0.20909
       2     O     4.19866  4.19866  0.00000 -0.39732
       3     C     2.97403  2.97403  0.00000  0.05193
       4     C     3.09219  3.09219  0.00000 -0.18439
       5     H     0.46402  0.46402  0.00000  0.07196
       6     H     0.47302  0.47302  0.00000  0.05395
       7     C     3.08726  3.08726  0.00000 -0.17453
       8     H     0.45282  0.45282  0.00000  0.09437
       9     H     0.45339  0.45339  0.00000  0.09323
      10     C     3.08366  3.08366  0.00000 -0.16732
      11     H     0.44893  0.44893  0.00000  0.10214
      12     H     0.45719  0.45719  0.00000  0.08561
      13     C     3.15022  3.15022  0.00000 -0.30044
      14     H     0.45243  0.45243  0.00000  0.09515
      15     H     0.45659  0.45659  0.00000  0.08681
      16     H     0.45446  0.45446  0.00000  0.09108
      17     H     0.44933  0.44933  0.00000  0.10134
      18     H     0.45633  0.45633  0.00000  0.08734

   Total alpha = 25.00000, Total beta = 25.00000, Total charge = -0.00000

*** Psi4 exiting successfully. Buy a developer a beer!
