  ==> Input File <==

--------------------------------------------------------------------------
set {
	reference rhf
	basis 6-31G*
}

set_num_threads( 4 )
memory 2 gb

molecule MOL {
0 1

H	 -3.261111	 -0.295142	 1.469456
C	 -3.306842	 -0.277400	 0.373456
C	 -2.660244	 0.921717	 -0.272021
O	 -3.838538	 -1.161155	 -0.216482
C	 -1.220012	 1.144545	 0.209990
H	 -2.705793	 0.797307	 -1.347733
H	 -3.263782	 1.790044	 -0.010477
C	 -0.252658	 0.041456	 -0.226725
H	 -0.873521	 2.100229	 -0.171974
H	 -1.211708	 1.231594	 1.295398
C	 1.180775	 0.282413	 0.250794
H	 -0.266029	 -0.034465	 -1.312038
H	 -0.597733	 -0.921000	 0.146291
C	 2.148627	 -0.814315	 -0.201312
H	 1.516199	 1.249228	 -0.115937
H	 1.192670	 0.346017	 1.338083
C	 3.580890	 -0.659131	 0.322722
H	 2.166869	 -0.852443	 -1.289387
H	 1.762857	 -1.776509	 0.128956
C	 4.653043	 -0.597235	 -0.766442
H	 3.799054	 -1.498535	 0.978278
H	 3.643026	 0.233076	 0.942421
H	 4.604069	 -1.470076	 -1.412211
H	 4.547228	 0.283169	 -1.391475
H	 5.645916	 -0.566835	 -0.327951

	symmetry c1
}
set optking {
	frozen_dihedral = ("
		20 17 14 18
	")
}

ee = optimize('scf')
oeprop('DIPOLE', 'QUADRUPOLE', 'MULLIKEN_CHARGES')
f=open( 'psi4out.xyz', 'w' )
f.write( "25  " )
f.write( str(ee) + "\n" )
f.write( MOL.save_string_xyz() )
f.close()
--------------------------------------------------------------------------

    Molecular point group: c1
  Charge       = 0
  Multiplicity = 1
  Basis Set: 6-31G*
  Basis Set:
  @DF-RHF Final Energy:  -387.11752662406445
    Total Energy =                       -387.1175266240644532
    Molecular point group: c1
  Basis Set: 6-31G*
  Basis Set:
  Basis Set: 6-31G*
  Basis Set:
  @DF-RHF Final Energy:  -387.11783620434846
    Total Energy =                       -387.1178362043483503
  Basis Set: 6-31G*
  Basis Set:
  Basis Set: 6-31G*
  Basis Set:
  @DF-RHF Final Energy:  -387.11795961827505
    Total Energy =                       -387.1179596182760179
  Basis Set: 6-31G*
  Basis Set:
  Basis Set: 6-31G*
  Basis Set:
  @DF-RHF Final Energy:  -387.11805840699424
    Total Energy =                       -387.1180584069938959
  Basis Set: 6-31G*
  Basis Set:
  Basis Set: 6-31G*
  Basis Set:
  @DF-RHF Final Energy:  -387.11808326526716
    Total Energy =                       -387.1180832652671597
  Basis Set: 6-31G*
  Basis Set:
  Basis Set: 6-31G*
  Basis Set:
  @DF-RHF Final Energy:  -387.11809112504932
    Total Energy =                       -387.1180911250488634
  Basis Set: 6-31G*
  Basis Set:
  Basis Set: 6-31G*
  Basis Set:
  @DF-RHF Final Energy:  -387.11809440242683
    Total Energy =                       -387.1180944024267774
  Basis Set: 6-31G*
  Basis Set:
  Charge       = 0
  Multiplicity = 1
  Basis Set: 6-31G*
  Basis Set:

    Orbital Energies (a.u.)
    -----------------------

    Doubly Occupied:

       1A    -20.562051     2A    -11.326202     3A    -11.235437
       4A    -11.234725     5A    -11.223809     6A    -11.220739
       7A    -11.217380     8A    -11.216416     9A    -11.210750
      10A     -1.401990    11A     -1.103489    12A     -1.068139
      13A     -1.014600    14A     -0.943205    15A     -0.868630
      16A     -0.816176    17A     -0.793388    18A     -0.787049
      19A     -0.664353    20A     -0.662225    21A     -0.634992
      22A     -0.617295    23A     -0.607730    24A     -0.591038
      25A     -0.571245    26A     -0.554659    27A     -0.533229
      28A     -0.520374    29A     -0.511596    30A     -0.498643
      31A     -0.484029    32A     -0.481715    33A     -0.466960
      34A     -0.458223    35A     -0.439407    36A     -0.409574

  @DF-RHF Final Energy:  -387.11809502210980

   => Energetics <=

    Nuclear Repulsion Energy =            435.9992152656769235
    One-Electron Energy =               -1388.3316965815190542
    Two-Electron Energy =                 565.2143862937319909
    DFT Exchange-Correlation Energy =       0.0000000000000000
    Empirical Dispersion Energy =           0.0000000000000000
    PCM Polarization Energy =               0.0000000000000000
    EFP Energy =                            0.0000000000000000
    Total Energy =                       -387.1180950221101966
    Molecular point group: c1
  Basis Set: 6-31G*
  Basis Set:

  -Total Gradient:
     Atom            X                  Y                   Z
    ------   -----------------  -----------------  -----------------
       1       -0.000004612301     0.000005412503    -0.000001101420
       2        0.000014581777    -0.000017129665    -0.000002669929
       3       -0.000012029719     0.000015911584    -0.000002178457
       4       -0.000005648940     0.000004636810     0.000001580320
       5        0.000000306222     0.000002672365    -0.000009455696
       6       -0.000001894907     0.000000110985     0.000000981962
       7       -0.000002675952    -0.000002028764    -0.000003577909
       8        0.000010947580     0.000007994370    -0.000000319268
       9        0.000007168808     0.000000836501     0.000004839665
      10       -0.000003127201    -0.000001952722    -0.000001552227
      11       -0.000011943237    -0.000018196472     0.000021854347
      12       -0.000009161804    -0.000009249624    -0.000003652659
      13        0.000005751132     0.000006660095     0.000005751700
      14       -0.000118923091     0.000930605871    -0.000068368817
      15       -0.000001020186    -0.000004978438     0.000004967577
      16       -0.000003062290    -0.000007738987     0.000006128568
      17        0.000110118087    -0.000745913595     0.000020927535
      18        0.000078677714    -0.000630724326     0.000032566848
      19       -0.000000860029     0.000016622623     0.000014184634
      20       -0.000051454043     0.000449159887    -0.000016516810
      21        0.000003799037    -0.000002611502    -0.000002778009
      22       -0.000007677224     0.000000067208    -0.000006424418
      23       -0.000013450276     0.000002099565    -0.000004022882
      24        0.000012008062     0.000009105354     0.000011315327
      25        0.000004182772    -0.000011371623    -0.000002479984

  **** Optimization is complete! (in 8 steps) ****
    Final optimized geometry and variables:
    Molecular point group: c1

    Geometry (in Angstrom), charge = 0, multiplicity = 1:

    H           -3.334415740239    -0.156569273799     1.495494569558
    C           -3.355980898639    -0.121316094022     0.399086971290
    C           -2.678647980695     1.078266049246    -0.213316862973
    O           -3.892551188509    -0.985183938804    -0.215459923617
    C           -1.243943089140     1.269125402741     0.298280678474
    H           -2.706371449337     0.973018098095    -1.291727113450
    H           -3.272981513392     1.951588675801     0.052330322917
    C           -0.285208512898     0.160430146214    -0.143631477618
    H           -0.876161338767     2.227192304888    -0.057416537361
    H           -1.253829838719     1.333645076823     1.385062229639
    C            1.144230456642     0.374699410975     0.355158717465
    H           -0.285582040982     0.102353877108    -1.230170736578
    H           -0.647262549425    -0.803574576576     0.209250237397
    C            2.110666610246    -0.725027551984    -0.090750018654
    H            1.509488852261     1.337424511045     0.000728403371
    H            1.143026023529     0.431694301515     1.442456314432
    C            3.559753097890    -0.511867427072     0.403447181541
    H            2.099479854511    -0.785992876733    -1.176665644849
    H            1.737791593788    -1.683926100562     0.260089198117
    C            4.584797140665    -0.442344672401    -0.729092876328
    H            3.838994876410    -1.308544210693     1.086735623344
    H            3.616246894470     0.407289214947     0.981364477274
    H            4.589663715654    -1.360135286015    -1.310217320249
    H            4.360620888061     0.375897155622    -1.407989248946
    H            5.588276126680    -0.288551888827    -0.343995406160

  Mulliken Charges: (a.u.)
   Center  Symbol    Alpha    Beta     Spin     Total
       1     H     0.43261  0.43261  0.00000  0.13479
       2     C     2.83084  2.83084  0.00000  0.33833
       3     C     3.20812  3.20812  0.00000 -0.41624
       4     O     4.23775  4.23775  0.00000 -0.47550
       5     C     3.16657  3.16657  0.00000 -0.33314
       6     H     0.39971  0.39971  0.00000  0.20058
       7     H     0.40660  0.40660  0.00000  0.18679
       8     C     3.15577  3.15577  0.00000 -0.31153
       9     H     0.41282  0.41282  0.00000  0.17437
      10     H     0.41958  0.41958  0.00000  0.16085
      11     C     3.15442  3.15442  0.00000 -0.30885
      12     H     0.41796  0.41796  0.00000  0.16407
      13     H     0.41834  0.41834  0.00000  0.16331
      14     C     3.15557  3.15557  0.00000 -0.31114
      15     H     0.42285  0.42285  0.00000  0.15430
      16     H     0.42268  0.42268  0.00000  0.15464
      17     C     3.15556  3.15556  0.00000 -0.31112
      18     H     0.41976  0.41976  0.00000  0.16049
      19     H     0.41954  0.41954  0.00000  0.16093
      20     C     3.23983  3.23983  0.00000 -0.47966
      21     H     0.41939  0.41939  0.00000  0.16122
      22     H     0.42050  0.42050  0.00000  0.15900
      23     H     0.42073  0.42073  0.00000  0.15853
      24     H     0.42228  0.42228  0.00000  0.15544
      25     H     0.42023  0.42023  0.00000  0.15955

   Total alpha = 36.00000, Total beta = 36.00000, Total charge =  0.00000
