                              Psi4 1.0.54 Driver

  ==> Input File <==

--------------------------------------------------------------------------
set {
	reference rhf
	basis cc-pvtz
}

set_num_threads( 4 )
memory 2 gb

molecule MOL {
0 1

H	 -0.000105	 1.988529	 0.748933
O	 -0.000098	 1.879786	 -0.188206
C	 -0.000014	 0.545691	 -0.532416
C	 -0.090462	 -0.323652	 0.722909
C	 1.195510	 0.232903	 -1.433892
H	 -0.890157	 0.352652	 -1.112970
F	 -1.194005	 -0.038004	 1.369019
F	 -0.108276	 -1.602255	 0.442608
F	 0.918506	 -0.096382	 1.536363
F	 1.123683	 0.965054	 -2.518168
F	 1.228235	 -1.023836	 -1.798926
F	 2.332960	 0.515793	 -0.835930

	symmetry c1
}
set optking {
	frozen_dihedral = ("
		6 3 2 1
	")
}

ee,wfn = optimize('scf', return_wfn=True)
oeprop( wfn, 'DIPOLE', 'QUADRUPOLE', 'MULLIKEN_CHARGES')
f=open( 'psi4out.xyz', 'w' )
f.write( "12  " )
f.write( str(ee) + "\n" )
f.write( MOL.save_string_xyz() )
f.close()
--------------------------------------------------------------------------

    Molecular point group: c1
  Charge       = 0
  Multiplicity = 1
  Basis Set: CC-PVTZ
  Basis Set:
  @DF-RHF Final Energy:  -786.58460031573941
    Total Energy =                       -786.5846003157390669
    Molecular point group: c1
  Basis Set: CC-PVTZ
  Basis Set:
  Basis Set: CC-PVTZ
  Basis Set:
  @DF-RHF Final Energy:  -786.58540180386444
    Total Energy =                       -786.5854018038637605
  Basis Set: CC-PVTZ
  Basis Set:
  Basis Set: CC-PVTZ
  Basis Set:
  @DF-RHF Final Energy:  -786.58558510299599
    Total Energy =                       -786.5855851029959922
  Basis Set: CC-PVTZ
  Basis Set:
  Basis Set: CC-PVTZ
  Basis Set:
  @DF-RHF Final Energy:  -786.58560757271232
    Total Energy =                       -786.5856075727124335
  Basis Set: CC-PVTZ
  Basis Set:
  Basis Set: CC-PVTZ
  Basis Set:
  @DF-RHF Final Energy:  -786.58561322466221
    Total Energy =                       -786.5856132246618699
  Basis Set: CC-PVTZ
  Basis Set:
  Basis Set: CC-PVTZ
  Basis Set:
  @DF-RHF Final Energy:  -786.58561457873793
    Total Energy =                       -786.5856145787381593
  Basis Set: CC-PVTZ
  Basis Set:
  Charge       = 0
  Multiplicity = 1
  Basis Set: CC-PVTZ
  Basis Set:

    Orbital Energies (a.u.)
    -----------------------

    Doubly Occupied:

       1A    -26.363844     2A    -26.363356     3A    -26.363221
       4A    -26.351297     5A    -26.349574     6A    -26.347829
       7A    -20.607628     8A    -11.527426     9A    -11.514205
      10A    -11.351919    11A     -1.776974    12A     -1.762210
      13A     -1.672782    14A     -1.669258    15A     -1.657688
      16A     -1.656000    17A     -1.436837    18A     -1.105170
      19A     -1.003194    20A     -0.944412    21A     -0.876020
      22A     -0.869316    23A     -0.863351    24A     -0.849450
      25A     -0.838841    26A     -0.807715    27A     -0.753126
      28A     -0.740131    29A     -0.726804    30A     -0.724608
      31A     -0.707597    32A     -0.696534    33A     -0.692017
      34A     -0.677489    35A     -0.674665    36A     -0.672401
      37A     -0.659483    38A     -0.656810    39A     -0.621467
      40A     -0.550609    41A     -0.507570

  @DF-RHF Final Energy:  -786.58561486368126

   => Energetics <=

    Nuclear Repulsion Energy =            671.0155745792199014
    One-Electron Energy =               -2429.2207200385951182
    Two-Electron Energy =                 971.6195305956938455
    DFT Exchange-Correlation Energy =       0.0000000000000000
    Empirical Dispersion Energy =           0.0000000000000000
    PCM Polarization Energy =               0.0000000000000000
    EFP Energy =                            0.0000000000000000
    Total Energy =                       -786.5856148636813714
    Molecular point group: c1
  Basis Set: CC-PVTZ
  Basis Set:

  -Total Gradient:
     Atom            X                  Y                   Z
    ------   -----------------  -----------------  -----------------
       1       -0.000951109428     0.000031773937    -0.000002217187
       2        0.001091476283    -0.000083027903     0.000171776604
       3        0.000260026197     0.000161354473    -0.000876012194
       4        0.000083035498    -0.000076519164    -0.000060999494
       5        0.000052269269     0.000097767951     0.000041182649
       6       -0.000409385441    -0.000105924353     0.000685771097
       7       -0.000045989614     0.000024288354     0.000033828106
       8       -0.000008404469     0.000025713791     0.000011620636
       9       -0.000015594473     0.000007586666     0.000024774294
      10       -0.000011582431     0.000014904612     0.000003520477
      11       -0.000023376531    -0.000099257018    -0.000017618755
      12       -0.000021364860     0.000001338657    -0.000015626252

  **** Optimization is complete! (in 7 steps) ****
    Final optimized geometry and variables:
    Molecular point group: c1

    Geometry (in Angstrom), charge = 0, multiplicity = 1:

    H           -0.511779829061     2.021727265008     0.915313915661
    O           -0.504918137110     1.818920146797    -0.003194532301
    C           -0.553450360774     0.459957978504    -0.249980251055
    C           -0.667125114687    -0.343224688505     1.043747444769
    C            0.655999537440     0.089170935303    -1.108278964149
    H           -1.434791718288     0.217358537282    -0.830815675453
    F           -1.753998282466     0.038472048399     1.683042501400
    F           -0.761016920810    -1.625997035054     0.819858773725
    F            0.347776563821    -0.134163827261     1.849698927648
    F            0.644561410522     0.811330139923    -2.201309336904
    F            0.617251121304    -1.174571451643    -1.463193170759
    F            1.790386653160     0.304731575622    -0.491234936127

  Mulliken Charges: (a.u.)
   Center  Symbol    Alpha    Beta     Spin     Total
       1     H     0.38210  0.38210  0.00000  0.23580
       2     O     4.18991  4.18991  0.00000 -0.37982
       3     C     2.99600  2.99600  0.00000  0.00800
       4     C     2.68826  2.68826  0.00000  0.62347
       5     C     2.67980  2.67980  0.00000  0.64039
       6     H     0.43763  0.43763  0.00000  0.12475
       7     F     4.60874  4.60874  0.00000 -0.21747
       8     F     4.59814  4.59814  0.00000 -0.19629
       9     F     4.60619  4.60619  0.00000 -0.21239
      10     F     4.60213  4.60213  0.00000 -0.20427
      11     F     4.60629  4.60629  0.00000 -0.21259
      12     F     4.60480  4.60480  0.00000 -0.20959

   Total alpha = 41.00000, Total beta = 41.00000, Total charge =  0.00000

*** Psi4 exiting successfully. Buy a developer a beer!
