  ==> Input File <==

--------------------------------------------------------------------------
set {
	reference rhf
	basis cc-pvtz
}

set_num_threads( 4 )
memory 2 gb

molecule MOL {
0 1

H	 0.086000	 -1.571000	 -1.156000
C	 0.035000	 -1.233000	 -0.123000
H	 0.406000	 -2.038000	 0.499000
C	 0.922000	 0.000000	 0.000000
C	 -1.372000	 -0.736000	 0.228000
O	 2.111000	 -0.000000	 -0.000000
C	 0.035000	 1.233000	 0.124000
H	 -2.157000	 -1.318000	 -0.239000
H	 -1.526000	 -0.786000	 1.302000
C	 -1.372000	 0.736000	 -0.228000
H	 0.085000	 1.570000	 1.157000
H	 0.406000	 2.038000	 -0.498000
H	 -2.157000	 1.318000	 0.239000
H	 -1.526000	 0.786000	 -1.303000

	symmetry c1
}
ee = optimize('scf')
oeprop('DIPOLE', 'QUADRUPOLE', 'MULLIKEN_CHARGES')
f=open( 'psi4out.xyz', 'w' )
f.write( "14  " )
f.write( str(ee) + "\n" )
f.write( MOL.save_string_xyz() )
f.close()
--------------------------------------------------------------------------

    Molecular point group: c1
  Charge       = 0
  Multiplicity = 1
  Basis Set: CC-PVTZ
  Basis Set:
  @DF-RHF Final Energy:  -268.96036703845698
    Total Energy =                       -268.9603670384568090
    Molecular point group: c1
  Basis Set: CC-PVTZ
  Basis Set:
  Basis Set: CC-PVTZ
  Basis Set:
  @DF-RHF Final Energy:  -268.96048401170844
    Total Energy =                       -268.9604840117087861
  Basis Set: CC-PVTZ
  Basis Set:
  Basis Set: CC-PVTZ
  Basis Set:
  @DF-RHF Final Energy:  -268.96033199442456
    Total Energy =                       -268.9603319944248483
  Basis Set: CC-PVTZ
  Basis Set:
  Basis Set: CC-PVTZ
  Basis Set:
  @DF-RHF Final Energy:  -268.96049508029444
    Total Energy =                       -268.9604950802946064
  Basis Set: CC-PVTZ
  Basis Set:
  Charge       = 0
  Multiplicity = 1
  Basis Set: CC-PVTZ
  Basis Set:

    Orbital Energies (a.u.)
    -----------------------

    Doubly Occupied:

       1A    -20.538427     2A    -11.318821     3A    -11.232196
       4A    -11.231616     5A    -11.229597     6A    -11.229586
       7A     -1.398480     8A     -1.131806     9A     -0.992484
      10A     -0.939389    11A     -0.812017    12A     -0.733584
      13A     -0.673907    14A     -0.666503    15A     -0.600769
      16A     -0.594906    17A     -0.571026    18A     -0.558572
      19A     -0.505561    20A     -0.491633    21A     -0.482416
      22A     -0.481207    23A     -0.391272

  @DF-RHF Final Energy:  -268.96049533073187

   => Energetics <=

    Nuclear Repulsion Energy =            237.1654197532114381
    One-Electron Energy =                -834.6402768829432262
    Two-Electron Energy =                 328.5143617989999711
    DFT Exchange-Correlation Energy =       0.0000000000000000
    Empirical Dispersion Energy =           0.0000000000000000
    PCM Polarization Energy =               0.0000000000000000
    EFP Energy =                            0.0000000000000000
    Total Energy =                       -268.9604953307318738
    Molecular point group: c1
  Basis Set: CC-PVTZ
  Basis Set:

  -Total Gradient:
     Atom            X                  Y                   Z
    ------   -----------------  -----------------  -----------------
       1        0.000007364738    -0.000003070034     0.000012940985
       2        0.000020624275     0.000008225341    -0.000038177275
       3       -0.000003191899    -0.000005535615     0.000004774998
       4       -0.000021657894     0.000003619337    -0.000023700081
       5       -0.000021050282    -0.000005516108     0.000039371706
       6        0.000008535300    -0.000002509704     0.000006667514
       7        0.000016265060    -0.000005666826     0.000035181689
       8        0.000000481060     0.000004956994     0.000002582153
       9       -0.000002993085    -0.000003934109     0.000001724378
      10       -0.000006361575     0.000003735348    -0.000035276379
      11        0.000003414903     0.000011144314     0.000000896682
      12       -0.000003785578    -0.000002087715    -0.000000617900
      13        0.000004176420    -0.000008282684    -0.000000437894
      14       -0.000001821440     0.000004921461    -0.000005930576

  **** Optimization is complete! (in 5 steps) ****
    Final optimized geometry and variables:
    Molecular point group: c1

    Geometry (in Angstrom), charge = 0, multiplicity = 1:

    H            0.009563927292    -1.557514852212    -1.156990967247
    C           -0.040108894187    -1.229631421556    -0.122532528993
    H            0.331501026415    -2.037090317384     0.492164510230
    C            0.846894593484     0.000030753502     0.000066758756
    C           -1.443737968838    -0.733012489645     0.230624997336
    O            2.029797451681     0.000050182267     0.000189339148
    C           -0.040207245329     1.229622053044     0.122632539313
    H           -2.228980054996    -1.317271172542    -0.229151569329
    H           -1.593000204626    -0.778117237920     1.304706799638
    C           -1.443675592003     0.732943262962    -0.231001212893
    H            0.009117800736     1.557342369009     1.157183116647
    H            0.331518294701     2.037201296204    -0.491815597773
    H           -2.229087431474     1.317157332646     0.228532356892
    H           -1.592571620046     0.778065796055    -1.305139755380

  Mulliken Charges: (a.u.)
   Center  Symbol    Alpha    Beta     Spin     Total
       1     H     0.44177  0.44177  0.00000  0.11646
       2     C     3.11049  3.11049  0.00000 -0.22097
       3     H     0.43473  0.43473  0.00000  0.13053
       4     C     2.86543  2.86543  0.00000  0.26913
       5     C     3.10182  3.10182  0.00000 -0.20365
       6     O     4.17340  4.17340  0.00000 -0.34681
       7     C     3.11048  3.11048  0.00000 -0.22096
       8     H     0.44183  0.44183  0.00000  0.11634
       9     H     0.44994  0.44994  0.00000  0.10013
      10     C     3.10182  3.10182  0.00000 -0.20364
      11     H     0.44177  0.44177  0.00000  0.11645
      12     H     0.43473  0.43473  0.00000  0.13053
      13     H     0.44183  0.44183  0.00000  0.11633
      14     H     0.44994  0.44994  0.00000  0.10013

   Total alpha = 23.00000, Total beta = 23.00000, Total charge = -0.00000
