  ==> Input File <==

--------------------------------------------------------------------------
set {
	reference rhf
	basis cc-pvtz
}

set_num_threads( 4 )
memory 2 gb

molecule MOL {
0 1

O	 1.479706	 0.328911	 -1.025821
C	 0.860843	 0.273204	 -0.013120
C	 -0.623368	 -0.117453	 -0.005652
C	 1.540746	 0.599361	 1.301937
C	 -0.892588	 -1.253841	 -1.002900
C	 -1.473463	 1.100646	 -0.372896
C	 -0.981836	 -0.579025	 1.418506
H	 -0.609333	 -0.970024	 -2.010649
H	 -1.950451	 -1.487353	 -1.013175
H	 -0.360848	 -2.161259	 -0.746463
H	 -1.232203	 1.461623	 -1.364827
H	 -2.524364	 0.834451	 -0.354500
H	 -1.312381	 1.914833	 0.318657
H	 -2.035706	 -0.826342	 1.468082
H	 -0.425078	 -1.458934	 1.716857
H	 -0.788494	 0.205047	 2.140903
H	 1.782580	 -0.324028	 1.816361
H	 2.456695	 1.131558	 1.096335
H	 0.913012	 1.184338	 1.959954

	symmetry c1
}
set optking {
	frozen_dihedral = ("
		1 2 3 5
	")
}

ee = optimize('scf')
oeprop('DIPOLE', 'QUADRUPOLE', 'MULLIKEN_CHARGES')
f=open( 'psi4out.xyz', 'w' )
f.write( "19  " )
f.write( str(ee) + "\n" )
f.write( MOL.save_string_xyz() )
f.close()
--------------------------------------------------------------------------

    Molecular point group: c1
  Charge       = 0
  Multiplicity = 1
  Basis Set: CC-PVTZ
  Basis Set:
  @DF-RHF Final Energy:  -309.16968193149853
    Total Energy =                       -309.1696819314981894
    Molecular point group: c1
  Basis Set: CC-PVTZ
  Basis Set:
  Basis Set: CC-PVTZ
  Basis Set:
  @DF-RHF Final Energy:  -309.17080962091705
    Total Energy =                       -309.1708096209169412
  Basis Set: CC-PVTZ
  Basis Set:
  Basis Set: CC-PVTZ
  Basis Set:
  @DF-RHF Final Energy:  -309.17289323176402
    Total Energy =                       -309.1728932317635099
  Basis Set: CC-PVTZ
  Basis Set:
  Basis Set: CC-PVTZ
  Basis Set:
  @DF-RHF Final Energy:  -309.17330071168823
    Total Energy =                       -309.1733007116882277
  Basis Set: CC-PVTZ
  Basis Set:
  @DF-RHF Final Energy:  -309.17331786655001
    Total Energy =                       -309.1733178665500645
  @DF-RHF Final Energy:  -309.17340057065650
    Total Energy =                       -309.1734005706562129
  @DF-RHF Final Energy:  -309.17342915770308
    Total Energy =                       -309.1734291577031399
  @DF-RHF Final Energy:  -309.17344801929687
    Total Energy =                       -309.1734480192966998
  @DF-RHF Final Energy:  -309.17348207973441
    Total Energy =                       -309.1734820797348107
  Basis Set: CC-PVTZ
  Basis Set:
  @DF-RHF Final Energy:  -309.17349495070312
    Total Energy =                       -309.1734949507032297
  Basis Set: CC-PVTZ
  Basis Set:
  Basis Set: CC-PVTZ
  Basis Set:
  @DF-RHF Final Energy:  -309.17348414815024
    Total Energy =                       -309.1734841481504645
  Basis Set: CC-PVTZ
  Basis Set:
  Basis Set: CC-PVTZ
  Basis Set:
  @DF-RHF Final Energy:  -309.17349508202329
    Total Energy =                       -309.1734950820235213
  Basis Set: CC-PVTZ
  Basis Set:
  Charge       = 0
  Multiplicity = 1
  Basis Set: CC-PVTZ
  Basis Set:

    Orbital Energies (a.u.)
    -----------------------

    Doubly Occupied:

       1A    -20.536619     2A    -11.318311     3A    -11.245594
       4A    -11.225895     5A    -11.220243     6A    -11.219474
       7A    -11.209524     8A     -1.398278     9A     -1.109681
      10A     -1.004338    11A     -0.945095    12A     -0.937861
      13A     -0.834485    14A     -0.705663    15A     -0.666810
      16A     -0.633878    17A     -0.623607    18A     -0.591718
      19A     -0.588402    20A     -0.571099    21A     -0.550476
      22A     -0.546607    23A     -0.524745    24A     -0.514342
      25A     -0.503277    26A     -0.472494    27A     -0.464506
      28A     -0.393873

  @DF-RHF Final Energy:  -309.17349559462230

   => Energetics <=

    Nuclear Repulsion Energy =            326.8641277561304150
    One-Electron Energy =               -1066.9614532387263353
    Two-Electron Energy =                 430.9238298879735112
    DFT Exchange-Correlation Energy =       0.0000000000000000
    Empirical Dispersion Energy =           0.0000000000000000
    PCM Polarization Energy =               0.0000000000000000
    EFP Energy =                            0.0000000000000000
    Total Energy =                       -309.1734955946224090
    Molecular point group: c1
  Basis Set: CC-PVTZ
  Basis Set:

  -Total Gradient:
     Atom            X                  Y                   Z
    ------   -----------------  -----------------  -----------------
       1       -0.000380295864     0.001335920410    -0.000065218310
       2        0.000590818810    -0.002089856610     0.000344495805
       3       -0.000424867246     0.001415386073    -0.000957232162
       4        0.000006322071     0.000005520331     0.000001923900
       5        0.000209858208    -0.000692283391     0.000694318523
       6       -0.000018225931     0.000001359715     0.000013278512
       7        0.000012973065     0.000012924051     0.000011321589
       8       -0.000008410965     0.000004776405    -0.000001859057
       9       -0.000002653316    -0.000005511707    -0.000006297381
      10       -0.000005860552    -0.000005398851    -0.000006425181
      11        0.000007954379     0.000011150680     0.000008100893
      12        0.000002662761    -0.000001164742    -0.000010712804
      13       -0.000007261960     0.000000904723    -0.000002756391
      14        0.000000480401    -0.000000571193    -0.000008013974
      15        0.000012682483     0.000001675791     0.000003812216
      16       -0.000012301539    -0.000007656632    -0.000012165376
      17       -0.000004956596     0.000005618153    -0.000011735875
      18        0.000007805897     0.000000202144     0.000007320385
      19        0.000013275893     0.000007004649    -0.000002155311

  **** Optimization is complete! (in 13 steps) ****
    Final optimized geometry and variables:
    Molecular point group: c1

    Geometry (in Angstrom), charge = 0, multiplicity = 1:

    O            1.429568294886     0.312254401369    -1.111375341520
    C            0.875560834506     0.222545238505    -0.063707222233
    C           -0.604579257048    -0.193272056352    -0.005922109574
    C            1.606149027115     0.583487913525     1.211299484068
    C           -0.847747100079    -1.299888173609    -1.038509010766
    C           -1.420672993749     1.056992565338    -0.377125738575
    C           -1.032289127894    -0.693179250132     1.379331425553
    H           -0.558612741058    -0.979270786408    -2.028061864475
    H           -1.898059073356    -1.568372856627    -1.052933999072
    H           -0.278826411186    -2.190797604461    -0.796723884053
    H           -1.156489792452     1.408252614076    -1.365619304499
    H           -2.479393070292     0.825058596613    -0.366414245550
    H           -1.253843045301     1.866557026756     0.325807362434
    H           -2.075052776189    -0.985795661712     1.352078755193
    H           -0.459664300074    -1.560904236122     1.686976861456
    H           -0.929194341369     0.066790182781     2.143496421894
    H            1.686213179401    -0.277771923525     1.863240093469
    H            2.593168695267     0.937892080020     0.958281879690
    H            1.071774136769     1.352300205300     1.756791639379

  Mulliken Charges: (a.u.)
   Center  Symbol    Alpha    Beta     Spin     Total
       1     O     4.18028  4.18028  0.00000 -0.36056
       2     C     2.84767  2.84767  0.00000  0.30465
       3     C     3.00619  3.00619  0.00000 -0.01238
       4     C     3.16413  3.16413  0.00000 -0.32826
       5     C     3.15288  3.15288  0.00000 -0.30576
       6     C     3.15415  3.15415  0.00000 -0.30831
       7     C     3.16577  3.16577  0.00000 -0.33154
       8     H     0.43503  0.43503  0.00000  0.12994
       9     H     0.45124  0.45124  0.00000  0.09753
      10     H     0.44996  0.44996  0.00000  0.10008
      11     H     0.43821  0.43821  0.00000  0.12359
      12     H     0.44794  0.44794  0.00000  0.10412
      13     H     0.44870  0.44870  0.00000  0.10260
      14     H     0.44259  0.44259  0.00000  0.11482
      15     H     0.44486  0.44486  0.00000  0.11029
      16     H     0.44560  0.44560  0.00000  0.10880
      17     H     0.44662  0.44662  0.00000  0.10676
      18     H     0.43172  0.43172  0.00000  0.13656
      19     H     0.44647  0.44647  0.00000  0.10705

   Total alpha = 28.00000, Total beta = 28.00000, Total charge =  0.00000
