  ==> Input File <==

--------------------------------------------------------------------------
set {
	reference rhf
	basis 6-31G*
}

set_num_threads( 4 )
memory 2 gb

molecule MOL {
0 1

O	 0.314160	 1.062022	 -1.534909
C	 -0.460694	 1.123936	 -0.635999
C	 -1.360063	 2.296254	 -0.351124
O	 -0.632575	 0.154573	 0.251549
H	 -1.154589	 2.683036	 0.640404
H	 -1.196597	 3.066546	 -1.089882
H	 -2.395516	 1.976548	 -0.370641
C	 0.160891	 -1.019931	 0.106212
C	 1.589627	 -0.672828	 0.480843
H	 0.089836	 -1.367806	 -0.916050
H	 -0.238459	 -1.792301	 0.749618
C	 2.246377	 0.346236	 -0.452210
H	 2.163194	 -1.597435	 0.473358
H	 1.604769	 -0.303424	 1.502885
C	 3.691736	 0.652107	 -0.061850
H	 2.219579	 -0.032311	 -1.472055
H	 1.666466	 1.263317	 -0.447249
H	 4.134505	 1.377213	 -0.737283
H	 4.305508	 -0.243868	 -0.089969
H	 3.748266	 1.059562	 0.943567

	symmetry c1
}
set optking {
	frozen_dihedral = ("
		2 4 8 10
	")
}

ee = optimize('scf')
oeprop('DIPOLE', 'QUADRUPOLE', 'MULLIKEN_CHARGES')
f=open( 'psi4out.xyz', 'w' )
f.write( "20  " )
f.write( str(ee) + "\n" )
f.write( MOL.save_string_xyz() )
f.close()
--------------------------------------------------------------------------

    Molecular point group: c1
  Charge       = 0
  Multiplicity = 1
  Basis Set: 6-31G*
  Basis Set:
  @DF-RHF Final Energy:  -383.90043109498401
    Total Energy =                       -383.9004310949837873
    Molecular point group: c1
  Basis Set: 6-31G*
  Basis Set:
  Basis Set: 6-31G*
  Basis Set:
  @DF-RHF Final Energy:  -383.92323937307646
    Total Energy =                       -383.9232393730761714
  Basis Set: 6-31G*
  Basis Set:
  Basis Set: 6-31G*
  Basis Set:
  @DF-RHF Final Energy:  -383.93308303182545
    Total Energy =                       -383.9330830318256176
  Basis Set: 6-31G*
  Basis Set:
  Basis Set: 6-31G*
  Basis Set:
  @DF-RHF Final Energy:  -383.93620588341196
    Total Energy =                       -383.9362058834121854
  Basis Set: 6-31G*
  Basis Set:
  @DF-RHF Final Energy:  -383.93849739914907
    Total Energy =                       -383.9384973991492416
  @DF-RHF Final Energy:  -383.93949707091161
    Total Energy =                       -383.9394970709116706
  @DF-RHF Final Energy:  -383.93981470625943
    Total Energy =                       -383.9398147062599946
  @DF-RHF Final Energy:  -383.93996490556037
    Total Energy =                       -383.9399649055604868
  @DF-RHF Final Energy:  -383.94003148180735
    Total Energy =                       -383.9400314818076367
  Basis Set: 6-31G*
  Basis Set:
  @DF-RHF Final Energy:  -383.94002512801194
    Total Energy =                       -383.9400251280120528
  Basis Set: 6-31G*
  Basis Set:
  Basis Set: 6-31G*
  Basis Set:
  @DF-RHF Final Energy:  -383.94004445793740
    Total Energy =                       -383.9400444579375744
  Basis Set: 6-31G*
  Basis Set:
  Basis Set: 6-31G*
  Basis Set:
  @DF-RHF Final Energy:  -383.94004733190042
    Total Energy =                       -383.9400473319003595
  Basis Set: 6-31G*
  Basis Set:
  Charge       = 0
  Multiplicity = 1
  Basis Set: 6-31G*
  Basis Set:

    Orbital Energies (a.u.)
    -----------------------

    Doubly Occupied:

       1A    -20.600949     2A    -20.543786     3A    -11.375321
       4A    -11.284869     5A    -11.233010     6A    -11.224721
       7A    -11.212280     8A    -11.208002     9A     -1.465782
      10A     -1.362534    11A     -1.080065    12A     -1.027714
      13A     -0.979700    14A     -0.889027    15A     -0.808569
      16A     -0.759357    17A     -0.692547    18A     -0.682508
      19A     -0.663269    20A     -0.624921    21A     -0.599636
      22A     -0.593679    23A     -0.570154    24A     -0.550476
      25A     -0.544268    26A     -0.526706    27A     -0.508941
      28A     -0.494515    29A     -0.469373    30A     -0.463361
      31A     -0.443502    32A     -0.433581

  @DF-RHF Final Energy:  -383.94004832890886

   => Energetics <=

    Nuclear Repulsion Energy =            394.3699167417428839
    One-Electron Energy =               -1304.7856876733712852
    Two-Electron Energy =                 526.4757226027195429
    DFT Exchange-Correlation Energy =       0.0000000000000000
    Empirical Dispersion Energy =           0.0000000000000000
    PCM Polarization Energy =               0.0000000000000000
    EFP Energy =                            0.0000000000000000
    Total Energy =                       -383.9400483289089152
    Molecular point group: c1
  Basis Set: 6-31G*
  Basis Set:

  -Total Gradient:
     Atom            X                  Y                   Z
    ------   -----------------  -----------------  -----------------
       1        0.000005679936     0.000013376335    -0.000032912906
       2        0.003692208475     0.002861327388     0.002834186095
       3        0.000027611680    -0.000028378409     0.000023233845
       4       -0.006596378444    -0.005198584533    -0.003603014843
       5       -0.000004863371    -0.000004585174     0.000004508364
       6        0.000006829687    -0.000012582837    -0.000006241578
       7       -0.000004065886    -0.000004312513    -0.000007162745
       8        0.007152233806     0.006390589117    -0.001112952378
       9       -0.000016026041    -0.000027267384    -0.000019596433
      10       -0.004243449399    -0.004034900155     0.001913366474
      11       -0.000016088874     0.000044447914     0.000008137232
      12        0.000030425983     0.000025097798    -0.000018300530
      13       -0.000004174674    -0.000035378572     0.000018637169
      14       -0.000018120137    -0.000005538764    -0.000007109268
      15       -0.000025710509     0.000006302787     0.000016521372
      16       -0.000014996852    -0.000004424518    -0.000017586317
      17        0.000042886442     0.000010376627     0.000002959815
      18       -0.000008571354    -0.000005112894    -0.000006549410
      19       -0.000018568707     0.000003927351    -0.000002587969
      20        0.000013138236     0.000005620439     0.000012464012

  **** Optimization is complete! (in 13 steps) ****
    Final optimized geometry and variables:
    Molecular point group: c1

    Geometry (in Angstrom), charge = 0, multiplicity = 1:

    O           -0.772362948603     0.648196620324    -1.427679164764
    C           -1.386346304256     0.647133195337    -0.410229762736
    C           -2.346840519123     1.726174492200     0.012586802499
    O           -1.333459083823    -0.323433500855     0.490220234926
    H           -2.010273856759     2.169823345812     0.942728342786
    H           -2.405702126220     2.481274594593    -0.756991225298
    H           -3.325956881716     1.296878056861     0.189751382347
    C           -0.392146292070    -1.386447114794     0.344818935513
    C            1.029306987500    -1.056838073965     0.784475384088
    H           -0.459398602196    -1.790769880801    -0.655899453731
    H           -0.781100599167    -2.140720934329     1.015398557259
    C            1.891312088105    -0.184770683268    -0.132581608647
    H            1.524870469925    -2.018514675193     0.909837763248
    H            0.978342091996    -0.613785608025     1.776547087447
    C            3.339313250594    -0.120599165928     0.354369024272
    H            1.859990868071    -0.578190968984    -1.143740077826
    H            1.487981267131     0.818306632917    -0.189495227900
    H            3.940054107982     0.508971307566    -0.294289555029
    H            3.795431169261    -1.106757871614     0.372421320009
    H            3.400378792939     0.288456218761     1.359452446221

  Mulliken Charges: (a.u.)
   Center  Symbol    Alpha    Beta     Spin     Total
       1     O     4.28380  4.28380  0.00000 -0.56761
       2     C     2.61812  2.61812  0.00000  0.76377
       3     C     3.28143  3.28143  0.00000 -0.56286
       4     O     4.31046  4.31046  0.00000 -0.62091
       5     H     0.40136  0.40136  0.00000  0.19728
       6     H     0.39734  0.39734  0.00000  0.20531
       7     H     0.39982  0.39982  0.00000  0.20037
       8     C     3.00258  3.00258  0.00000 -0.00516
       9     C     3.16948  3.16948  0.00000 -0.33896
      10     H     0.40631  0.40631  0.00000  0.18738
      11     H     0.40981  0.40981  0.00000  0.18039
      12     C     3.14928  3.14928  0.00000 -0.29857
      13     H     0.42036  0.42036  0.00000  0.15928
      14     H     0.41581  0.41581  0.00000  0.16837
      15     C     3.24257  3.24257  0.00000 -0.48514
      16     H     0.41428  0.41428  0.00000  0.17145
      17     H     0.41405  0.41405  0.00000  0.17190
      18     H     0.41674  0.41674  0.00000  0.16651
      19     H     0.42324  0.42324  0.00000  0.15352
      20     H     0.42316  0.42316  0.00000  0.15368

   Total alpha = 32.00000, Total beta = 32.00000, Total charge =  0.00000
