  ==> Input File <==

--------------------------------------------------------------------------
set {
	reference rhf
	basis 6-31G*
}

set_num_threads( 4 )
memory 2 gb

molecule MOL {
0 1

O	 -0.231361	 -0.327376	 2.217726
C	 0.709696	 -0.686209	 1.586290
C	 1.245376	 -0.013843	 0.345420
O	 1.430147	 -1.755456	 1.901396
C	 0.455112	 1.231400	 -0.050772
H	 2.290808	 0.209651	 0.530653
H	 1.236546	 -0.752815	 -0.451788
C	 -0.998893	 1.219485	 0.433193
H	 0.482531	 1.345121	 -1.130325
H	 0.957290	 2.103070	 0.354729
C	 -1.883438	 0.145884	 -0.207175
H	 -1.431207	 2.195402	 0.224832
H	 -1.019646	 1.105716	 1.516076
C	 -3.347647	 0.245583	 0.225435
H	 -1.822183	 0.231698	 -1.291012
H	 -1.510341	 -0.844814	 0.042401
C	 -4.239992	 -0.825570	 -0.404234
H	 -3.732888	 1.230466	 -0.033079
H	 -3.408585	 0.170602	 1.310038
C	 -5.701275	 -0.716658	 0.029921
H	 -4.179496	 -0.752714	 -1.488058
H	 -3.859041	 -1.810759	 -0.143352
H	 -6.308102	 -1.488908	 -0.432678
H	 -6.122175	 0.245478	 -0.248167
H	 -5.799072	 -0.820114	 1.106957
C	 1.032242	 -2.482878	 3.049183
H	 1.076398	 -1.857869	 3.929477
H	 1.729734	 -3.301358	 3.136376
H	 0.026278	 -2.859163	 2.930935

	symmetry c1
}
set optking {
	frozen_dihedral = ("
		6 3 5 9
	")
}

ee = optimize('scf')
oeprop('DIPOLE', 'QUADRUPOLE', 'MULLIKEN_CHARGES')
f=open( 'psi4out.xyz', 'w' )
f.write( "29  " )
f.write( str(ee) + "\n" )
f.write( MOL.save_string_xyz() )
f.close()
--------------------------------------------------------------------------

    Molecular point group: c1
  Charge       = 0
  Multiplicity = 1
  Basis Set: 6-31G*
  Basis Set:
  @DF-RHF Final Energy:  -501.01652431223022
    Total Energy =                       -501.0165243122306720
    Molecular point group: c1
  Basis Set: 6-31G*
  Basis Set:
  Basis Set: 6-31G*
  Basis Set:
  @DF-RHF Final Energy:  -501.03034170169292
    Total Energy =                       -501.0303417016938283
  Basis Set: 6-31G*
  Basis Set:
  Basis Set: 6-31G*
  Basis Set:
  @DF-RHF Final Energy:  -501.03402636725559
    Total Energy =                       -501.0340263672550236
  Basis Set: 6-31G*
  Basis Set:
  Basis Set: 6-31G*
  Basis Set:
  @DF-RHF Final Energy:  -501.03317495788065
    Total Energy =                       -501.0331749578800782
  Basis Set: 6-31G*
  Basis Set:
  @DF-RHF Final Energy:  -501.03586049604405
    Total Energy =                       -501.0358604960445064
  @DF-RHF Final Energy:  -501.03632777311941
    Total Energy =                       -501.0363277731189555
  @DF-RHF Final Energy:  -501.03650107794351
    Total Energy =                       -501.0365010779439672
  @DF-RHF Final Energy:  -501.03697508641676
    Total Energy =                       -501.0369750864165326
  @DF-RHF Final Energy:  -501.03764904659033
    Total Energy =                       -501.0376490465905590
  @DF-RHF Final Energy:  -501.03808479180066
    Total Energy =                       -501.0380847918008840
  @DF-RHF Final Energy:  -501.03835337336000
    Total Energy =                       -501.0383533733597687
  @DF-RHF Final Energy:  -501.03838684557707
    Total Energy =                       -501.0383868455771790
  @DF-RHF Final Energy:  -501.03843947207997
    Total Energy =                       -501.0384394720800856
  Basis Set: 6-31G*
  Basis Set:
  @DF-RHF Final Energy:  -501.03844842478850
    Total Energy =                       -501.0384484247895216
  Basis Set: 6-31G*
  Basis Set:
  Basis Set: 6-31G*
  Basis Set:
  @DF-RHF Final Energy:  -501.03844791946426
    Total Energy =                       -501.0384479194642608
  Basis Set: 6-31G*
  Basis Set:
  Basis Set: 6-31G*
  Basis Set:
  @DF-RHF Final Energy:  -501.03845045832190
    Total Energy =                       -501.0384504583221315
  Basis Set: 6-31G*
  Basis Set:
  Charge       = 0
  Multiplicity = 1
  Basis Set: 6-31G*
  Basis Set:

    Orbital Energies (a.u.)
    -----------------------

    Doubly Occupied:

       1A    -20.606900     2A    -20.542509     3A    -11.372260
       4A    -11.281595     5A    -11.234828     6A    -11.225960
       7A    -11.214303     8A    -11.213621     9A    -11.212294
      10A    -11.212145    11A    -11.207830    12A     -1.470265
      13A     -1.361909    14A     -1.096056    15A     -1.064454
      16A     -1.016537    17A     -0.977229    18A     -0.929206
      19A     -0.862457    20A     -0.801694    21A     -0.788946
      22A     -0.764756    23A     -0.691062    24A     -0.682654
      25A     -0.670582    26A     -0.650345    27A     -0.628004
      28A     -0.614516    29A     -0.589350    30A     -0.578034
      31A     -0.562888    32A     -0.553828    33A     -0.534499
      34A     -0.524833    35A     -0.522279    36A     -0.504067
      37A     -0.497646    38A     -0.480620    39A     -0.470946
      40A     -0.463066    41A     -0.458091    42A     -0.452018
      43A     -0.437874    44A     -0.428754

  @DF-RHF Final Energy:  -501.03845044870911

   => Energetics <=

    Nuclear Repulsion Energy =            643.8794242782370247
    One-Electron Energy =               -1958.9283272695136020
    Two-Electron Energy =                 814.0104525425670090
    DFT Exchange-Correlation Energy =       0.0000000000000000
    Empirical Dispersion Energy =           0.0000000000000000
    PCM Polarization Energy =               0.0000000000000000
    EFP Energy =                            0.0000000000000000
    Total Energy =                       -501.0384504487094546
    Molecular point group: c1
  Basis Set: 6-31G*
  Basis Set:

  -Total Gradient:
     Atom            X                  Y                   Z
    ------   -----------------  -----------------  -----------------
       1       -0.000004223597    -0.000014376133    -0.000002420258
       2        0.000029237840    -0.000001870292     0.000005170117
       3        0.000163168913    -0.002276152151    -0.008161927706
       4        0.000014637108     0.000019384815    -0.000000687433
       5        0.006453885145     0.004914606644     0.001727964224
       6       -0.001075877576     0.001203643932     0.006641791585
       7        0.000006515981    -0.000005378943    -0.000005307035
       8       -0.000006962649     0.000004083805    -0.000044748243
       9       -0.005572801368    -0.003849621886    -0.000190609745
      10       -0.000000599689     0.000007722533    -0.000002938306
      11        0.000002595883    -0.000011878147     0.000015766725
      12       -0.000009417635     0.000011735374     0.000002571296
      13        0.000010305413    -0.000010172027     0.000009498098
      14       -0.000004170253     0.000003403169    -0.000005345969
      15        0.000006451422    -0.000000058147     0.000004324850
      16       -0.000006766066    -0.000000221747     0.000004331185
      17        0.000002071747    -0.000001676357    -0.000003643704
      18       -0.000002577940     0.000004821396     0.000004602290
      19        0.000003445226    -0.000005990469     0.000000205325
      20        0.000003499183     0.000010104732    -0.000002613519
      21        0.000001433292    -0.000002301916    -0.000001656465
      22        0.000000623986     0.000000902658     0.000003351919
      23        0.000004619202     0.000001120756    -0.000002378484
      24       -0.000002274815     0.000001335871     0.000001224387
      25        0.000000712976    -0.000001195524     0.000000464349
      26       -0.000030229605    -0.000001569418    -0.000002448323
      27        0.000006102622     0.000005134201    -0.000004396733
      28        0.000003757375    -0.000000489762     0.000004561010
      29        0.000002837878    -0.000005046968     0.000005294558

  **** Optimization is complete! (in 17 steps) ****
    Final optimized geometry and variables:
    Molecular point group: c1

    Geometry (in Angstrom), charge = 0, multiplicity = 1:

    O            1.886175197759     0.449543600318     1.828154434938
    C            1.962589017682    -0.170513248291     0.815023171940
    C            2.285490842032     0.431452677011    -0.534238515337
    O            1.814095262477    -1.486900318643     0.761276989212
    C            1.438669141279     1.672505658830    -0.897995313790
    H            3.321662737388     0.739381234293    -0.422786708134
    H            2.230400842820    -0.336202432702    -1.292294304426
    C           -0.030703814224     1.647505938358    -0.451567444950
    H            1.428598898252     1.742325104003    -1.982358350858
    H            1.913132201549     2.563435372007    -0.505637655771
    C           -0.848919028963     0.504345377744    -1.059925269339
    H           -0.478322421981     2.593502593010    -0.748465984576
    H           -0.089674698682     1.609720775044     0.630557736031
    C           -2.323791707310     0.547755358967    -0.655481775159
    H           -0.773188287532     0.546308304629    -2.145798208526
    H           -0.429803677567    -0.455082881116    -0.764280722812
    C           -3.151467123366    -0.588410786615    -1.258937149212
    H           -2.751706183412     1.502396617331    -0.957065600700
    H           -2.400040954561     0.510257029774     0.429883715439
    C           -4.623588102069    -0.536909593459    -0.851540634454
    H           -3.076192950302    -0.551940363132    -2.343737069924
    H           -2.726743563292    -1.543300877330    -0.956300250608
    H           -5.183842405103    -1.354546918562    -1.294633217303
    H           -5.086501128781     0.392507939374    -1.171121464539
    H           -4.734550966368    -0.606086634955     0.226955777936
    C            1.563443277207    -2.154837804963     1.985084923682
    H            2.377998541137    -1.996790386256     2.677019394836
    H            1.479436387434    -3.201542401498     1.737763631276
    H            0.645321655705    -1.799410218407     2.429990343960

  Mulliken Charges: (a.u.)
   Center  Symbol    Alpha    Beta     Spin     Total
       1     O     4.28807  4.28807  0.00000 -0.57614
       2     C     2.60821  2.60821  0.00000  0.78358
       3     C     3.21093  3.21093  0.00000 -0.42186
       4     O     4.30449  4.30449  0.00000 -0.60899
       5     C     3.15040  3.15040  0.00000 -0.30080
       6     H     0.39820  0.39820  0.00000  0.20359
       7     H     0.39840  0.39840  0.00000  0.20320
       8     C     3.16900  3.16900  0.00000 -0.33800
       9     H     0.41805  0.41805  0.00000  0.16390
      10     H     0.40957  0.40957  0.00000  0.18085
      11     C     3.15842  3.15842  0.00000 -0.31684
      12     H     0.42035  0.42035  0.00000  0.15930
      13     H     0.40485  0.40485  0.00000  0.19030
      14     C     3.15004  3.15004  0.00000 -0.30009
      15     H     0.42498  0.42498  0.00000  0.15004
      16     H     0.42017  0.42017  0.00000  0.15966
      17     C     3.15135  3.15135  0.00000 -0.30271
      18     H     0.42382  0.42382  0.00000  0.15237
      19     H     0.42260  0.42260  0.00000  0.15480
      20     C     3.23929  3.23929  0.00000 -0.47858
      21     H     0.42344  0.42344  0.00000  0.15313
      22     H     0.42342  0.42342  0.00000  0.15315
      23     H     0.41970  0.41970  0.00000  0.16061
      24     H     0.42172  0.42172  0.00000  0.15657
      25     H     0.42172  0.42172  0.00000  0.15656
      26     C     3.09331  3.09331  0.00000 -0.18661
      27     H     0.40841  0.40841  0.00000  0.18318
      28     H     0.40827  0.40827  0.00000  0.18347
      29     H     0.40881  0.40881  0.00000  0.18237

   Total alpha = 44.00000, Total beta = 44.00000, Total charge =  0.00000
