                              Psi4 1.0.54 Driver

  ==> Input File <==

--------------------------------------------------------------------------
set {
	reference rhf
	basis cc-pvtz
}

set_num_threads( 4 )
memory 2 gb

molecule MOL {
0 1

H	 2.285939	 -0.029892	 0.470569
O	 1.527096	 -0.592969	 0.494388
C	 0.489979	 0.078084	 0.002623
C	 -0.763662	 -0.754014	 0.000816
O	 0.584729	 1.191410	 -0.383949
C	 -2.038001	 0.074705	 -0.000833
H	 -0.712945	 -1.405886	 -0.864342
H	 -0.715137	 -1.405770	 0.866182
H	 -2.087267	 0.710831	 -0.874232
H	 -2.903419	 -0.576199	 -0.001922
H	 -2.089467	 0.710909	 0.872389

	symmetry c1
}
set optking {
	frozen_dihedral = ("
		2 3 4 7
	")
}

ee,wfn = optimize('scf', return_wfn=True)
oeprop( wfn, 'DIPOLE', 'QUADRUPOLE', 'MULLIKEN_CHARGES')
f=open( 'psi4out.xyz', 'w' )
f.write( "11  " )
f.write( str(ee) + "\n" )
f.write( MOL.save_string_xyz() )
f.close()
--------------------------------------------------------------------------

    Molecular point group: c1
  Charge       = 0
  Multiplicity = 1
  Basis Set: CC-PVTZ
  Basis Set:
  @DF-RHF Final Energy:  -266.95260258702086
    Total Energy =                       -266.9526025870208059
    Molecular point group: c1
  Basis Set: CC-PVTZ
  Basis Set:
  Basis Set: CC-PVTZ
  Basis Set:
  @DF-RHF Final Energy:  -266.95279076885777
    Total Energy =                       -266.9527907688577670
  Basis Set: CC-PVTZ
  Basis Set:
  Basis Set: CC-PVTZ
  Basis Set:
  @DF-RHF Final Energy:  -266.95279944021331
    Total Energy =                       -266.9527994402133118
  Basis Set: CC-PVTZ
  Basis Set:
  Basis Set: CC-PVTZ
  Basis Set:
  @DF-RHF Final Energy:  -266.95279985550428
    Total Energy =                       -266.9527998555043951
  Basis Set: CC-PVTZ
  Basis Set:
  Basis Set: CC-PVTZ
  Basis Set:
  @DF-RHF Final Energy:  -266.95280516942728
    Total Energy =                       -266.9528051694271653
  Basis Set: CC-PVTZ
  Basis Set:
  Charge       = 0
  Multiplicity = 1
  Basis Set: CC-PVTZ
  Basis Set:

    Orbital Energies (a.u.)
    -----------------------

    Doubly Occupied:

       1A    -20.605894     2A    -20.540885     3A    -11.374536
       4A    -11.242727     5A    -11.219712     6A     -1.478978
       7A     -1.370149     8A     -1.066374     9A     -0.918280
      10A     -0.805408    11A     -0.706335    12A     -0.693330
      13A     -0.662791    14A     -0.600939    15A     -0.596623
      16A     -0.534043    17A     -0.526819    18A     -0.507277
      19A     -0.484012    20A     -0.448325

  @DF-RHF Final Energy:  -266.95280617573917

   => Energetics <=

    Nuclear Repulsion Energy =            180.1336705664404292
    One-Electron Energy =                -721.4060764108917283
    Two-Electron Energy =                 274.3195996687120441
    DFT Exchange-Correlation Energy =       0.0000000000000000
    Empirical Dispersion Energy =           0.0000000000000000
    PCM Polarization Energy =               0.0000000000000000
    EFP Energy =                            0.0000000000000000
    Total Energy =                       -266.9528061757392834
    Molecular point group: c1
  Basis Set: CC-PVTZ
  Basis Set:

  -Total Gradient:
     Atom            X                  Y                   Z
    ------   -----------------  -----------------  -----------------
       1       -0.000015737455    -0.000010778715    -0.000009971900
       2       -0.000179539741     0.000298498031     0.000910458508
       3        0.000149145807    -0.000213849409    -0.001286390470
       4        0.000562115921    -0.000856346008     0.001014695914
       5        0.000004446742    -0.000009725797    -0.000008601911
       6        0.000004028140    -0.000000691088     0.000010888850
       7       -0.000541794152     0.000787279096    -0.000617915245
       8        0.000010898398     0.000014803055    -0.000010206969
       9        0.000001324872    -0.000002383304     0.000002783031
      10        0.000002891309    -0.000001034699    -0.000000234572
      11        0.000002220159    -0.000005771161    -0.000005505236

  **** Optimization is complete! (in 6 steps) ****
    Final optimized geometry and variables:
    Molecular point group: c1

    Geometry (in Angstrom), charge = 0, multiplicity = 1:

    H            2.300485914210    -0.033737546879     0.400558422336
    O            1.540815883608    -0.594097149964     0.454919144560
    C            0.492311325794     0.072931476677    -0.016472745964
    C           -0.759408585839    -0.764132125999    -0.017561885617
    O            0.575107382814     1.189381386509    -0.397203055938
    C           -2.033106677678     0.068063016332    -0.055594654867
    H           -0.697173959973    -1.397069999735    -0.898043571208
    H           -0.732857202826    -1.423162818589     0.839780841665
    H           -2.047923154368     0.712950166615    -0.922705319804
    H           -2.899214255304    -0.580833843150    -0.092460197947
    H           -2.116420843509     0.693854263029     0.824074173777

  Mulliken Charges: (a.u.)
   Center  Symbol    Alpha    Beta     Spin     Total
       1     H     0.38109  0.38109  0.00000  0.23783
       2     O     4.15990  4.15990  0.00000 -0.31980
       3     C     2.80436  2.80436  0.00000  0.39128
       4     C     3.09777  3.09777  0.00000 -0.19555
       5     O     4.19238  4.19238  0.00000 -0.38476
       6     C     3.14023  3.14023  0.00000 -0.28047
       7     H     0.44283  0.44283  0.00000  0.11435
       8     H     0.43712  0.43712  0.00000  0.12576
       9     H     0.44370  0.44370  0.00000  0.11260
      10     H     0.44948  0.44948  0.00000  0.10104
      11     H     0.45113  0.45113  0.00000  0.09773

   Total alpha = 20.00000, Total beta = 20.00000, Total charge = -0.00000

*** Psi4 exiting successfully. Buy a developer a beer!
