                              Psi4 1.0.54 Driver

  ==> Input File <==

--------------------------------------------------------------------------
set {
	reference rhf
	basis cc-pvtz
}

set_num_threads( 4 )
memory 2 gb

molecule MOL {
0 1

H	 2.752052	 0.097371	 0.132902
N	 1.777845	 0.306718	 0.135034
C	 1.117340	 -0.341137	 1.250318
C	 1.172374	 -0.060805	 -1.129155
H	 1.582569	 -0.018129	 2.173671
H	 1.190846	 -1.429113	 1.200093
C	 -0.350384	 0.045853	 1.260382
H	 1.677482	 0.465338	 -1.930024
H	 1.249358	 -1.131070	 -1.329717
C	 -0.295422	 0.325817	 -1.115974
H	 -0.434264	 1.116648	 1.467631
H	 -0.858372	 -0.483511	 2.057779
N	 -0.976577	 -0.298712	 -0.000000
H	 -0.763669	 -0.001115	 -2.036831
H	 -0.375515	 1.415900	 -1.072436
C	 -2.391156	 -0.021003	 -0.000000
H	 -2.853954	 -0.458728	 -0.875714
H	 -2.853954	 -0.458728	 0.875714
H	 -2.614037	 1.049773	 -0.000000

	symmetry c1
}
set optking {
	frozen_dihedral = ("
		7 13 16 19
	")
}

ee,wfn = optimize('scf', return_wfn=True)
oeprop( wfn, 'DIPOLE', 'QUADRUPOLE', 'MULLIKEN_CHARGES')
f=open( 'psi4out.xyz', 'w' )
f.write( "19  " )
f.write( str(ee) + "\n" )
f.write( MOL.save_string_xyz() )
f.close()
--------------------------------------------------------------------------

    Molecular point group: c1
  Charge       = 0
  Multiplicity = 1
  Basis Set: CC-PVTZ
  Basis Set:
  @DF-RHF Final Energy:  -305.30888955935109
    Total Energy =                       -305.3088895593513712
    Molecular point group: c1
  Basis Set: CC-PVTZ
  Basis Set:
  Basis Set: CC-PVTZ
  Basis Set:
  @DF-RHF Final Energy:  -305.30891762060378
    Total Energy =                       -305.3089176206034949
  Basis Set: CC-PVTZ
  Basis Set:
  Charge       = 0
  Multiplicity = 1
  Basis Set: CC-PVTZ
  Basis Set:

    Orbital Energies (a.u.)
    -----------------------

    Doubly Occupied:

       1A    -15.536099     2A    -15.531279     3A    -11.237306
       4A    -11.237250     5A    -11.235885     6A    -11.235872
       7A    -11.233234     8A     -1.249338     9A     -1.187740
      10A     -1.024179    11A     -0.965878    12A     -0.862022
      13A     -0.858231    14A     -0.757221    15A     -0.692811
      16A     -0.635375    17A     -0.627711    18A     -0.609153
      19A     -0.605470    20A     -0.581721    21A     -0.543924
      22A     -0.529031    23A     -0.512581    24A     -0.490555
      25A     -0.468322    26A     -0.458474    27A     -0.366137
      28A     -0.346937

  @DF-RHF Final Energy:  -305.30891995519528

   => Energetics <=

    Nuclear Repulsion Energy =            340.2945084334407966
    One-Electron Energy =               -1087.9673896851493282
    Two-Electron Energy =                 442.3639612965133665
    DFT Exchange-Correlation Energy =       0.0000000000000000
    Empirical Dispersion Energy =           0.0000000000000000
    PCM Polarization Energy =               0.0000000000000000
    EFP Energy =                            0.0000000000000000
    Total Energy =                       -305.3089199551951651
    Molecular point group: c1
  Basis Set: CC-PVTZ
  Basis Set:

  -Total Gradient:
     Atom            X                  Y                   Z
    ------   -----------------  -----------------  -----------------
       1        0.000008782918    -0.000012173749     0.000008794244
       2        0.000007533874     0.000020014050     0.000010283326
       3       -0.000054069509    -0.000069402948    -0.000096726350
       4       -0.000038058256     0.000006838007     0.000015812830
       5       -0.000030378989     0.000011240658    -0.000002176941
       6        0.000026600825    -0.000016746448    -0.000000115488
       7       -0.000156791802    -0.000933797654     0.000506394518
       8        0.000005013574     0.000004805357    -0.000005372024
       9       -0.000005314870     0.000004501652     0.000005055930
      10        0.000053488827     0.000088228033    -0.000047316337
      11       -0.000023523076     0.000006241684    -0.000014590262
      12       -0.000001270598    -0.000019582940    -0.000043186717
      13        0.000306678659     0.001319573293    -0.000958740978
      14       -0.000021840897    -0.000022352406     0.000017782559
      15        0.000006285229    -0.000019423090    -0.000009140612
      16       -0.000164872252    -0.000330569163     0.002195157623
      17        0.000048920612     0.000004615896    -0.000008210434
      18        0.000017118349    -0.000028929459    -0.000009117083
      19        0.000015697379    -0.000013080772    -0.001564587806

  **** Optimization is complete! (in 3 steps) ****
    Final optimized geometry and variables:
    Molecular point group: c1

    Geometry (in Angstrom), charge = 0, multiplicity = 1:

    H            2.752680620597     0.101522161931     0.070364990884
    N            1.778187397536     0.309888403891     0.073433140578
    C            1.120325879937    -0.334828717474     1.191968601184
    C            1.170840417066    -0.061994216759    -1.188460456032
    H            1.589224300579    -0.011487560127     2.113424826110
    H            1.191891230038    -1.423120238944     1.142879908703
    C           -0.347075861759     0.054051603446     1.207093643094
    H            1.675046844930     0.460498357982    -1.992397287102
    H            1.246803775329    -1.133189631115    -1.384801177180
    C           -0.296690705277     0.325757636775    -1.174022065343
    H           -0.428523748807     1.124580661796     1.417861028324
    H           -0.853205418812    -0.477204023858     2.004183410882
    N           -0.975175742846    -0.288816140783    -0.052264434667
    H           -0.768694715877    -0.007330810884    -2.091048446448
    H           -0.375923505138     1.416268559810    -1.138464154262
    C           -2.391600420241    -0.021956400064    -0.057293239349
    H           -2.844062476934    -0.452869139528    -0.942589554086
    H           -2.858174939526    -0.473377603977     0.808731473818
    H           -2.623317040819     1.046934096300    -0.055638142551

  Mulliken Charges: (a.u.)
   Center  Symbol    Alpha    Beta     Spin     Total
       1     H     0.43995  0.43995  0.00000  0.12010
       2     N     3.64285  3.64285  0.00000 -0.28570
       3     C     3.04102  3.04102  0.00000 -0.08204
       4     C     3.04060  3.04060  0.00000 -0.08120
       5     H     0.45246  0.45246  0.00000  0.09508
       6     H     0.46548  0.46548  0.00000  0.06904
       7     C     3.03351  3.03351  0.00000 -0.06702
       8     H     0.45244  0.45244  0.00000  0.09512
       9     H     0.46543  0.46543  0.00000  0.06915
      10     C     3.03454  3.03454  0.00000 -0.06909
      11     H     0.46909  0.46909  0.00000  0.06181
      12     H     0.45405  0.45405  0.00000  0.09189
      13     N     3.61423  3.61423  0.00000 -0.22845
      14     H     0.45431  0.45431  0.00000  0.09138
      15     H     0.46817  0.46817  0.00000  0.06366
      16     C     3.09678  3.09678  0.00000 -0.19356
      17     H     0.45217  0.45217  0.00000  0.09565
      18     H     0.45278  0.45278  0.00000  0.09444
      19     H     0.47013  0.47013  0.00000  0.05975

   Total alpha = 28.00000, Total beta = 28.00000, Total charge = -0.00000

*** Psi4 exiting successfully. Buy a developer a beer!
