  ==> Input File <==

--------------------------------------------------------------------------
set {
	reference rhf
	basis 6-31G*
}

set_num_threads( 1 )
memory 2 gb

molecule MOL {
0 1

H	 -2.032404	 -1.131163	 -2.511978
N	 -1.120832	 -1.230772	 -2.109374
C	 -1.204232	 -1.320662	 -0.662285
H	 -0.591687	 -0.419375	 -2.363837
C	 0.185095	 -1.432180	 -0.070280
H	 -1.708647	 -0.472062	 -0.198123
H	 -1.763399	 -2.214123	 -0.401822
O	 0.874168	 -0.245412	 -0.342030
H	 0.124143	 -1.591602	 1.006060
H	 0.704161	 -2.279608	 -0.512628
C	 2.202317	 -0.244239	 0.074611
H	 2.711377	 -1.041390	 -0.449894
H	 2.692099	 0.699270	 -0.159667
H	 2.283185	 -0.418429	 1.145558

	symmetry c1
}
set optking {
	frozen_dihedral = ("
		8 5 3 6,
		6 3 2 4,
		11 8 5 3
	")
}

ee = energy('scf')
oeprop('DIPOLE', 'QUADRUPOLE', 'MULLIKEN_CHARGES')
f=open( 'psi4out.xyz', 'w' )
f.write( "14  " )
f.write( str(ee) + "\n" )
f.write( MOL.save_string_xyz() )
f.close()
--------------------------------------------------------------------------

    Molecular point group: c1

    Geometry (in Angstrom), charge = 0, multiplicity = 1:

       Center              X                  Y                   Z               Mass
    ------------   -----------------  -----------------  -----------------  -----------------
           H         -2.231196857196    -0.251128614056    -1.880753359891     1.007825032070
           N         -1.319624857196    -0.350737614056    -1.478149359891    14.003074004780
           C         -1.403024857196    -0.440627614056    -0.031060359891    12.000000000000
           H         -0.790479857196     0.460659385944    -1.732612359891     1.007825032070
           C         -0.013697857196    -0.552145614056     0.560944640109    12.000000000000
           H         -1.907439857196     0.407972385944     0.433101640109     1.007825032070
           H         -1.962191857196    -1.334088614056     0.229402640109     1.007825032070
           O          0.675375142804     0.634622385944     0.289194640109    15.994914619560
           H         -0.074649857196    -0.711567614056     1.637284640109     1.007825032070
           H          0.505368142804    -1.399573614056     0.118596640109     1.007825032070
           C          2.003524142804     0.635795385944     0.705835640109    12.000000000000
           H          2.512584142804    -0.161355614056     0.181330640109     1.007825032070
           H          2.493306142804     1.579304385944     0.471557640109     1.007825032070
           H          2.084392142804     0.461605385944     1.776782640109     1.007825032070

  Charge       = 0
  Multiplicity = 1
  Basis Set: 6-31G*
  Basis Set:

    Orbital Energies (a.u.)
    -----------------------

    Doubly Occupied:

       1A    -20.556404     2A    -15.528493     3A    -11.266513
       4A    -11.266191     5A    -11.241021     6A     -1.381125
       7A     -1.173698     8A     -0.998652     9A     -0.907271
      10A     -0.815450    11A     -0.683935    12A     -0.675218
      13A     -0.643122    14A     -0.610187    15A     -0.607693
      16A     -0.539883    17A     -0.530122    18A     -0.498428
      19A     -0.470998    20A     -0.416906    21A     -0.380175

  @DF-RHF Final Energy:  -248.12415603418475

   => Energetics <=

    Nuclear Repulsion Energy =            194.7226399967953512
    One-Electron Energy =                -723.3106011740150052
    Two-Electron Energy =                 280.4638051430342216
    DFT Exchange-Correlation Energy =       0.0000000000000000
    Empirical Dispersion Energy =           0.0000000000000000
    PCM Polarization Energy =               0.0000000000000000
    EFP Energy =                            0.0000000000000000
    Total Energy =                       -248.1241560341854324

  Mulliken Charges: (a.u.)
   Center  Symbol    Alpha    Beta     Spin     Total
       1     H     0.33281  0.33281  0.00000  0.33437
       2     N     3.92532  3.92532  0.00000 -0.85064
       3     C     3.06879  3.06879  0.00000 -0.13759
       4     H     0.32364  0.32364  0.00000  0.35272
       5     C     2.99000  2.99000  0.00000  0.01999
       6     H     0.42643  0.42643  0.00000  0.14714
       7     H     0.42041  0.42041  0.00000  0.15919
       8     O     4.31054  4.31054  0.00000 -0.62108
       9     H     0.43078  0.43078  0.00000  0.13843
      10     H     0.42273  0.42273  0.00000  0.15454
      11     C     3.07893  3.07893  0.00000 -0.15787
      12     H     0.42707  0.42707  0.00000  0.14586
      13     H     0.41251  0.41251  0.00000  0.17497
      14     H     0.43002  0.43002  0.00000  0.13996

   Total alpha = 21.00000, Total beta = 21.00000, Total charge =  0.00000
