  ==> Input File <==

--------------------------------------------------------------------------
set {
	reference rhf
	basis cc-pvtz
}

set_num_threads( 4 )
memory 2 gb

molecule MOL {
0 1

H	 2.614283	 2.028610	 0.296620
O	 3.358864	 1.662087	 -0.142800
C	 3.565468	 0.338079	 0.273842
C	 2.533667	 -0.637565	 -0.272227
H	 4.548038	 0.064914	 -0.086598
H	 3.593945	 0.282242	 1.360360
C	 1.114816	 -0.402372	 0.240993
H	 2.544552	 -0.580764	 -1.356576
H	 2.850574	 -1.642962	 -0.005497
C	 0.113298	 -1.420414	 -0.302504
H	 0.796373	 0.598427	 -0.031033
H	 1.113377	 -0.446476	 1.328807
C	 -0.715380	 -2.143080	 0.761123
H	 -0.555005	 -0.924912	 -1.002558
H	 0.656105	 -2.164557	 -0.878768
C	 -1.700328	 -1.259197	 1.524255
H	 -1.271360	 -2.940752	 0.276217
H	 -0.046337	 -2.629082	 1.467761
C	 -2.572019	 -2.042681	 2.502375
H	 -2.339244	 -0.739230	 0.813699
H	 -1.164908	 -0.489481	 2.071855
C	 -3.553983	 -1.162694	 3.268706
H	 -3.121609	 -2.807155	 1.960059
H	 -1.934934	 -2.569552	 3.207776
H	 -4.226977	 -0.646307	 2.592200
H	 -4.158001	 -1.749719	 3.951106
H	 -3.033154	 -0.410548	 3.852114

	symmetry c1
}
set optking {
	frozen_dihedral = ("
		14 10 7 4
	")
}

ee = optimize('scf')
oeprop('DIPOLE', 'QUADRUPOLE', 'MULLIKEN_CHARGES')
f=open( 'psi4out.xyz', 'w' )
f.write( "27  " )
f.write( str(ee) + "\n" )
f.write( MOL.save_string_xyz() )
f.close()
--------------------------------------------------------------------------

    Molecular point group: c1
  Charge       = 0
  Multiplicity = 1
  Basis Set: CC-PVTZ
  Basis Set:
  @DF-RHF Final Energy:  -388.42267974692680
    Total Energy =                       -388.4226797469273151
    Molecular point group: c1
  Basis Set: CC-PVTZ
  Basis Set:
  Basis Set: CC-PVTZ
  Basis Set:
  @DF-RHF Final Energy:  -388.42302594677744
    Total Energy =                       -388.4230259467773294
  Basis Set: CC-PVTZ
  Basis Set:
  Basis Set: CC-PVTZ
  Basis Set:
  @DF-RHF Final Energy:  -388.42307959824007
    Total Energy =                       -388.4230795982398377
  Basis Set: CC-PVTZ
  Basis Set:
  Basis Set: CC-PVTZ
  Basis Set:
  @DF-RHF Final Energy:  -388.42305668513598
    Total Energy =                       -388.4230566851357480
  Basis Set: CC-PVTZ
  Basis Set:
  Basis Set: CC-PVTZ
  Basis Set:
  @DF-RHF Final Energy:  -388.42310273766799
    Total Energy =                       -388.4231027376679322
  Basis Set: CC-PVTZ
  Basis Set:
  Charge       = 0
  Multiplicity = 1
  Basis Set: CC-PVTZ
  Basis Set:

    Orbital Energies (a.u.)
    -----------------------

    Doubly Occupied:

       1A    -20.545274     2A    -11.264869     3A    -11.217208
       4A    -11.214480     5A    -11.214219     6A    -11.213849
       7A    -11.213521     8A    -11.212160     9A    -11.207695
      10A     -1.363203    11A     -1.095627    12A     -1.061866
      13A     -1.012593    14A     -0.948414    15A     -0.888874
      16A     -0.822206    17A     -0.802995    18A     -0.777154
      19A     -0.695664    20A     -0.657052    21A     -0.634230
      22A     -0.616672    23A     -0.596743    24A     -0.589020
      25A     -0.580938    26A     -0.550607    27A     -0.546912
      28A     -0.530109    29A     -0.504466    30A     -0.500557
      31A     -0.484458    32A     -0.474803    33A     -0.466230
      34A     -0.458540    35A     -0.453595    36A     -0.442833
      37A     -0.425538

  @DF-RHF Final Energy:  -388.42310274074913

   => Energetics <=

    Nuclear Repulsion Energy =            459.5723130197051773
    One-Electron Energy =               -1437.4204756180090499
    Two-Electron Energy =                 589.4250598575541744
    DFT Exchange-Correlation Energy =       0.0000000000000000
    Empirical Dispersion Energy =           0.0000000000000000
    PCM Polarization Energy =               0.0000000000000000
    EFP Energy =                            0.0000000000000000
    Total Energy =                       -388.4231027407496413
    Molecular point group: c1
  Basis Set: CC-PVTZ
  Basis Set:

  -Total Gradient:
     Atom            X                  Y                   Z
    ------   -----------------  -----------------  -----------------
       1        0.000020460959    -0.000008002726     0.000002815520
       2        0.000011943411    -0.000006067258    -0.000025452300
       3       -0.000017674911     0.000006474126     0.000060104760
       4        0.000296319033    -0.001015002586     0.001213596563
       5       -0.000000754967     0.000012757940     0.000001396463
       6        0.000008973956    -0.000001502371     0.000004149721
       7       -0.000761259761     0.001529969947    -0.001323422581
       8       -0.000013274109     0.000009936364     0.000002451245
       9       -0.000007995583    -0.000007402847    -0.000014051715
      10        0.001860163947    -0.000931287548    -0.001611562671
      11       -0.000001127228    -0.000015358385    -0.000012351770
      12        0.000009463608     0.000008996031    -0.000005819386
      13        0.000000558509    -0.000000826146    -0.000015081684
      14       -0.001397939386     0.000416880605     0.001732047528
      15       -0.000000992648    -0.000006910332     0.000004728287
      16       -0.000014459845     0.000006330715    -0.000018306580
      17       -0.000000029155    -0.000005278973     0.000000606351
      18        0.000007808230     0.000005236289    -0.000006655060
      19        0.000010379334     0.000000008298     0.000013524073
      20       -0.000004120775     0.000007241525    -0.000003632942
      21       -0.000012596927    -0.000006875119     0.000005371438
      22        0.000001841326    -0.000000631209    -0.000005075643
      23        0.000000580164     0.000006886748    -0.000001830173
      24        0.000001718637    -0.000004761906     0.000001818294
      25        0.000001283324     0.000001672222     0.000000360751
      26        0.000000120596    -0.000001520211    -0.000001449542
      27        0.000000610261    -0.000000963199     0.000001721059

  **** Optimization is complete! (in 6 steps) ****
    Final optimized geometry and variables:
    Molecular point group: c1

    Geometry (in Angstrom), charge = 0, multiplicity = 1:

    H            2.324424778359     2.757429961679    -0.509353478056
    O            3.074430980505     2.409787997382    -0.954567153489
    C            3.286537534499     1.074367865608    -0.579539716475
    C            2.257955384112     0.112414138176    -1.154268976844
    H            4.269644463304     0.816597211457    -0.949764446310
    H            3.317122744369     0.984727098991     0.504749978190
    C            0.840076678787     0.315842916021    -0.622557875468
    H            2.262685728367     0.206670131828    -2.236177660012
    H            2.579870269231    -0.900500030032    -0.924470829381
    C           -0.175188048771    -0.692654689524    -1.200231261832
    H            0.511310253695     1.327494110835    -0.834333777101
    H            0.867107983480     0.225329067151     0.460180632498
    C           -1.008265277138    -1.426044147843    -0.146596980771
    H           -0.856416102901    -0.182465650089    -1.874097474622
    H            0.351380986060    -1.429714686038    -1.796528542689
    C           -1.996002254768    -0.534638269157     0.603008065545
    H           -1.561051023765    -2.225091311282    -0.632996346029
    H           -0.341979954347    -1.908023140028     0.565559980654
    C           -2.814127324126    -1.287417780757     1.648736521889
    H           -2.670855942046    -0.072680872412    -0.114282690810
    H           -1.466487790791     0.280492682468     1.088542131729
    C           -3.808996114721    -0.398049223277     2.386996528879
    H           -3.348181786947    -2.102309475186     1.167719661058
    H           -2.141181461766    -1.747766339712     2.367113555907
    H           -4.518140459145     0.050655315848     1.699282387534
    H           -4.372710498833    -0.963199921400     3.120367757724
    H           -3.302340278020     0.407171327955     2.908773019481

  Mulliken Charges: (a.u.)
   Center  Symbol    Alpha    Beta     Spin     Total
       1     H     0.39258  0.39258  0.00000  0.21483
       2     O     4.20543  4.20543  0.00000 -0.41086
       3     C     2.98000  2.98000  0.00000  0.04000
       4     C     3.08794  3.08794  0.00000 -0.17587
       5     H     0.44875  0.44875  0.00000  0.10250
       6     H     0.46997  0.46997  0.00000  0.06005
       7     C     3.10995  3.10995  0.00000 -0.21991
       8     H     0.44986  0.44986  0.00000  0.10028
       9     H     0.45569  0.45569  0.00000  0.08861
      10     C     3.10411  3.10411  0.00000 -0.20822
      11     H     0.45115  0.45115  0.00000  0.09770
      12     H     0.45293  0.45293  0.00000  0.09414
      13     C     3.09680  3.09680  0.00000 -0.19360
      14     H     0.44846  0.44846  0.00000  0.10309
      15     H     0.44665  0.44665  0.00000  0.10670
      16     C     3.08732  3.08732  0.00000 -0.17464
      17     H     0.44807  0.44807  0.00000  0.10386
      18     H     0.45461  0.45461  0.00000  0.09078
      19     C     3.08455  3.08455  0.00000 -0.16909
      20     H     0.45437  0.45437  0.00000  0.09126
      21     H     0.45381  0.45381  0.00000  0.09237
      22     C     3.14978  3.14978  0.00000 -0.29955
      23     H     0.45367  0.45367  0.00000  0.09266
      24     H     0.45467  0.45467  0.00000  0.09066
      25     H     0.45502  0.45502  0.00000  0.08996
      26     H     0.44824  0.44824  0.00000  0.10353
      27     H     0.45561  0.45561  0.00000  0.08878

   Total alpha = 37.00000, Total beta = 37.00000, Total charge = -0.00000
