  ==> Input File <==

--------------------------------------------------------------------------
set {
	reference rhf
	basis cc-pvtz
}

set_num_threads( 4 )
memory 2 gb

molecule MOL {
0 1

H	 1.224061	 -0.536759	 0.994961
C	 0.788096	 -0.429819	 0.000000
N	 -0.537714	 -0.645117	 0.000000
O	 1.451474	 -0.152640	 -0.948589
C	 -1.522613	 0.412524	 0.000000
H	 -0.845894	 -1.585866	 0.000000
H	 -2.150256	 0.356137	 -0.880771
H	 -1.005621	 1.357208	 0.000000
H	 -2.150256	 0.356137	 0.880771

	symmetry c1
}
set optking {
	frozen_dihedral = ("
		1 2 3 6
	")
}

ee = optimize('scf')
oeprop('DIPOLE', 'QUADRUPOLE', 'MULLIKEN_CHARGES')
f=open( 'psi4out.xyz', 'w' )
f.write( "9  " )
f.write( str(ee) + "\n" )
f.write( MOL.save_string_xyz() )
f.close()
--------------------------------------------------------------------------

    Molecular point group: c1
  Charge       = 0
  Multiplicity = 1
  Basis Set: CC-PVTZ
  Basis Set:
  @DF-RHF Final Energy:  -208.00102248224266
    Total Energy =                       -208.0010224822426323
    Molecular point group: c1
  Basis Set: CC-PVTZ
  Basis Set:
  Basis Set: CC-PVTZ
  Basis Set:
  @DF-RHF Final Energy:  -208.00629225188462
    Total Energy =                       -208.0062922518847586
  Basis Set: CC-PVTZ
  Basis Set:
  Basis Set: CC-PVTZ
  Basis Set:
  @DF-RHF Final Energy:  -208.01113725783648
    Total Energy =                       -208.0111372578365376
  Basis Set: CC-PVTZ
  Basis Set:
  Basis Set: CC-PVTZ
  Basis Set:
  @DF-RHF Final Energy:  -207.94515171364560
    Total Energy =                       -207.9451517136456005
  Basis Set: CC-PVTZ
  Basis Set:
  @DF-RHF Final Energy:  -208.00762577002075
    Total Energy =                       -208.0076257700206384
  @DF-RHF Final Energy:  -208.02225181452957
    Total Energy =                       -208.0222518145295680
  @DF-RHF Final Energy:  -208.01927962682399
    Total Energy =                       -208.0192796268240727
  @DF-RHF Final Energy:  -208.01944991331914
    Total Energy =                       -208.0194499133191073
  @DF-RHF Final Energy:  -208.02503644105610
    Total Energy =                       -208.0250364410561588
  @DF-RHF Final Energy:  -208.02556640939861
    Total Energy =                       -208.0255664093986638
  @DF-RHF Final Energy:  -208.02582894127869
    Total Energy =                       -208.0258289412787462
  @DF-RHF Final Energy:  -208.02591175385504
    Total Energy =                       -208.0259117538550413
  @DF-RHF Final Energy:  -208.02591385497189
    Total Energy =                       -208.0259138549720319
  @DF-RHF Final Energy:  -208.02591337207838
    Total Energy =                       -208.0259133720783780
  @DF-RHF Final Energy:  -208.02584643192216
    Total Energy =                       -208.0258464319221616
  @DF-RHF Final Energy:  -208.02553857344020
    Total Energy =                       -208.0255385734402296
  @DF-RHF Final Energy:  -208.02591111736069
    Total Energy =                       -208.0259111173606925
  @DF-RHF Final Energy:  -208.02591258939904
    Total Energy =                       -208.0259125893990131
  @DF-RHF Final Energy:  -208.02573221338508
    Total Energy =                       -208.0257322133851119
  @DF-RHF Final Energy:  -208.02545894066387
    Total Energy =                       -208.0254589406638388
  @DF-RHF Final Energy:  -208.02590811417667
    Total Energy =                       -208.0259081141766728
  @DF-RHF Final Energy:  -208.02590525463560
    Total Energy =                       -208.0259052546356315
  @DF-RHF Final Energy:  -208.02590778842949
    Total Energy =                       -208.0259077884294072
  @DF-RHF Final Energy:  -208.02590925141226
    Total Energy =                       -208.0259092514122017
  @DF-RHF Final Energy:  -208.02590939166359
    Total Energy =                       -208.0259093916637596
  @DF-RHF Final Energy:  -208.02590919443770
    Total Energy =                       -208.0259091944375882
  @DF-RHF Final Energy:  -208.02590896203719
    Total Energy =                       -208.0259089620371924
  @DF-RHF Final Energy:  -208.02590887138524
    Total Energy =                       -208.0259088713852123
  @DF-RHF Final Energy:  -208.02590863292696
    Total Energy =                       -208.0259086329269849
  @DF-RHF Final Energy:  -208.02590817193033
    Total Energy =                       -208.0259081719301548
  @DF-RHF Final Energy:  -208.02590657650046
    Total Energy =                       -208.0259065765004323
  @DF-RHF Final Energy:  -208.02590842711922
    Total Energy =                       -208.0259084271193331
  @DF-RHF Final Energy:  -208.02590911485953
    Total Energy =                       -208.0259091148595303
  @DF-RHF Final Energy:  -208.02590909435693
    Total Energy =                       -208.0259090943568765
  @DF-RHF Final Energy:  -208.02590904576488
    Total Energy =                       -208.0259090457649052
  @DF-RHF Final Energy:  -208.02590899008356
    Total Energy =                       -208.0259089900835647
  Basis Set: CC-PVTZ
  Basis Set:
  @DF-RHF Final Energy:  -208.02590892469502
    Total Energy =                       -208.0259089246951021
  Basis Set: CC-PVTZ
  Basis Set:
  Basis Set: CC-PVTZ
  Basis Set:
  @DF-RHF Final Energy:  -208.02570930780229
    Total Energy =                       -208.0257093078022024
  Basis Set: CC-PVTZ
  Basis Set:
  Basis Set: CC-PVTZ
  Basis Set:
  @DF-RHF Final Energy:  -208.02590900932427
    Total Energy =                       -208.0259090093242094
  Basis Set: CC-PVTZ
  Basis Set:
  Charge       = 0
  Multiplicity = 1
  Basis Set: CC-PVTZ
  Basis Set:

    Orbital Energies (a.u.)
    -----------------------

    Doubly Occupied:

       1A    -20.548535     2A    -15.574216     3A    -11.345975
       4A    -11.251013     5A     -1.418585     6A     -1.227865
       7A     -0.950547     8A     -0.809751     9A     -0.727082
      10A     -0.660679    11A     -0.646662    12A     -0.571640
      13A     -0.548688    14A     -0.534261    15A     -0.444526
      16A     -0.415065

  @DF-RHF Final Energy:  -208.02590898630655

   => Energetics <=

    Nuclear Repulsion Energy =            122.7503894284395898
    One-Electron Energy =                -526.2024173791476187
    Two-Electron Energy =                 195.4261189644014394
    DFT Exchange-Correlation Energy =       0.0000000000000000
    Empirical Dispersion Energy =           0.0000000000000000
    PCM Polarization Energy =               0.0000000000000000
    EFP Energy =                            0.0000000000000000
    Total Energy =                       -208.0259089863066038
    Molecular point group: c1
  Basis Set: CC-PVTZ
  Basis Set:

  -Total Gradient:
     Atom            X                  Y                   Z
    ------   -----------------  -----------------  -----------------
       1        0.001907813084     0.011873941886     0.005888731404
       2       -0.003054310779    -0.014487788455    -0.010911750154
       3        0.007720313995    -0.001657421310     0.017208039967
       4        0.000057896096    -0.000170646511     0.000106541795
       5       -0.000648706518     0.000138043719     0.000416781984
       6       -0.005875224801     0.004461343669    -0.012491438866
       7       -0.000023520228    -0.000116998629    -0.000194826413
       8       -0.000180600735    -0.000173902770     0.000063048739
       9        0.000096339886     0.000133428401    -0.000085128458

    Molecular point group: c1

    Geometry (in Angstrom), charge = 0, multiplicity = 1:

    H            1.573809437613    -0.846709813442     0.737145521409
    C            0.814503572550    -0.383593526278     0.107137556083
    N           -0.464538006828    -0.441273899256     0.665169211019
    O            1.115545329452     0.250275290596    -0.842970869936
    C           -1.404293379682     0.546194865723     0.131985694017
    H           -0.860787548525    -1.347960735359     0.509339963669
    H           -1.563172648110     0.453488768360    -0.935760686606
    H           -1.030341982167     1.538873906507     0.332086859451
    H           -2.347041195772     0.425405219890     0.646454198005

  Mulliken Charges: (a.u.)
   Center  Symbol    Alpha    Beta     Spin     Total
       1     H     0.45113  0.45113  0.00000  0.09775
       2     C     2.88414  2.88414  0.00000  0.23172
       3     N     3.61492  3.61492  0.00000 -0.22984
       4     O     4.17937  4.17937  0.00000 -0.35873
       5     C     3.08368  3.08368  0.00000 -0.16735
       6     H     0.43353  0.43353  0.00000  0.13295
       7     H     0.45476  0.45476  0.00000  0.09047
       8     H     0.44717  0.44717  0.00000  0.10565
       9     H     0.45130  0.45130  0.00000  0.09739

   Total alpha = 16.00000, Total beta = 16.00000, Total charge = -0.00000
