  ==> Input File <==

--------------------------------------------------------------------------
set {
	reference rhf
	basis cc-pvtz
}

set_num_threads( 4 )
memory 2 gb

molecule MOL {
0 1

H	 3.273419	 0.176595	 -0.102789
N	 2.433987	 -0.362316	 -0.080024
C	 1.263552	 0.494993	 0.021953
H	 2.497638	 -0.973615	 0.707122
C	 -0.016533	 -0.325589	 -0.026925
H	 1.280915	 1.180773	 -0.818522
H	 1.263064	 1.106893	 0.925038
C	 -1.280353	 0.525521	 0.047747
H	 -0.016686	 -0.912532	 -0.939714
H	 -0.014099	 -1.037598	 0.796369
C	 -1.016852	 1.942496	 0.546487
H	 -1.999908	 0.042668	 0.703535
H	 -1.745750	 0.571143	 -0.933170
H	 -0.582068	 1.932358	 1.540263
H	 -1.933072	 2.519925	 0.591947
H	 -0.328241	 2.465952	 -0.108484

	symmetry c1
}
set optking {
	frozen_dihedral = ("
		12 8 5 9
	")
}

ee = optimize('scf')
oeprop('DIPOLE', 'QUADRUPOLE', 'MULLIKEN_CHARGES')
f=open( 'psi4out.xyz', 'w' )
f.write( "16  " )
f.write( str(ee) + "\n" )
f.write( MOL.save_string_xyz() )
f.close()
--------------------------------------------------------------------------

    Molecular point group: c1
  Charge       = 0
  Multiplicity = 1
  Basis Set: CC-PVTZ
  Basis Set:
  @DF-RHF Final Energy:  -212.38793900591426
    Total Energy =                       -212.3879390059139496
    Molecular point group: c1
  Basis Set: CC-PVTZ
  Basis Set:
  Basis Set: CC-PVTZ
  Basis Set:
  @DF-RHF Final Energy:  -212.38867305821626
    Total Energy =                       -212.3886730582163977
  Basis Set: CC-PVTZ
  Basis Set:
  Basis Set: CC-PVTZ
  Basis Set:
  @DF-RHF Final Energy:  -212.39131510337927
    Total Energy =                       -212.3913151033791564
  Basis Set: CC-PVTZ
  Basis Set:
  Basis Set: CC-PVTZ
  Basis Set:
  @DF-RHF Final Energy:  -212.39162929473454
    Total Energy =                       -212.3916292947343436
  Basis Set: CC-PVTZ
  Basis Set:
  Basis Set: CC-PVTZ
  Basis Set:
  @DF-RHF Final Energy:  -212.39165848580595
    Total Energy =                       -212.3916584858059196
  Basis Set: CC-PVTZ
  Basis Set:
  Basis Set: CC-PVTZ
  Basis Set:
  @DF-RHF Final Energy:  -212.39166486763946
    Total Energy =                       -212.3916648676395766
  Basis Set: CC-PVTZ
  Basis Set:
  Basis Set: CC-PVTZ
  Basis Set:
  @DF-RHF Final Energy:  -212.39166775150414
    Total Energy =                       -212.3916677515044285
  Basis Set: CC-PVTZ
  Basis Set:
  Charge       = 0
  Multiplicity = 1
  Basis Set: CC-PVTZ
  Basis Set:

    Orbital Energies (a.u.)
    -----------------------

    Doubly Occupied:

       1A    -15.525922     2A    -11.237119     3A    -11.213767
       4A    -11.208450     5A    -11.206459     6A     -1.177828
       7A     -1.055719     8A     -0.954889     9A     -0.863646
      10A     -0.774061    11A     -0.658960    12A     -0.640961
      13A     -0.619490    14A     -0.574004    15A     -0.548431
      16A     -0.534594    17A     -0.514583    18A     -0.466875
      19A     -0.461669    20A     -0.452239    21A     -0.383287

  @DF-RHF Final Energy:  -212.39166801164953

   => Energetics <=

    Nuclear Repulsion Energy =            189.3249202148284098
    One-Electron Energy =                -661.2872707231390450
    Two-Electron Energy =                 259.5706824966609929
    DFT Exchange-Correlation Energy =       0.0000000000000000
    Empirical Dispersion Energy =           0.0000000000000000
    PCM Polarization Energy =               0.0000000000000000
    EFP Energy =                            0.0000000000000000
    Total Energy =                       -212.3916680116496423
    Molecular point group: c1
  Basis Set: CC-PVTZ
  Basis Set:

  -Total Gradient:
     Atom            X                  Y                   Z
    ------   -----------------  -----------------  -----------------
       1       -0.000000682170     0.000001365724    -0.000006653563
       2       -0.000002446330    -0.000001519061    -0.000014549956
       3        0.000000933631    -0.000005755954     0.000015780465
       4       -0.000001831781     0.000008971971     0.000001224662
       5       -0.002640879661    -0.004154236093     0.003946384339
       6        0.000002799632    -0.000000977257     0.000009964182
       7        0.000004812809    -0.000002871768     0.000007879739
       8       -0.001673491653    -0.002360087635    -0.005538428580
       9        0.002477919783     0.003845815364    -0.002493288859
      10        0.000000268214     0.000010021989     0.000005327979
      11       -0.000001720265    -0.000002569372    -0.000004908689
      12        0.001847634427     0.002661119507     0.004064210887
      13       -0.000012059016    -0.000000065427     0.000005127476
      14       -0.000010603617    -0.000000911077     0.000004569537
      15        0.000001397970     0.000004331253    -0.000010859589
      16        0.000007948029    -0.000002632164     0.000008219967

  **** Optimization is complete! (in 8 steps) ****
    Final optimized geometry and variables:
    Molecular point group: c1

    Geometry (in Angstrom), charge = 0, multiplicity = 1:

    H            3.001570894955    -0.417611249168    -0.270571308321
    N            2.132133856081    -0.906562317485    -0.241594821571
    C            1.017762814681     0.018284003755    -0.094517187555
    H            2.175542495643    -1.536999807883     0.531945847500
    C           -0.298683478297    -0.753877785289    -0.097128721168
    H            1.043610368465     0.698292606956    -0.939017952782
    H            1.096579213715     0.627549428265     0.803423465111
    C           -1.590805883724     0.095069797363    -0.068834386454
    H           -0.283875698920    -1.349101093410    -1.002081604083
    H           -0.291695546286    -1.442721235738     0.742335636349
    C           -1.457003186331     1.529884704636     0.447560281457
    H           -2.308168302391    -0.396639665230     0.579132708027
    H           -2.025636444078     0.124827283806    -1.061079917774
    H           -1.086760937260     1.556417154577     1.466434732051
    H           -2.426585541150     2.014854173835     0.441718105199
    H           -0.791409128616     2.127761046612    -0.162965984132

  Mulliken Charges: (a.u.)
   Center  Symbol    Alpha    Beta     Spin     Total
       1     H     0.43009  0.43009  0.00000  0.13983
       2     N     3.69146  3.69146  0.00000 -0.38291
       3     C     3.02684  3.02684  0.00000 -0.05367
       4     H     0.43092  0.43092  0.00000  0.13816
       5     C     3.09177  3.09177  0.00000 -0.18355
       6     H     0.45548  0.45548  0.00000  0.08903
       7     H     0.46529  0.46529  0.00000  0.06942
       8     C     3.09055  3.09055  0.00000 -0.18111
       9     H     0.44637  0.44637  0.00000  0.10725
      10     H     0.45764  0.45764  0.00000  0.08472
      11     C     3.15953  3.15953  0.00000 -0.31906
      12     H     0.45192  0.45192  0.00000  0.09616
      13     H     0.45026  0.45026  0.00000  0.09947
      14     H     0.45402  0.45402  0.00000  0.09196
      15     H     0.44476  0.44476  0.00000  0.11047
      16     H     0.45309  0.45309  0.00000  0.09383

   Total alpha = 21.00000, Total beta = 21.00000, Total charge = -0.00000
