  ==> Input File <==

--------------------------------------------------------------------------
set {
	reference rhf
	basis 6-31G*
}

set_num_threads( 4 )
memory 2 gb

molecule MOL {
0 1

H	 -2.115722	 -1.192004	 0.254429
O	 -2.347518	 -0.290803	 0.079804
C	 -1.184022	 0.487508	 -0.006784
C	 0.062599	 -0.378592	 0.031606
H	 -1.176523	 1.099369	 -0.904519
H	 -1.187323	 1.153111	 0.844927
O	 1.171513	 0.459272	 -0.058250
H	 0.050699	 -1.089204	 -0.797170
H	 0.078739	 -0.954914	 0.954740
C	 2.397842	 -0.198080	 -0.002151
H	 2.508049	 -0.905315	 -0.822092
H	 3.173794	 0.550865	 -0.078850
H	 2.517602	 -0.735921	 0.936026

	symmetry c1
}
set optking {
	frozen_dihedral = ("
		1 2 3 5
	")
}

ee = optimize('scf')
oeprop('DIPOLE', 'QUADRUPOLE', 'MULLIKEN_CHARGES')
f=open( 'psi4out.xyz', 'w' )
f.write( "13  " )
f.write( str(ee) + "\n" )
f.write( MOL.save_string_xyz() )
f.close()
--------------------------------------------------------------------------

    Molecular point group: c1
  Charge       = 0
  Multiplicity = 1
  Basis Set: 6-31G*
  Basis Set:
  @DF-RHF Final Energy:  -267.94554738300559
    Total Energy =                       -267.9455473830054757
    Molecular point group: c1
  Basis Set: 6-31G*
  Basis Set:
  Basis Set: 6-31G*
  Basis Set:
  @DF-RHF Final Energy:  -267.94629485380199
    Total Energy =                       -267.9462948538021010
  Basis Set: 6-31G*
  Basis Set:
  Basis Set: 6-31G*
  Basis Set:
  @DF-RHF Final Energy:  -267.94646403410445
    Total Energy =                       -267.9464640341043378
  Basis Set: 6-31G*
  Basis Set:
  Basis Set: 6-31G*
  Basis Set:
  @DF-RHF Final Energy:  -267.94646617528383
    Total Energy =                       -267.9464661752836605
  Basis Set: 6-31G*
  Basis Set:
  Charge       = 0
  Multiplicity = 1
  Basis Set: 6-31G*
  Basis Set:

    Orbital Energies (a.u.)
    -----------------------

    Doubly Occupied:

       1A    -20.568625     2A    -20.556979     3A    -11.280897
       4A    -11.274732     5A    -11.268476     6A     -1.395109
       7A     -1.362498     8A     -1.022653     9A     -0.916385
      10A     -0.852109    11A     -0.694358    12A     -0.687523
      13A     -0.670996    14A     -0.624962    15A     -0.609328
      16A     -0.578008    17A     -0.546982    18A     -0.498591
      19A     -0.471486    20A     -0.439751    21A     -0.428061

  @DF-RHF Final Energy:  -267.94646632168156

   => Energetics <=

    Nuclear Repulsion Energy =            190.4062714867504553
    One-Electron Energy =                -743.2084523203598110
    Two-Electron Energy =                 284.8557145119277152
    DFT Exchange-Correlation Energy =       0.0000000000000000
    Empirical Dispersion Energy =           0.0000000000000000
    PCM Polarization Energy =               0.0000000000000000
    EFP Energy =                            0.0000000000000000
    Total Energy =                       -267.9464663216816120
    Molecular point group: c1
  Basis Set: 6-31G*
  Basis Set:

  -Total Gradient:
     Atom            X                  Y                   Z
    ------   -----------------  -----------------  -----------------
       1        0.000121241049    -0.000295538811    -0.001392062779
       2       -0.000018891163     0.000123015058     0.001597486261
       3       -0.000674085962     0.001114553509     0.000373175545
       4       -0.000013565955    -0.000014155401    -0.000019103375
       5        0.000586781971    -0.000929065768    -0.000560280557
       6       -0.000006364613    -0.000003803743    -0.000004987242
       7        0.000016142533     0.000012239544     0.000000482311
       8        0.000001044910    -0.000010481892     0.000001470977
       9        0.000004730692     0.000009143017    -0.000005894084
      10       -0.000018763569    -0.000008015864     0.000015375587
      11       -0.000000214182     0.000001769283    -0.000003985784
      12       -0.000007871106     0.000003910368    -0.000002487289
      13        0.000009815394    -0.000003569301     0.000000810430

  **** Optimization is complete! (in 5 steps) ****
    Final optimized geometry and variables:
    Molecular point group: c1

    Geometry (in Angstrom), charge = 0, multiplicity = 1:

    H           -2.169787787410    -1.183376896891     0.247167821587
    O           -2.363342868017    -0.280635719032     0.041560124640
    C           -1.187262554930     0.487105591296    -0.017363988231
    C            0.063363695125    -0.373622979766     0.024095620572
    H           -1.191578929680     1.050081678671    -0.942263169921
    H           -1.165069466994     1.189491077507     0.808152436172
    O            1.168393403483     0.467019129652    -0.042523423807
    H            0.057666849778    -1.073933300940    -0.812104558156
    H            0.081602192776    -0.959874684613     0.945174801931
    C            2.396858106170    -0.190427229379    -0.021827057364
    H            2.499067354581    -0.866756054825    -0.867946438918
    H            3.169627873993     0.563113084121    -0.078986417496
    H            2.526279400772    -0.760618501806     0.895832421271

  Mulliken Charges: (a.u.)
   Center  Symbol    Alpha    Beta     Spin     Total
       1     H     0.27993  0.27993  0.00000  0.44013
       2     O     4.37874  4.37874  0.00000 -0.75748
       3     C     2.98086  2.98086  0.00000  0.03829
       4     C     3.01597  3.01597  0.00000 -0.03193
       5     H     0.41487  0.41487  0.00000  0.17027
       6     H     0.41803  0.41803  0.00000  0.16395
       7     O     4.30485  4.30485  0.00000 -0.60969
       8     H     0.42824  0.42824  0.00000  0.14351
       9     H     0.43259  0.43259  0.00000  0.13483
      10     C     3.08156  3.08156  0.00000 -0.16313
      11     H     0.42759  0.42759  0.00000  0.14482
      12     H     0.40885  0.40885  0.00000  0.18230
      13     H     0.42793  0.42793  0.00000  0.14413

   Total alpha = 21.00000, Total beta = 21.00000, Total charge = -0.00000
