                              Psi4 1.0.54 Driver

  ==> Input File <==

--------------------------------------------------------------------------
set {
	reference rhf
	basis cc-pvtz
}

set_num_threads( 4 )
memory 2 gb

molecule MOL {
0 1

H	 -2.149496	 -2.244167	 0.000000
O	 -2.454378	 -1.354528	 0.000000
C	 -1.430628	 -0.482077	 0.000000
C	 -0.430651	 -0.669675	 -0.943145
C	 -1.349750	 0.567999	 0.889956
H	 -0.511920	 -1.491868	 -1.626097
C	 0.640862	 0.192614	 -0.989284
H	 -2.116252	 0.724800	 1.624690
C	 -0.262115	 1.428867	 0.830067
H	 1.409673	 0.040553	 -1.721502
C	 0.738745	 1.252046	 -0.103986
C	 -0.185555	 2.524892	 1.765039
H	 1.571495	 1.924631	 -0.137632
N	 -0.128849	 3.380900	 2.497650

	symmetry c1
}
set optking {
	frozen_dihedral = ("
		5 3 2 1
	")
}

ee,wfn = optimize('scf', return_wfn=True)
oeprop( wfn, 'DIPOLE', 'QUADRUPOLE', 'MULLIKEN_CHARGES')
f=open( 'psi4out.xyz', 'w' )
f.write( "14  " )
f.write( str(ee) + "\n" )
f.write( MOL.save_string_xyz() )
f.close()
--------------------------------------------------------------------------

    Molecular point group: c1
  Charge       = 0
  Multiplicity = 1
  Basis Set: CC-PVTZ
  Basis Set:
  @DF-RHF Final Energy:  -397.42845566779840
    Total Energy =                       -397.4284556677981755
    Molecular point group: c1
  Basis Set: CC-PVTZ
  Basis Set:
  Basis Set: CC-PVTZ
  Basis Set:
  @DF-RHF Final Energy:  -397.42998192786371
    Total Energy =                       -397.4299819278633095
  Basis Set: CC-PVTZ
  Basis Set:
  Basis Set: CC-PVTZ
  Basis Set:
  @DF-RHF Final Energy:  -397.43009414444504
    Total Energy =                       -397.4300941444450928
  Basis Set: CC-PVTZ
  Basis Set:
  Basis Set: CC-PVTZ
  Basis Set:
  @DF-RHF Final Energy:  -397.43011096360630
    Total Energy =                       -397.4301109636065803
  Basis Set: CC-PVTZ
  Basis Set:
  Basis Set: CC-PVTZ
  Basis Set:
  @DF-RHF Final Energy:  -397.43011478058128
    Total Energy =                       -397.4301147805813343
  Basis Set: CC-PVTZ
  Basis Set:
  Charge       = 0
  Multiplicity = 1
  Basis Set: CC-PVTZ
  Basis Set:

    Orbital Energies (a.u.)
    -----------------------

    Doubly Occupied:

       1A    -20.598251     2A    -15.564006     3A    -11.319724
       4A    -11.291223     5A    -11.267452     6A    -11.261497
       7A    -11.259185     8A    -11.258715     9A    -11.257284
      10A     -1.428476    11A     -1.237043    12A     -1.187200
      13A     -1.066448    14A     -1.043298    15A     -0.899018
      16A     -0.862407    17A     -0.793441    18A     -0.715598
      19A     -0.693805    20A     -0.685463    21A     -0.637389
      22A     -0.624292    23A     -0.575257    24A     -0.566431
      25A     -0.550894    26A     -0.548013    27A     -0.514868
      28A     -0.482192    29A     -0.477758    30A     -0.367018
      31A     -0.350380

  @DF-RHF Final Energy:  -397.43011512871874

   => Energetics <=

    Nuclear Repulsion Energy =            380.1482069673127171
    One-Electron Energy =               -1292.3885907651822436
    Two-Electron Energy =                 514.8102686691511281
    DFT Exchange-Correlation Energy =       0.0000000000000000
    Empirical Dispersion Energy =           0.0000000000000000
    PCM Polarization Energy =               0.0000000000000000
    EFP Energy =                            0.0000000000000000
    Total Energy =                       -397.4301151287183984
    Molecular point group: c1
  Basis Set: CC-PVTZ
  Basis Set:

  -Total Gradient:
     Atom            X                  Y                   Z
    ------   -----------------  -----------------  -----------------
       1        0.000072702650     0.000077224133     0.002358750779
       2        0.000286395262    -0.000599721605    -0.002416544904
       3       -0.001201771028     0.001540889000    -0.001029025153
       4       -0.000005657325    -0.000039739299    -0.000023383259
       5        0.000859724975    -0.000982727761     0.001115125629
       6        0.000005788385     0.000005308464     0.000008092812
       7       -0.000003342280     0.000008165401    -0.000030237648
       8       -0.000005734733    -0.000011724550    -0.000000748088
       9       -0.000032886115     0.000023677821    -0.000010759738
      10        0.000012681090     0.000008226619     0.000004496930
      11       -0.000009422168    -0.000016699074     0.000036460715
      12        0.000041662633     0.000006983400    -0.000020195079
      13        0.000007248157    -0.000008274301    -0.000006751144
      14       -0.000027389507    -0.000011588253     0.000014718144

  **** Optimization is complete! (in 6 steps) ****
    Final optimized geometry and variables:
    Molecular point group: c1

    Geometry (in Angstrom), charge = 0, multiplicity = 1:

    H           -1.631192935652    -2.915039643334    -0.362196791620
    O           -1.895826485325    -2.012357814820    -0.382208862164
    C           -0.819729532331    -1.188891719809    -0.438029216413
    C            0.179941138523    -1.364007765194    -1.378088247232
    C           -0.749972091170    -0.143774899648     0.459858517246
    H            0.110559752232    -2.173839942830    -2.079363115947
    C            1.251495400644    -0.493375067797    -1.418099542298
    H           -1.526598535277    -0.017406047034     1.186586017238
    C            0.322155800456     0.730574499771     0.400708071591
    H            2.023676864730    -0.635560548179    -2.148643142560
    C            1.331065358169     0.561777520422    -0.533151621546
    C            0.392304903091     1.826453279819     1.336322375228
    H            2.156380368015     1.244088229234    -0.562968979785
    N            0.449527091374     2.683366116669     2.067887289875

  Mulliken Charges: (a.u.)
   Center  Symbol    Alpha    Beta     Spin     Total
       1     H     0.38364  0.38364  0.00000  0.23273
       2     O     4.18020  4.18020  0.00000 -0.36041
       3     C     2.85640  2.85640  0.00000  0.28719
       4     C     3.11925  3.11925  0.00000 -0.23849
       5     C     3.12117  3.12117  0.00000 -0.24235
       6     H     0.41884  0.41884  0.00000  0.16231
       7     C     3.05919  3.05919  0.00000 -0.11837
       8     H     0.40717  0.40717  0.00000  0.18566
       9     C     2.92631  2.92631  0.00000  0.14738
      10     H     0.41649  0.41649  0.00000  0.16703
      11     C     3.09891  3.09891  0.00000 -0.19782
      12     C     3.02399  3.02399  0.00000 -0.04799
      13     H     0.41396  0.41396  0.00000  0.17208
      14     N     3.57449  3.57449  0.00000 -0.14897

   Total alpha = 31.00000, Total beta = 31.00000, Total charge =  0.00000

*** Psi4 exiting successfully. Buy a developer a beer!
