  ==> Input File <==

--------------------------------------------------------------------------
set {
	reference rhf
	basis cc-pvtz
}

set_num_threads( 4 )
memory 2 gb

molecule MOL {
0 1

H	 -2.605807	 0.927161	 1.081222
C	 -2.011898	 1.753321	 1.465427
O	 -0.652481	 1.516426	 1.312430
H	 -2.256755	 2.645910	 0.908456
H	 -2.275642	 1.909816	 2.509857
C	 -0.186081	 0.394770	 1.987705
C	 1.271316	 0.175759	 1.667747
H	 -0.294720	 0.529866	 3.063770
H	 -0.751688	 -0.489448	 1.701914
O	 1.401606	 -0.295166	 0.366636
H	 1.809755	 1.112579	 1.793777
H	 1.682935	 -0.545919	 2.373242
C	 2.714315	 -0.441627	 -0.061017
H	 2.765292	 -0.641548	 -1.128869
H	 3.305661	 0.447341	 0.150952
H	 3.143725	 -1.278506	 0.470147

	symmetry c1
}
set optking {
	frozen_dihedral = ("
		7 10 13 14
	")
}

ee = optimize('scf')
oeprop('DIPOLE', 'QUADRUPOLE', 'MULLIKEN_CHARGES')
f=open( 'psi4out.xyz', 'w' )
f.write( "16  " )
f.write( str(ee) + "\n" )
f.write( MOL.save_string_xyz() )
f.close()
--------------------------------------------------------------------------

    Molecular point group: c1
  Charge       = 0
  Multiplicity = 1
  Basis Set: CC-PVTZ
  Basis Set:
  @DF-RHF Final Energy:  -307.09661631084566
    Total Energy =                       -307.0966163108458318
    Molecular point group: c1
  Basis Set: CC-PVTZ
  Basis Set:
  Basis Set: CC-PVTZ
  Basis Set:
  @DF-RHF Final Energy:  -307.09748144630964
    Total Energy =                       -307.0974814463095868
  Basis Set: CC-PVTZ
  Basis Set:
  Basis Set: CC-PVTZ
  Basis Set:
  @DF-RHF Final Energy:  -307.09769736898056
    Total Energy =                       -307.0976973689805618
  Basis Set: CC-PVTZ
  Basis Set:
  Charge       = 0
  Multiplicity = 1
  Basis Set: CC-PVTZ
  Basis Set:

    Orbital Energies (a.u.)
    -----------------------

    Doubly Occupied:

       1A    -20.547813     2A    -20.547637     3A    -11.267587
       4A    -11.266903     5A    -11.261612     6A    -11.261567
       7A     -1.391707     8A     -1.374465     9A     -1.032122
      10A     -0.937252    11A     -0.892221    12A     -0.824429
      13A     -0.686390    14A     -0.682782    15A     -0.659471
      16A     -0.638485    17A     -0.631932    18A     -0.598616
      19A     -0.551410    20A     -0.535742    21A     -0.509883
      22A     -0.479560    23A     -0.464804    24A     -0.423340
      25A     -0.413549

  @DF-RHF Final Energy:  -307.09769821134779

   => Energetics <=

    Nuclear Repulsion Energy =            258.9049366696082757
    One-Electron Energy =                -932.2427160565515578
    Two-Electron Energy =                 366.2400811755957761
    DFT Exchange-Correlation Energy =       0.0000000000000000
    Empirical Dispersion Energy =           0.0000000000000000
    PCM Polarization Energy =               0.0000000000000000
    EFP Energy =                            0.0000000000000000
    Total Energy =                       -307.0976982113475628
    Molecular point group: c1
  Basis Set: CC-PVTZ
  Basis Set:

  -Total Gradient:
     Atom            X                  Y                   Z
    ------   -----------------  -----------------  -----------------
       1        0.000001540802    -0.000000260332    -0.000001146538
       2        0.000002093109    -0.000002677047     0.000005570483
       3        0.000004572334     0.000027007510     0.000009312416
       4        0.000004087511    -0.000001306846     0.000000870571
       5       -0.000005458423     0.000002544833     0.000001399328
       6       -0.000011023504    -0.000074795016    -0.000124256499
       7        0.000138188085     0.001173555447    -0.000340679483
       8        0.000053781443    -0.000004643250    -0.000028558551
       9       -0.000032596174    -0.000023384517     0.000012790968
      10       -0.000051347795    -0.001264084267     0.000462363771
      11        0.000019950225     0.000014452788     0.000010779487
      12       -0.000012890976    -0.000012319762    -0.000035697170
      13       -0.000048762605    -0.001244418543     0.000234240554
      14        0.000011309884     0.001398112968    -0.000234610606
      15       -0.000030877017     0.000015767329     0.000015438885
      16       -0.000042566899    -0.000003551294     0.000012182383

  **** Optimization is complete! (in 4 steps) ****
    Final optimized geometry and variables:
    Molecular point group: c1

    Geometry (in Angstrom), charge = 0, multiplicity = 1:

    H           -3.026767218744     0.411844536213    -0.047324062823
    C           -2.433416997024     1.236416722148     0.341108810239
    O           -1.073675547483     0.997922218126     0.193576918666
    H           -2.674570201855     2.130451202097    -0.215145959313
    H           -2.701524025554     1.391223403268     1.384692266816
    C           -0.611874469570    -0.125912618025     0.868344495532
    C            0.846963128900    -0.345435806232     0.555350002531
    H           -0.725259104880     0.006904111085     1.944198135997
    H           -1.177215754187    -1.008796509616     0.577997831709
    O            0.982694744545    -0.810526034601    -0.747180841734
    H            1.386245251805     0.589825606858     0.686993191455
    H            1.253066108508    -1.070111672685     1.261277129672
    C            2.296149235397    -0.966907864768    -1.169874994621
    H            2.281323807642    -1.156498564153    -2.233300200146
    H            2.880498600185    -0.067015392267    -0.991944122735
    H            2.783397232220    -1.798670999015    -0.665057721155

  Mulliken Charges: (a.u.)
   Center  Symbol    Alpha    Beta     Spin     Total
       1     H     0.47020  0.47020  0.00000  0.05960
       2     C     3.03200  3.03200  0.00000 -0.06401
       3     O     4.17040  4.17040  0.00000 -0.34080
       4     H     0.44635  0.44635  0.00000  0.10730
       5     H     0.47369  0.47369  0.00000  0.05261
       6     C     2.96074  2.96074  0.00000  0.07852
       7     C     2.96052  2.96052  0.00000  0.07896
       8     H     0.47618  0.47618  0.00000  0.04764
       9     H     0.47066  0.47066  0.00000  0.05867
      10     O     4.17067  4.17067  0.00000 -0.34133
      11     H     0.46971  0.46971  0.00000  0.06058
      12     H     0.47696  0.47696  0.00000  0.04609
      13     C     3.03162  3.03162  0.00000 -0.06324
      14     H     0.44647  0.44647  0.00000  0.10706
      15     H     0.47258  0.47258  0.00000  0.05484
      16     H     0.47125  0.47125  0.00000  0.05750

   Total alpha = 25.00000, Total beta = 25.00000, Total charge = -0.00000
