  ==> Input File <==

--------------------------------------------------------------------------
set {
	reference rhf
	basis 6-31G*
}

set_num_threads( 4 )
memory 2 gb

molecule MOL {
0 1

O	 0.625848	 1.349995	 -0.000749
C	 0.486307	 0.169203	 0.000779
C	 1.608116	 -0.841643	 0.000302
O	 -0.698257	 -0.426125	 0.001050
C	 2.990107	 -0.200498	 -0.000684
H	 1.468623	 -1.481519	 -0.865924
H	 1.469683	 -1.481289	 0.866878
H	 3.129736	 0.423364	 -0.875135
H	 3.757882	 -0.966877	 -0.001197
H	 3.130964	 0.423383	 0.873533
C	 -1.569902	 -0.157223	 -1.092260
C	 -2.841559	 -0.946463	 -0.863567
H	 -1.080468	 -0.445673	 -2.012496
H	 -1.761848	 0.906146	 -1.136922
H	 -2.631645	 -2.008921	 -0.815842
H	 -3.537278	 -0.770021	 -1.677503
H	 -3.316876	 -0.649732	 0.064486

	symmetry c1
}
set optking {
	frozen_dihedral = ("
		11 4 2 3
	")
}

ee = optimize('scf')
oeprop('DIPOLE', 'QUADRUPOLE', 'MULLIKEN_CHARGES')
f=open( 'psi4out.xyz', 'w' )
f.write( "17  " )
f.write( str(ee) + "\n" )
f.write( MOL.save_string_xyz() )
f.close()
--------------------------------------------------------------------------

    Molecular point group: c1
  Charge       = 0
  Multiplicity = 1
  Basis Set: 6-31G*
  Basis Set:
  @DF-RHF Final Energy:  -344.89744766120691
    Total Energy =                       -344.8974476612069111
    Molecular point group: c1
  Basis Set: 6-31G*
  Basis Set:
  Basis Set: 6-31G*
  Basis Set:
  @DF-RHF Final Energy:  -344.89646694130556
    Total Energy =                       -344.8964669413054480
  Basis Set: 6-31G*
  Basis Set:
  Basis Set: 6-31G*
  Basis Set:
  @DF-RHF Final Energy:  -344.89804323850365
    Total Energy =                       -344.8980432385034760
  Basis Set: 6-31G*
  Basis Set:
  Basis Set: 6-31G*
  Basis Set:
  @DF-RHF Final Energy:  -344.89824958489839
    Total Energy =                       -344.8982495848983945
  Basis Set: 6-31G*
  Basis Set:
  Basis Set: 6-31G*
  Basis Set:
  @DF-RHF Final Energy:  -344.89826133419723
    Total Energy =                       -344.8982613341971728
  Basis Set: 6-31G*
  Basis Set:
  Basis Set: 6-31G*
  Basis Set:
  @DF-RHF Final Energy:  -344.89826282191956
    Total Energy =                       -344.8982628219197295
  Basis Set: 6-31G*
  Basis Set:
  Charge       = 0
  Multiplicity = 1
  Basis Set: 6-31G*
  Basis Set:

    Orbital Energies (a.u.)
    -----------------------

    Doubly Occupied:

       1A    -20.586395     2A    -20.552663     3A    -11.373600
       4A    -11.290923     5A    -11.240077     6A    -11.223350
       7A    -11.217374     8A     -1.459626     9A     -1.364134
      10A     -1.067268    11A     -1.033972    12A     -0.907216
      13A     -0.856317    14A     -0.769663    15A     -0.700121
      16A     -0.681768    17A     -0.659806    18A     -0.632439
      19A     -0.598547    20A     -0.563912    21A     -0.557518
      22A     -0.527592    23A     -0.523112    24A     -0.518095
      25A     -0.503734    26A     -0.492551    27A     -0.450132
      28A     -0.433610

  @DF-RHF Final Energy:  -344.89826305299306

   => Energetics <=

    Nuclear Repulsion Energy =            314.2409041487363197
    One-Electron Energy =               -1092.7073071783752312
    Two-Electron Energy =                 433.5681399766460800
    DFT Exchange-Correlation Energy =       0.0000000000000000
    Empirical Dispersion Energy =           0.0000000000000000
    PCM Polarization Energy =               0.0000000000000000
    EFP Energy =                            0.0000000000000000
    Total Energy =                       -344.8982630529928883
    Molecular point group: c1
  Basis Set: 6-31G*
  Basis Set:

  -Total Gradient:
     Atom            X                  Y                   Z
    ------   -----------------  -----------------  -----------------
       1        0.000089040555    -0.000075732047     0.000171278820
       2        0.001331008908    -0.002311552229     0.006746787964
       3       -0.000161941504    -0.000121112528    -0.005948951027
       4       -0.003892741435     0.007757643951     0.002453412003
       5        0.000045051678    -0.000034417474    -0.000051075194
       6       -0.000005820376     0.000031361398    -0.000045543984
       7        0.000001726648     0.000064803673    -0.000026300254
       8       -0.000013814331    -0.000009795790     0.000004555160
       9        0.000021592829     0.000016939842     0.000008160175
      10        0.000009105892     0.000004074497     0.000022432861
      11        0.002599982819    -0.005322742446    -0.003330272122
      12       -0.000008914357     0.000001938375    -0.000013931206
      13       -0.000004184918     0.000006090999     0.000028464538
      14       -0.000006582093     0.000004388979    -0.000013447477
      15       -0.000001706435    -0.000008118362     0.000000959889
      16       -0.000006566017    -0.000005302850    -0.000003152498
      17        0.000004762139     0.000001532012    -0.000003377651

  **** Optimization is complete! (in 7 steps) ****
    Final optimized geometry and variables:
    Molecular point group: c1

    Geometry (in Angstrom), charge = 0, multiplicity = 1:

    O            0.548533396110     1.485975499788     0.178374080134
    C            0.424890342427     0.311028994646     0.261604830672
    C            1.562422387011    -0.679664159025     0.258940998904
    O           -0.775878319143    -0.293447097260     0.293019235665
    C            2.937077396670    -0.032395685473     0.365905968661
    H            1.464026092970    -1.245137515817    -0.665190075569
    H            1.392329650317    -1.393874683967     1.058520142975
    H            3.105024010872     0.661483948333    -0.448324475772
    H            3.712853138388    -0.790077976052     0.337057850029
    H            3.035625871968     0.519200439207     1.293588447403
    C           -1.658068956950    -0.037846962433    -0.793400285165
    C           -2.952044735882    -0.774236870587    -0.521437441526
    H           -1.195368907043    -0.391988616440    -1.709395096388
    H           -1.820164680610     1.027624050416    -0.881666499290
    H           -2.773960150102    -1.839030533404    -0.425078979014
    H           -3.650069247407    -0.612745373141    -1.336614867584
    H           -3.404202521019    -0.417396181155     0.396467410384

  Mulliken Charges: (a.u.)
   Center  Symbol    Alpha    Beta     Spin     Total
       1     O     4.26600  4.26600  0.00000 -0.53200
       2     C     2.60694  2.60694  0.00000  0.78613
       3     C     3.20725  3.20725  0.00000 -0.41449
       4     O     4.32239  4.32239  0.00000 -0.64478
       5     C     3.24018  3.24018  0.00000 -0.48037
       6     H     0.40472  0.40472  0.00000  0.19055
       7     H     0.39970  0.39970  0.00000  0.20060
       8     H     0.40856  0.40856  0.00000  0.18287
       9     H     0.41782  0.41782  0.00000  0.16436
      10     H     0.41073  0.41073  0.00000  0.17854
      11     C     3.00317  3.00317  0.00000 -0.00634
      12     C     3.24767  3.24767  0.00000 -0.49534
      13     H     0.42271  0.42271  0.00000  0.15457
      14     H     0.40494  0.40494  0.00000  0.19012
      15     H     0.41193  0.41193  0.00000  0.17614
      16     H     0.41708  0.41708  0.00000  0.16583
      17     H     0.40821  0.40821  0.00000  0.18359

   Total alpha = 28.00000, Total beta = 28.00000, Total charge = -0.00000
