                              Psi4 1.0.54 Driver

  ==> Input File <==

--------------------------------------------------------------------------
set {
	reference rhf
	basis cc-pvtz
}

set_num_threads( 4 )
memory 2 gb

molecule MOL {
0 1

H	 -2.782897	 -0.688323	 -1.117331
O	 -2.321472	 -0.864941	 -0.318626
C	 -2.021813	 0.336996	 0.342658
C	 -0.669613	 0.837286	 -0.127252
H	 -2.780861	 1.084746	 0.127159
H	 -2.006390	 0.184138	 1.420053
C	 0.490865	 -0.082543	 0.241244
H	 -0.708709	 0.967192	 -1.204587
H	 -0.507562	 1.822272	 0.303070
C	 1.839800	 0.429565	 -0.255472
H	 0.305636	 -1.070211	 -0.165276
H	 0.527397	 -0.195943	 1.322876
C	 3.001144	 -0.485193	 0.119072
H	 1.804373	 0.541073	 -1.335756
H	 2.020437	 1.423114	 0.146921
H	 2.866892	 -1.477297	 -0.298806
H	 3.943543	 -0.095749	 -0.249061
H	 3.085064	 -0.590459	 1.195790

	symmetry c1
}
set optking {
	frozen_dihedral = ("
		1 2 3 4
	")
}

ee,wfn = optimize('scf', return_wfn=True)
oeprop( wfn, 'DIPOLE', 'QUADRUPOLE', 'MULLIKEN_CHARGES')
f=open( 'psi4out.xyz', 'w' )
f.write( "18  " )
f.write( str(ee) + "\n" )
f.write( MOL.save_string_xyz() )
f.close()
--------------------------------------------------------------------------

    Molecular point group: c1
  Charge       = 0
  Multiplicity = 1
  Basis Set: CC-PVTZ
  Basis Set:
  @DF-RHF Final Energy:  -271.28464942346523
    Total Energy =                       -271.2846494234650550
    Molecular point group: c1
  Basis Set: CC-PVTZ
  Basis Set:
  Basis Set: CC-PVTZ
  Basis Set:
  @DF-RHF Final Energy:  -271.00624482465878
    Total Energy =                       -271.0062448246588929
  Basis Set: CC-PVTZ
  Basis Set:
  Basis Set: CC-PVTZ
  Basis Set:
  @DF-RHF Final Energy:  -271.14340248266899
    Total Energy =                       -271.1434024826688756
  Basis Set: CC-PVTZ
  Basis Set:
  Basis Set: CC-PVTZ
  Basis Set:
  @DF-RHF Final Energy:  -271.21794553756058
    Total Energy =                       -271.2179455375604675
  Basis Set: CC-PVTZ
  Basis Set:
  @DF-RHF Final Energy:  -271.28393361036865
    Total Energy =                       -271.2839336103686492
  Basis Set: CC-PVTZ
  Basis Set:
  @DF-RHF Final Energy:  -271.28577498033360
    Total Energy =                       -271.2857749803334286
  Basis Set: CC-PVTZ
  Basis Set:
  Basis Set: CC-PVTZ
  Basis Set:
  @DF-RHF Final Energy:  -271.28592950214602
    Total Energy =                       -271.2859295021460184
  Basis Set: CC-PVTZ
  Basis Set:
  Basis Set: CC-PVTZ
  Basis Set:
  @DF-RHF Final Energy:  -271.28594031161134
    Total Energy =                       -271.2859403116115118
  Basis Set: CC-PVTZ
  Basis Set:
  Charge       = 0
  Multiplicity = 1
  Basis Set: CC-PVTZ
  Basis Set:

    Orbital Energies (a.u.)
    -----------------------

    Doubly Occupied:

       1A    -20.546122     2A    -11.266191     3A    -11.212257
       4A    -11.210952     5A    -11.206670     6A    -11.203987
       7A     -1.363689     8A     -1.077831     9A     -1.010450
      10A     -0.915895    11A     -0.825671    12A     -0.790361
      13A     -0.692632    14A     -0.651512    15A     -0.612282
      16A     -0.602308    17A     -0.575986    18A     -0.551864
      19A     -0.533130    20A     -0.499875    21A     -0.490720
      22A     -0.472330    23A     -0.461082    24A     -0.454645
      25A     -0.426254

  @DF-RHF Final Energy:  -271.28594057634911

   => Energetics <=

    Nuclear Repulsion Energy =            248.9522635351231088
    One-Electron Energy =                -861.1670181404263076
    Two-Electron Energy =                 340.9288140289539797
    DFT Exchange-Correlation Energy =       0.0000000000000000
    Empirical Dispersion Energy =           0.0000000000000000
    PCM Polarization Energy =               0.0000000000000000
    EFP Energy =                            0.0000000000000000
    Total Energy =                       -271.2859405763491623
    Molecular point group: c1
  Basis Set: CC-PVTZ
  Basis Set:

  -Total Gradient:
     Atom            X                  Y                   Z
    ------   -----------------  -----------------  -----------------
       1       -0.000839925032     0.000768487142     0.000827328003
       2        0.001260705866    -0.001081665180    -0.000708442339
       3       -0.001002960981     0.000516734789    -0.000846375516
       4        0.000525063005    -0.000224570786     0.000734078031
       5        0.000016420448     0.000016327160     0.000001700569
       6        0.000023176199    -0.000005653952    -0.000004217517
       7        0.000016524984     0.000041817976    -0.000031377673
       8       -0.000020623303    -0.000005986342     0.000001600099
       9        0.000028176508     0.000029125744     0.000008457397
      10       -0.000023400814    -0.000043087622     0.000021750362
      11       -0.000021130021    -0.000034335189     0.000008305491
      12        0.000007946631     0.000017968875     0.000018179413
      13        0.000036290070     0.000001441229    -0.000050106164
      14       -0.000011328329    -0.000010390015    -0.000027549540
      15        0.000020046317     0.000023733389     0.000010075707
      16       -0.000010677262    -0.000018072295    -0.000006435327
      17       -0.000017546751    -0.000006576639     0.000023521464
      18        0.000013242461     0.000014701718     0.000019507541

  **** Optimization is complete! (in 9 steps) ****
    Final optimized geometry and variables:
    Molecular point group: c1

    Geometry (in Angstrom), charge = 0, multiplicity = 1:

    H           -3.104864129456     0.050148031742     0.163890967756
    O           -2.409410099441     0.079366289180     0.793726572775
    C           -1.594163179585     1.200903727667     0.563480489089
    C           -0.445653664538     0.906848181134    -0.389216054219
    H           -2.186116545101     2.030343184452     0.187698929484
    H           -1.202610701601     1.499544081505     1.528759843870
    C            0.518291718763    -0.157315911659     0.126029192351
    H           -0.853713664739     0.597518572904    -1.349142783689
    H            0.092861675652     1.835079986548    -0.567463208549
    C            1.646339449495    -0.471437266082    -0.852435669976
    H           -0.035913796887    -1.063247234184     0.344920783023
    H            0.944968219764     0.176507719497     1.069455750136
    C            2.612179208037    -1.530319105995    -0.331223992006
    H            1.220613901657    -0.806426861070    -1.794623502827
    H            2.196811370456     0.439172220154    -1.074620995924
    H            2.097014676003    -2.463833061677    -0.130997119830
    H            3.398475859762    -1.733506715267    -1.049276835886
    H            3.082646782483    -1.209837616265     0.592469510202

  Mulliken Charges: (a.u.)
   Center  Symbol    Alpha    Beta     Spin     Total
       1     H     0.39417  0.39417  0.00000  0.21166
       2     O     4.20433  4.20433  0.00000 -0.40866
       3     C     2.98107  2.98107  0.00000  0.03787
       4     C     3.08969  3.08969  0.00000 -0.17937
       5     H     0.46049  0.46049  0.00000  0.07901
       6     H     0.46065  0.46065  0.00000  0.07870
       7     C     3.08724  3.08724  0.00000 -0.17447
       8     H     0.46015  0.46015  0.00000  0.07970
       9     H     0.45618  0.45618  0.00000  0.08763
      10     C     3.08301  3.08301  0.00000 -0.16603
      11     H     0.44540  0.44540  0.00000  0.10920
      12     H     0.45692  0.45692  0.00000  0.08616
      13     C     3.14957  3.14957  0.00000 -0.29915
      14     H     0.45531  0.45531  0.00000  0.08938
      15     H     0.45667  0.45667  0.00000  0.08666
      16     H     0.45447  0.45447  0.00000  0.09105
      17     H     0.44934  0.44934  0.00000  0.10132
      18     H     0.45533  0.45533  0.00000  0.08933

   Total alpha = 25.00000, Total beta = 25.00000, Total charge = -0.00000

*** Psi4 exiting successfully. Buy a developer a beer!
