  ==> Input File <==

--------------------------------------------------------------------------
set {
	reference rhf
	basis 6-31G*
}

set_num_threads( 1 )
memory 2 gb

molecule MOL {
0 1

H	 -0.625319	 2.588974	 -2.814241
O	 -1.093470	 1.828570	 -2.499587
C	 -0.605004	 1.462728	 -1.236833
C	 0.753170	 0.792290	 -1.344278
H	 -0.539027	 2.317274	 -0.569183
H	 -1.317483	 0.768760	 -0.813474
O	 1.171513	 0.459272	 -0.058250
H	 1.468265	 1.468302	 -1.817171
H	 0.675261	 -0.092007	 -1.973988
C	 2.397842	 -0.198080	 -0.002151
H	 2.508049	 -0.905315	 -0.822092
H	 3.173794	 0.550865	 -0.078850
H	 2.517602	 -0.735921	 0.936026

	symmetry c1
}
set optking {
	frozen_dihedral = ("
		8 4 3 5,
		1 2 3 5,
		10 7 4 8
	")
}

ee = energy('scf')
oeprop('DIPOLE', 'QUADRUPOLE', 'MULLIKEN_CHARGES')
f=open( 'psi4out.xyz', 'w' )
f.write( "13  " )
f.write( str(ee) + "\n" )
f.write( MOL.save_string_xyz() )
f.close()
--------------------------------------------------------------------------

    Molecular point group: c1

    Geometry (in Angstrom), charge = 0, multiplicity = 1:

       Center              X                  Y                   Z               Mass
    ------------   -----------------  -----------------  -----------------  -----------------
           H         -1.147630293319     1.704259726133    -1.763298456487     1.007825032070
           O         -1.615781293319     0.943855726133    -1.448644456487    15.994914619560
           C         -1.127315293319     0.578013726133    -0.185890456487    12.000000000000
           C          0.230858706681    -0.092424273867    -0.293335456487    12.000000000000
           H         -1.061338293319     1.432559726133     0.481759543513     1.007825032070
           H         -1.839794293319    -0.115954273867     0.237468543513     1.007825032070
           O          0.649201706681    -0.425442273867     0.992692543513    15.994914619560
           H          0.945953706681     0.583587726133    -0.766228456487     1.007825032070
           H          0.152949706681    -0.976721273867    -0.923045456487     1.007825032070
           C          1.875530706681    -1.082794273867     1.048791543513    12.000000000000
           H          1.985737706681    -1.790029273867     0.228850543513     1.007825032070
           H          2.651482706681    -0.333849273867     0.972092543513     1.007825032070
           H          1.995290706681    -1.620635273867     1.986968543513     1.007825032070

  Charge       = 0
  Multiplicity = 1
  Basis Set: 6-31G*
  Basis Set:

    Orbital Energies (a.u.)
    -----------------------

    Doubly Occupied:

       1A    -20.560737     2A    -20.560225     3A    -11.271473
       4A    -11.270235     5A    -11.269017     6A     -1.388356
       7A     -1.365224     8A     -1.018193     9A     -0.913240
      10A     -0.842354    11A     -0.709736    12A     -0.675027
      13A     -0.657867    14A     -0.637915    15A     -0.597138
      16A     -0.570819    17A     -0.544602    18A     -0.489858
      19A     -0.481493    20A     -0.438560    21A     -0.419824

  @DF-RHF Final Energy:  -267.94858816476489

   => Energetics <=

    Nuclear Repulsion Energy =            190.2876628986860510
    One-Electron Energy =                -743.1087369211660416
    Two-Electron Energy =                 284.8724858577153327
    DFT Exchange-Correlation Energy =       0.0000000000000000
    Empirical Dispersion Energy =           0.0000000000000000
    PCM Polarization Energy =               0.0000000000000000
    EFP Energy =                            0.0000000000000000
    Total Energy =                       -267.9485881647646011

  Mulliken Charges: (a.u.)
   Center  Symbol    Alpha    Beta     Spin     Total
       1     H     0.28124  0.28124  0.00000  0.43752
       2     O     4.37086  4.37086  0.00000 -0.74173
       3     C     3.00471  3.00471  0.00000 -0.00943
       4     C     2.99681  2.99681  0.00000  0.00639
       5     H     0.42223  0.42223  0.00000  0.15554
       6     H     0.40834  0.40834  0.00000  0.18332
       7     O     4.30871  4.30871  0.00000 -0.61742
       8     H     0.43807  0.43807  0.00000  0.12386
       9     H     0.42251  0.42251  0.00000  0.15498
      10     C     3.07944  3.07944  0.00000 -0.15887
      11     H     0.42899  0.42899  0.00000  0.14203
      12     H     0.42615  0.42615  0.00000  0.14770
      13     H     0.41194  0.41194  0.00000  0.17611

   Total alpha = 21.00000, Total beta = 21.00000, Total charge =  0.00000
