  ==> Input File <==

--------------------------------------------------------------------------
set {
	reference rhf
	basis cc-pvtz
}

set_num_threads( 4 )
memory 2 gb

molecule MOL {
0 1

H	 2.973455	 -1.627713	 3.955608
C	 2.539531	 -1.765657	 2.972354
C	 1.277024	 -0.926911	 2.807328
H	 3.290656	 -1.491000	 2.239269
H	 2.330221	 -2.823086	 2.849680
C	 0.633291	 -1.091240	 1.438543
H	 1.503745	 0.122334	 2.960452
H	 0.558542	 -1.203199	 3.575460
N	 -0.547603	 -0.265744	 1.305202
H	 1.341240	 -0.792108	 0.671407
H	 0.418744	 -2.149788	 1.263818
C	 -1.215959	 -0.382435	 0.027143
H	 -1.189389	 -0.474215	 2.041388
C	 -2.451944	 0.502410	 -0.038737
H	 -0.517017	 -0.079846	 -0.746870
H	 -1.497411	 -1.415333	 -0.198655
C	 -3.752217	 -0.292550	 0.005776
H	 -2.407325	 1.093801	 -0.946480
H	 -2.431979	 1.206234	 0.790023
H	 -3.817783	 -0.982946	 -0.828547
H	 -4.612613	 0.364348	 -0.042306
H	 -3.830160	 -0.871666	 0.919868

	symmetry c1
}
set optking {
	frozen_dihedral = ("
		15 12 14 18
	")
}

ee = optimize('scf')
oeprop('DIPOLE', 'QUADRUPOLE', 'MULLIKEN_CHARGES')
f=open( 'psi4out.xyz', 'w' )
f.write( "22  " )
f.write( str(ee) + "\n" )
f.write( MOL.save_string_xyz() )
f.close()
--------------------------------------------------------------------------

    Molecular point group: c1
  Charge       = 0
  Multiplicity = 1
  Basis Set: CC-PVTZ
  Basis Set:
  @DF-RHF Final Energy:  -290.48414638527680
    Total Energy =                       -290.4841463852770289
    Molecular point group: c1
  Basis Set: CC-PVTZ
  Basis Set:
  Basis Set: CC-PVTZ
  Basis Set:
  @DF-RHF Final Energy:  -290.48457135374753
    Total Energy =                       -290.4845713537472989
  Basis Set: CC-PVTZ
  Basis Set:
  Basis Set: CC-PVTZ
  Basis Set:
  @DF-RHF Final Energy:  -290.48466280745134
    Total Energy =                       -290.4846628074508885
  Basis Set: CC-PVTZ
  Basis Set:
  Basis Set: CC-PVTZ
  Basis Set:
  @DF-RHF Final Energy:  -290.48466459422343
    Total Energy =                       -290.4846645942232044
  Basis Set: CC-PVTZ
  Basis Set:
  Charge       = 0
  Multiplicity = 1
  Basis Set: CC-PVTZ
  Basis Set:

    Orbital Energies (a.u.)
    -----------------------

    Doubly Occupied:

       1A    -15.528892     2A    -11.236270     3A    -11.236028
       4A    -11.211870     5A    -11.211549     6A    -11.208694
       7A    -11.207574     8A     -1.207228     9A     -1.058943
      10A     -1.025641    11A     -0.928724    12A     -0.873217
      13A     -0.809792    14A     -0.794225    15A     -0.667016
      16A     -0.633831    17A     -0.619730    18A     -0.595005
      19A     -0.576269    20A     -0.565908    21A     -0.548947
      22A     -0.527593    23A     -0.506309    24A     -0.488988
      25A     -0.479969    26A     -0.470706    27A     -0.466269
      28A     -0.451880    29A     -0.360635

  @DF-RHF Final Energy:  -290.48466480174528

   => Energetics <=

    Nuclear Repulsion Energy =            315.2549282544961784
    One-Electron Energy =               -1016.4837867063636168
    Two-Electron Energy =                 410.7441936501220994
    DFT Exchange-Correlation Energy =       0.0000000000000000
    Empirical Dispersion Energy =           0.0000000000000000
    PCM Polarization Energy =               0.0000000000000000
    EFP Energy =                            0.0000000000000000
    Total Energy =                       -290.4846648017452821
    Molecular point group: c1
  Basis Set: CC-PVTZ
  Basis Set:

  -Total Gradient:
     Atom            X                  Y                   Z
    ------   -----------------  -----------------  -----------------
       1       -0.000003264073     0.000001485170    -0.000000850477
       2       -0.000001385788     0.000001585332    -0.000003627572
       3        0.000004455157    -0.000004525671     0.000005852342
       4        0.000000911585     0.000000387009     0.000000063033
       5       -0.000000348913    -0.000001075476    -0.000000063553
       6        0.000026385049    -0.000016316388     0.000009737687
       7        0.000001880043     0.000001844813    -0.000001020659
       8       -0.000001109175    -0.000001311150     0.000002379836
       9       -0.000005417209     0.000010324273    -0.000019433382
      10       -0.000000680399     0.000004077355     0.000000678929
      11       -0.000003555346     0.000003757737     0.000000843657
      12        0.001748716320     0.002893322626     0.002615723287
      13       -0.000005069294    -0.000004232897    -0.000004494669
      14       -0.001967930484    -0.003136607463    -0.002204980991
      15       -0.001178147006    -0.001907701217    -0.001833652857
      16        0.000005307095    -0.000006866748     0.000011287669
      17        0.000015827961     0.000006627319     0.000007315001
      18        0.001354474807     0.002131665721     0.001406100972
      19       -0.000006839919     0.000006282542     0.000011296659
      20        0.000010690858     0.000011205356     0.000001527572
      21        0.000001131591     0.000002890659     0.000004648087
      22        0.000003967141     0.000003181098    -0.000009330572

  **** Optimization is complete! (in 5 steps) ****
    Final optimized geometry and variables:
    Molecular point group: c1

    Geometry (in Angstrom), charge = 0, multiplicity = 1:

    H            3.463382347083    -1.032433323093     2.747272612917
    C            3.030632665744    -1.168608918846     1.763237512328
    C            1.782384148130    -0.310559482542     1.589522825434
    H            3.788492896171    -0.909909166457     1.031281292022
    H            2.804633199485    -2.223148473686     1.645375047718
    C            1.141502399707    -0.470828027576     0.218874656306
    H            2.025396680154     0.735541782928     1.738856549119
    H            1.056559041322    -0.571959055937     2.355980862739
    N           -0.024907328991     0.373371683989     0.076685149828
    H            1.856948635582    -0.186343671652    -0.547046395483
    H            0.910501228345    -1.526390140353     0.047456281738
    C           -0.684277619578     0.261601988744    -1.208591185512
    H           -0.675952457501     0.172386102955     0.807272360855
    C           -1.961878584909     1.112417906183    -1.276797896862
    H            0.012679180579     0.572107180457    -1.978723078031
    H           -0.932432046505    -0.777338713671    -1.444145717096
    C           -3.251827936674     0.302400680032    -1.195643734360
    H           -1.956748369393     1.709158584986    -2.182001381921
    H           -1.930077215485     1.828492845890    -0.462842284915
    H           -3.341877933333    -0.378193891246    -2.035252360366
    H           -4.121598680787     0.949340643028    -1.198845589427
    H           -3.286988774400    -0.291646836135    -0.287547399108

  Mulliken Charges: (a.u.)
   Center  Symbol    Alpha    Beta     Spin     Total
       1     H     0.44771  0.44771  0.00000  0.10457
       2     C     3.15348  3.15348  0.00000 -0.30696
       3     C     3.08012  3.08012  0.00000 -0.16023
       4     H     0.45471  0.45471  0.00000  0.09058
       5     H     0.45614  0.45614  0.00000  0.08772
       6     C     3.02154  3.02154  0.00000 -0.04308
       7     H     0.44909  0.44909  0.00000  0.10182
       8     H     0.45982  0.45982  0.00000  0.08037
       9     N     3.63577  3.63577  0.00000 -0.27153
      10     H     0.45910  0.45910  0.00000  0.08181
      11     H     0.47429  0.47429  0.00000  0.05143
      12     C     3.03258  3.03258  0.00000 -0.06515
      13     H     0.44546  0.44546  0.00000  0.10907
      14     C     3.09560  3.09560  0.00000 -0.19120
      15     H     0.45480  0.45480  0.00000  0.09039
      16     H     0.47479  0.47479  0.00000  0.05042
      17     C     3.14577  3.14577  0.00000 -0.29154
      18     H     0.44852  0.44852  0.00000  0.10296
      19     H     0.44952  0.44952  0.00000  0.10096
      20     H     0.45482  0.45482  0.00000  0.09036
      21     H     0.44870  0.44870  0.00000  0.10259
      22     H     0.45768  0.45768  0.00000  0.08464

   Total alpha = 29.00000, Total beta = 29.00000, Total charge = -0.00000
