                              Psi4 1.0.54 Driver

  ==> Input File <==

--------------------------------------------------------------------------
set {
	reference rhf
	basis cc-pvtz
}

set_num_threads( 4 )
memory 2 gb

molecule MOL {
0 1

O	 -2.071633	 -1.227563	 -0.223463
C	 -1.652164	 -0.152425	 0.058082
C	 -0.327811	 0.006324	 0.778296
C	 -2.402515	 1.108629	 -0.298924
C	 0.843231	 -0.001575	 -0.211665
H	 -0.319484	 0.928173	 1.350354
H	 -0.227804	 -0.823091	 1.466705
C	 2.197693	 0.138030	 0.476937
H	 0.722944	 0.805202	 -0.930230
H	 0.813976	 -0.926978	 -0.776588
C	 2.776247	 1.544676	 0.368381
H	 2.098932	 -0.132191	 1.524672
H	 2.893519	 -0.573394	 0.041917
H	 2.118312	 2.275612	 0.826516
H	 2.916095	 1.830758	 -0.668425
H	 3.738418	 1.610677	 0.862621
H	 -3.240910	 0.874416	 -0.936711
H	 -1.747554	 1.818823	 -0.790984
H	 -2.760419	 1.579708	 0.610998

	symmetry c1
}
set optking {
	frozen_dihedral = ("
		11 8 5 9
	")
}

ee,wfn = optimize('scf', return_wfn=True)
oeprop( wfn, 'DIPOLE', 'QUADRUPOLE', 'MULLIKEN_CHARGES')
f=open( 'psi4out.xyz', 'w' )
f.write( "19  " )
f.write( str(ee) + "\n" )
f.write( MOL.save_string_xyz() )
f.close()
--------------------------------------------------------------------------

    Molecular point group: c1
  Charge       = 0
  Multiplicity = 1
  Basis Set: CC-PVTZ
  Basis Set:
  @DF-RHF Final Energy:  -309.17236363720605
    Total Energy =                       -309.1723636372061037
    Molecular point group: c1
  Basis Set: CC-PVTZ
  Basis Set:
  Basis Set: CC-PVTZ
  Basis Set:
  @DF-RHF Final Energy:  -309.17257675080583
    Total Energy =                       -309.1725767508058311
  Basis Set: CC-PVTZ
  Basis Set:
  Basis Set: CC-PVTZ
  Basis Set:
  @DF-RHF Final Energy:  -309.17266262162315
    Total Energy =                       -309.1726626216229761
  Basis Set: CC-PVTZ
  Basis Set:
  Basis Set: CC-PVTZ
  Basis Set:
  @DF-RHF Final Energy:  -309.17261045789752
    Total Energy =                       -309.1726104578973491
  Basis Set: CC-PVTZ
  Basis Set:
  Basis Set: CC-PVTZ
  Basis Set:
  @DF-RHF Final Energy:  -309.17272575648610
    Total Energy =                       -309.1727257564862157
  Basis Set: CC-PVTZ
  Basis Set:
  Basis Set: CC-PVTZ
  Basis Set:
  @DF-RHF Final Energy:  -309.17274355838987
    Total Energy =                       -309.1727435583899251
  Basis Set: CC-PVTZ
  Basis Set:
  Charge       = 0
  Multiplicity = 1
  Basis Set: CC-PVTZ
  Basis Set:

    Orbital Energies (a.u.)
    -----------------------

    Doubly Occupied:

       1A    -20.536934     2A    -11.319245     3A    -11.228998
       4A    -11.228088     5A    -11.227031     6A    -11.223249
       7A    -11.215654     8A     -1.396864     9A     -1.091649
      10A     -1.029523    11A     -0.984249    12A     -0.894191
      13A     -0.805900    14A     -0.736418    15A     -0.661669
      16A     -0.648668    17A     -0.619393    18A     -0.614015
      19A     -0.597262    20A     -0.569722    21A     -0.555932
      22A     -0.533128    23A     -0.522188    24A     -0.502769
      25A     -0.483974    26A     -0.471119    27A     -0.468090
      28A     -0.399019

  @DF-RHF Final Energy:  -309.17274417862825

   => Energetics <=

    Nuclear Repulsion Energy =            303.6754570162653408
    One-Electron Energy =               -1020.5665166067245764
    Two-Electron Energy =                 407.7183154118312132
    DFT Exchange-Correlation Energy =       0.0000000000000000
    Empirical Dispersion Energy =           0.0000000000000000
    PCM Polarization Energy =               0.0000000000000000
    EFP Energy =                            0.0000000000000000
    Total Energy =                       -309.1727441786280224
    Molecular point group: c1
  Basis Set: CC-PVTZ
  Basis Set:

  -Total Gradient:
     Atom            X                  Y                   Z
    ------   -----------------  -----------------  -----------------
       1       -0.000114084759    -0.000231546147    -0.000026452728
       2        0.000108042322     0.000153655621    -0.000047300629
       3        0.000018847467     0.000005878586    -0.000007244235
       4       -0.000026014064     0.000032803705     0.000083451386
       5        0.002058152254    -0.002674770132    -0.003680393879
       6        0.000015233300     0.000053207237     0.000038985747
       7       -0.000004522611    -0.000058508142     0.000050146388
       8       -0.001759584927     0.001382687866     0.003433896423
       9       -0.001401012168     0.001985223037     0.002267050342
      10       -0.000000789799    -0.000031889359     0.000001207397
      11        0.001046670626    -0.000676025084    -0.002077095130
      12        0.000020377113    -0.000024672135     0.000036274454
      13        0.000006646193    -0.000026296352    -0.000010776954
      14       -0.000035679978     0.000071029154     0.000007124279
      15        0.000026769860     0.000010799374    -0.000061568360
      16        0.000056334363    -0.000005905968     0.000064113306
      17       -0.000051297275    -0.000018141229    -0.000041109534
      18        0.000026797108     0.000038996141    -0.000021317870
      19        0.000009114975     0.000013473831    -0.000008990405

  **** Optimization is complete! (in 7 steps) ****
    Final optimized geometry and variables:
    Molecular point group: c1

    Geometry (in Angstrom), charge = 0, multiplicity = 1:

    O           -2.032818315792    -1.403956435118    -0.289434364565
    C           -1.571090547056    -0.337661654347    -0.041399241090
    C           -0.232689733243    -0.209416029372     0.658243768805
    C           -2.281062923411     0.940094628692    -0.421631364681
    C            0.926280917954    -0.282205737839    -0.348008458135
    H           -0.184794496201     0.724986195643     1.208257902827
    H           -0.151588438382    -1.025535525209     1.364547373214
    C            2.301333572331    -0.099387953734     0.319110184436
    H            0.783594891704     0.495358460677    -1.092660173501
    H            0.871479660678    -1.233355125531    -0.860998543991
    C            2.872958291327     1.306635318794     0.158575690216
    H            2.234526994866    -0.351123253404     1.372320345143
    H            3.003288356836    -0.804613647653    -0.112393937801
    H            2.203661772989     2.058177532510     0.566096035922
    H            3.032611945216     1.540689195543    -0.888222578409
    H            3.824054459795     1.403320559049     0.669436169074
    H           -3.131673621205     0.720196256192    -1.048417861732
    H           -1.607025691726     1.617932148480    -0.933192728360
    H           -2.616780739766     1.441877040934     0.480344928937

  Mulliken Charges: (a.u.)
   Center  Symbol    Alpha    Beta     Spin     Total
       1     O     4.17701  4.17701  0.00000 -0.35401
       2     C     2.85894  2.85894  0.00000  0.28213
       3     C     3.09922  3.09922  0.00000 -0.19844
       4     C     3.15537  3.15537  0.00000 -0.31073
       5     C     3.10510  3.10510  0.00000 -0.21020
       6     H     0.44913  0.44913  0.00000  0.10173
       7     H     0.43860  0.43860  0.00000  0.12281
       8     C     3.09079  3.09079  0.00000 -0.18158
       9     H     0.45290  0.45290  0.00000  0.09420
      10     H     0.43414  0.43414  0.00000  0.13171
      11     C     3.14813  3.14813  0.00000 -0.29625
      12     H     0.45259  0.45259  0.00000  0.09482
      13     H     0.44612  0.44612  0.00000  0.10776
      14     H     0.45638  0.45638  0.00000  0.08724
      15     H     0.45347  0.45347  0.00000  0.09305
      16     H     0.44683  0.44683  0.00000  0.10635
      17     H     0.43592  0.43592  0.00000  0.12816
      18     H     0.45102  0.45102  0.00000  0.09796
      19     H     0.44834  0.44834  0.00000  0.10331

   Total alpha = 28.00000, Total beta = 28.00000, Total charge = -0.00000

*** Psi4 exiting successfully. Buy a developer a beer!
