  ==> Input File <==

--------------------------------------------------------------------------
set {
	reference rhf
	basis 6-31G*
}

set_num_threads( 4 )
memory 2 gb

molecule MOL {
0 1

H	 2.672742	 1.259328	 -2.242676
O	 1.741074	 1.132258	 -2.354273
C	 1.149322	 0.829024	 -1.178574
C	 1.862086	 0.729411	 0.009428
C	 -0.217924	 0.614490	 -1.185181
H	 2.926053	 0.896748	 0.012383
C	 1.207853	 0.415642	 1.188919
H	 -0.769668	 0.691122	 -2.102123
C	 -0.865228	 0.300799	 0.000000
H	 1.770075	 0.341348	 2.102026
C	 -0.158332	 0.199623	 1.191567
C	 -2.333960	 0.069074	 0.000000
H	 -0.668530	 -0.044209	 2.106580
O	 -2.847347	 -1.003763	 0.000000
H	 -2.943845	 0.977528	 0.000000

	symmetry c1
}
set optking {
	frozen_dihedral = ("
		11 9 12 14
	")
}

ee = optimize('scf')
oeprop('DIPOLE', 'QUADRUPOLE', 'MULLIKEN_CHARGES')
f=open( 'psi4out.xyz', 'w' )
f.write( "15  " )
f.write( str(ee) + "\n" )
f.write( MOL.save_string_xyz() )
f.close()
--------------------------------------------------------------------------

    Molecular point group: c1
  Charge       = 0
  Multiplicity = 1
  Basis Set: 6-31G*
  Basis Set:
  @DF-RHF Final Energy:  -418.27360497928697
    Total Energy =                       -418.2736049792872564
    Molecular point group: c1
  Basis Set: 6-31G*
  Basis Set:
  Basis Set: 6-31G*
  Basis Set:
  @DF-RHF Final Energy:  -418.27387345787508
    Total Energy =                       -418.2738734578748563
  Basis Set: 6-31G*
  Basis Set:
  Basis Set: 6-31G*
  Basis Set:
  @DF-RHF Final Energy:  -418.27390155231615
    Total Energy =                       -418.2739015523163744
  Basis Set: 6-31G*
  Basis Set:
  Basis Set: 6-31G*
  Basis Set:
  @DF-RHF Final Energy:  -418.27401186818832
    Total Energy =                       -418.2740118681878130
  Basis Set: 6-31G*
  Basis Set:
  Basis Set: 6-31G*
  Basis Set:
  @DF-RHF Final Energy:  -418.27403872491317
    Total Energy =                       -418.2740387249134528
  Basis Set: 6-31G*
  Basis Set:
  Basis Set: 6-31G*
  Basis Set:
  @DF-RHF Final Energy:  -418.27404004419060
    Total Energy =                       -418.2740400441912243
  Basis Set: 6-31G*
  Basis Set:
  Charge       = 0
  Multiplicity = 1
  Basis Set: 6-31G*
  Basis Set:

    Orbital Energies (a.u.)
    -----------------------

    Doubly Occupied:

       1A    -20.603214     2A    -20.573299     3A    -11.336880
       4A    -11.313903     5A    -11.257463     6A    -11.251689
       7A    -11.242151     8A    -11.240274     9A    -11.239211
      10A     -1.422995    11A     -1.412413    12A     -1.167714
      13A     -1.048229    14A     -1.023241    15A     -0.899106
      16A     -0.841810    17A     -0.817233    18A     -0.738513
      19A     -0.699531    20A     -0.673410    21A     -0.666585
      22A     -0.637324    23A     -0.613402    24A     -0.600934
      25A     -0.582442    26A     -0.543019    27A     -0.529228
      28A     -0.511892    29A     -0.492227    30A     -0.423104
      31A     -0.353290    32A     -0.323902

  @DF-RHF Final Energy:  -418.27404012955134

   => Energetics <=

    Nuclear Repulsion Energy =            401.6720470766966287
    One-Electron Energy =               -1365.7329265231244335
    Two-Electron Energy =                 545.7868393168757848
    DFT Exchange-Correlation Energy =       0.0000000000000000
    Empirical Dispersion Energy =           0.0000000000000000
    PCM Polarization Energy =               0.0000000000000000
    EFP Energy =                            0.0000000000000000
    Total Energy =                       -418.2740401295520769
    Molecular point group: c1
  Basis Set: 6-31G*
  Basis Set:

  -Total Gradient:
     Atom            X                  Y                   Z
    ------   -----------------  -----------------  -----------------
       1       -0.000002790843     0.000009552689     0.000000943205
       2        0.000004016742     0.000008587761     0.000004489683
       3       -0.000035643113    -0.000050855598    -0.000036289604
       4       -0.000001631807     0.000008111891     0.000051759762
       5        0.000025118231     0.000035185753    -0.000016052720
       6       -0.000001506646     0.000005356266    -0.000002460938
       7        0.000042661354    -0.000012158861    -0.000028235892
       8        0.000000763612     0.000004274098     0.000002154643
       9        0.000529205103    -0.003753222776    -0.001916593074
      10       -0.000005055479     0.000002680510     0.000003874183
      11       -0.000383873149     0.002530766481     0.000369739988
      12       -0.000211488595     0.001240389164     0.004695938385
      13        0.000002049017     0.000005982687     0.000003828188
      14        0.000038510041    -0.000043950545    -0.003129955595
      15       -0.000000334464     0.000009300480    -0.000003140211

  **** Optimization is complete! (in 7 steps) ****
    Final optimized geometry and variables:
    Molecular point group: c1

    Geometry (in Angstrom), charge = 0, multiplicity = 1:

    H            2.724454477568     0.893600615215    -1.948033697643
    O            1.790225193205     0.776471026625    -2.050031052509
    C            1.212064646037     0.467977162531    -0.869914663019
    C            1.929985808974     0.374293204882     0.311783419801
    C           -0.158388604393     0.249701166896    -0.871744393107
    H            2.992379782328     0.550028141897     0.313858087005
    C            1.272977043154     0.056059944935     1.489436170119
    H           -0.694650010300     0.334838238947    -1.799397924788
    C           -0.799819992274    -0.085245907901     0.307369698715
    H            1.834224168362    -0.012940034946     2.403795637801
    C           -0.090524771214    -0.173544679577     1.499088895532
    C           -2.287750962516    -0.287099389328     0.301561446303
    H           -0.593922154788    -0.428882561257     2.413508700927
    O           -2.812032073045    -1.351894732163     0.320615674131
    H           -2.887698299705     0.626151668870     0.254335700547

  Mulliken Charges: (a.u.)
   Center  Symbol    Alpha    Beta     Spin     Total
       1     H     0.27004  0.27004  0.00000  0.45993
       2     O     4.37647  4.37647  0.00000 -0.75293
       3     C     2.79027  2.79027  0.00000  0.41946
       4     C     3.14224  3.14224  0.00000 -0.28448
       5     C     3.13042  3.13042  0.00000 -0.26084
       6     H     0.40057  0.40057  0.00000  0.19886
       7     C     3.08871  3.08871  0.00000 -0.17742
       8     H     0.38505  0.38505  0.00000  0.22989
       9     C     3.02151  3.02151  0.00000 -0.04302
      10     H     0.39347  0.39347  0.00000  0.21307
      11     C     3.11636  3.11636  0.00000 -0.23273
      12     C     2.85092  2.85092  0.00000  0.29816
      13     H     0.39114  0.39114  0.00000  0.21772
      14     O     4.22130  4.22130  0.00000 -0.44259
      15     H     0.42154  0.42154  0.00000  0.15693

   Total alpha = 32.00000, Total beta = 32.00000, Total charge =  0.00000
