                              Psi4 1.0.54 Driver

  ==> Input File <==

--------------------------------------------------------------------------
set {
	reference rhf
	basis cc-pvtz
}

set_num_threads( 4 )
memory 2 gb

molecule MOL {
0 1

O	 -2.081319	 -0.951530	 -0.502732
N	 -1.613558	 0.006676	 0.014756
C	 -0.329345	 -0.171618	 0.743966
O	 -2.068523	 1.100482	 -0.024385
C	 0.577985	 -1.110197	 -0.041470
H	 -0.587258	 -0.577377	 1.707947
H	 0.098509	 0.812195	 0.840327
C	 1.911252	 -1.320703	 0.671449
H	 0.073215	 -2.060347	 -0.171777
H	 0.746803	 -0.692960	 -1.027447
C	 2.841934	 -2.251439	 -0.097994
H	 1.730638	 -1.727920	 1.661899
H	 2.398596	 -0.361049	 0.816253
H	 2.394622	 -3.230432	 -0.229078
H	 3.065689	 -1.854441	 -1.081885
H	 3.779621	 -2.382742	 0.427995

	symmetry c1
}
set optking {
	frozen_dihedral = ("
		5 3 2 1
	")
}

ee,wfn = optimize('scf', return_wfn=True)
oeprop( wfn, 'DIPOLE', 'QUADRUPOLE', 'MULLIKEN_CHARGES')
f=open( 'psi4out.xyz', 'w' )
f.write( "16  " )
f.write( str(ee) + "\n" )
f.write( MOL.save_string_xyz() )
f.close()
--------------------------------------------------------------------------

    Molecular point group: c1
  Charge       = 0
  Multiplicity = 1
  Basis Set: CC-PVTZ
  Basis Set:
  @DF-RHF Final Energy:  -360.90791026166096
    Total Energy =                       -360.9079102616607315
    Molecular point group: c1
  Basis Set: CC-PVTZ
  Basis Set:
  Basis Set: CC-PVTZ
  Basis Set:
  @DF-RHF Final Energy:  -360.90264618935817
    Total Energy =                       -360.9026461893580517
  Basis Set: CC-PVTZ
  Basis Set:
  Basis Set: CC-PVTZ
  Basis Set:
  @DF-RHF Final Energy:  -360.90805099544048
    Total Energy =                       -360.9080509954408171
  Basis Set: CC-PVTZ
  Basis Set:
  Basis Set: CC-PVTZ
  Basis Set:
  @DF-RHF Final Energy:  -360.90808475609060
    Total Energy =                       -360.9080847560906022
  Basis Set: CC-PVTZ
  Basis Set:
  Basis Set: CC-PVTZ
  Basis Set:
  @DF-RHF Final Energy:  -360.90876691448949
    Total Energy =                       -360.9087669144893198
  Basis Set: CC-PVTZ
  Basis Set:
  Basis Set: CC-PVTZ
  Basis Set:
  @DF-RHF Final Energy:  -360.90882154885742
    Total Energy =                       -360.9088215488573042
  Basis Set: CC-PVTZ
  Basis Set:
  Basis Set: CC-PVTZ
  Basis Set:
  @DF-RHF Final Energy:  -360.90882536298830
    Total Energy =                       -360.9088253629882956
  Basis Set: CC-PVTZ
  Basis Set:
  Charge       = 0
  Multiplicity = 1
  Basis Set: CC-PVTZ
  Basis Set:

    Orbital Energies (a.u.)
    -----------------------

    Doubly Occupied:

       1A    -20.590609     2A    -20.589799     3A    -15.837334
       4A    -11.297513     5A    -11.245689     6A    -11.240325
       7A    -11.224693     8A     -1.636214     9A     -1.420244
      10A     -1.134657    11A     -1.059094    12A     -0.948885
      13A     -0.843508    14A     -0.824039    15A     -0.759827
      16A     -0.745374    17A     -0.730072    18A     -0.671718
      19A     -0.615314    20A     -0.604901    21A     -0.566271
      22A     -0.537901    23A     -0.519650    24A     -0.502519
      25A     -0.495710    26A     -0.485314    27A     -0.469462
      28A     -0.453782

  @DF-RHF Final Energy:  -360.90882613686892

   => Energetics <=

    Nuclear Repulsion Energy =            312.5697252076248560
    One-Electron Energy =               -1110.8562705619165172
    Two-Electron Energy =                 437.3777192174226229
    DFT Exchange-Correlation Energy =       0.0000000000000000
    Empirical Dispersion Energy =           0.0000000000000000
    PCM Polarization Energy =               0.0000000000000000
    EFP Energy =                            0.0000000000000000
    Total Energy =                       -360.9088261368690382
    Molecular point group: c1
  Basis Set: CC-PVTZ
  Basis Set:

  -Total Gradient:
     Atom            X                  Y                   Z
    ------   -----------------  -----------------  -----------------
       1        0.000248390342     0.000127935172    -0.000471788442
       2       -0.000412854474    -0.000194127026     0.000742216232
       3        0.000308088427     0.000439265842    -0.000477700942
       4       -0.000012676940    -0.000064520388    -0.000026061486
       5       -0.000152066303    -0.000298583702     0.000227869256
       6        0.000015423757    -0.000009470145     0.000030130859
       7       -0.000004508994    -0.000020805864    -0.000009790013
       8       -0.000000302794     0.000015618477    -0.000013571559
       9       -0.000007883258     0.000010154267     0.000007494554
      10        0.000007492022     0.000007445071    -0.000008712469
      11        0.000007717981    -0.000014289969     0.000007160855
      12       -0.000005361414     0.000006573810    -0.000002134072
      13        0.000006397251     0.000004087760    -0.000003712787
      14       -0.000001404298    -0.000006062923    -0.000004743343
      15        0.000002341342     0.000005159159     0.000002929056
      16        0.000001207348    -0.000008379534     0.000000414302

  **** Optimization is complete! (in 8 steps) ****
    Final optimized geometry and variables:
    Molecular point group: c1

    Geometry (in Angstrom), charge = 0, multiplicity = 1:

    O           -1.996280794913    -0.239319766175    -0.601049367338
    N           -1.469758799895     0.691823179826    -0.091322341747
    C           -0.165227092676     0.462912125197     0.596514719973
    O           -1.907361337926     1.792334074753    -0.059646153008
    C            0.737487499558    -0.492058870652    -0.162679636898
    H           -0.436081684152     0.068230104107     1.566585996641
    H            0.266045287372     1.440948651504     0.722564321749
    C            2.070085904164    -0.676529727939     0.560463374272
    H            0.238662721472    -1.444009003336    -0.276935346935
    H            0.911489256012    -0.102384562559    -1.160202608451
    C            3.003383364305    -1.631623759713    -0.175276106087
    H            1.887531344511    -1.052331277926     1.563320937493
    H            2.558670446842     0.286395099565     0.677554770509
    H            2.555038492754    -2.613410034582    -0.278758788664
    H            3.232168764169    -1.265444909994    -1.169980584780
    H            3.938716359342    -1.748058264919     0.358474444251

  Mulliken Charges: (a.u.)
   Center  Symbol    Alpha    Beta     Spin     Total
       1     O     4.17185  4.17185  0.00000 -0.34370
       2     N     3.27528  3.27528  0.00000  0.44944
       3     C     3.04598  3.04598  0.00000 -0.09196
       4     O     4.17056  4.17056  0.00000 -0.34111
       5     C     3.09826  3.09826  0.00000 -0.19651
       6     H     0.43644  0.43644  0.00000  0.12712
       7     H     0.43099  0.43099  0.00000  0.13803
       8     C     3.09413  3.09413  0.00000 -0.18826
       9     H     0.43311  0.43311  0.00000  0.13378
      10     H     0.44374  0.44374  0.00000  0.11252
      11     C     3.14796  3.14796  0.00000 -0.29591
      12     H     0.45151  0.45151  0.00000  0.09699
      13     H     0.45089  0.45089  0.00000  0.09821
      14     H     0.45163  0.45163  0.00000  0.09673
      15     H     0.45216  0.45216  0.00000  0.09568
      16     H     0.44551  0.44551  0.00000  0.10897

   Total alpha = 28.00000, Total beta = 28.00000, Total charge = -0.00000

*** Psi4 exiting successfully. Buy a developer a beer!
