  ==> Input File <==

--------------------------------------------------------------------------
set {
	reference rhf
	basis 6-31G*
}

set_num_threads( 1 )
memory 2 gb

molecule MOL {
0 1

H	 2.465338	 -2.224223	 0.000000
O	 2.784187	 -1.332015	 0.000000
C	 1.765313	 -0.449364	 0.000000
C	 1.687308	 0.435962	 -1.070540
C	 0.821981	 -0.402118	 1.007981
H	 2.432528	 0.379243	 -1.841441
C	 0.667419	 1.363124	 -1.127659
H	 0.857815	 -1.072018	 1.844328
C	 -0.188749	 0.541452	 0.918993
H	 0.614791	 2.042818	 -1.957782
C	 -0.292794	 1.430600	 -0.127018
N	 -1.184089	 0.587167	 1.987962
H	 -1.089797	 2.144230	 -0.157372
O	 -1.071565	 -0.194527	 2.883687
O	 -2.050652	 1.402179	 1.903774

	symmetry c1
}
set optking {
	frozen_dihedral = ("
		11 9 12 14
	")
}

ee = energy('scf')
oeprop('DIPOLE', 'QUADRUPOLE', 'MULLIKEN_CHARGES')
f=open( 'psi4out.xyz', 'w' )
f.write( "15  " )
f.write( str(ee) + "\n" )
f.write( MOL.save_string_xyz() )
f.close()
--------------------------------------------------------------------------

    Molecular point group: c1

    Geometry (in Angstrom), charge = 0, multiplicity = 1:

       Center              X                  Y                   Z               Mass
    ------------   -----------------  -----------------  -----------------  -----------------
           H          2.200208919511    -2.530270350563    -0.701338138252     1.007825032070
           O          2.519057919511    -1.638062350563    -0.701338138252    15.994914619560
           C          1.500183919511    -0.755411350563    -0.701338138252    12.000000000000
           C          1.422178919511     0.129914649437    -1.771878138252    12.000000000000
           C          0.556851919511    -0.708165350563     0.306642861748    12.000000000000
           H          2.167398919511     0.073195649437    -2.542779138252     1.007825032070
           C          0.402289919511     1.057076649437    -1.828997138252    12.000000000000
           H          0.592685919511    -1.378065350563     1.142989861748     1.007825032070
           C         -0.453878080489     0.235404649437     0.217654861748    12.000000000000
           H          0.349661919511     1.736770649437    -2.659120138252     1.007825032070
           C         -0.557923080489     1.124552649437    -0.828356138252    12.000000000000
           N         -1.449218080489     0.281119649437     1.286623861748    14.003074004780
           H         -1.354926080489     1.838182649437    -0.858710138252     1.007825032070
           O         -1.336694080489    -0.500574350563     2.182348861748    15.994914619560
           O         -2.315781080489     1.096131649437     1.202435861748    15.994914619560

  Charge       = 0
  Multiplicity = 1
  Basis Set: 6-31G*
  Basis Set:

    Orbital Energies (a.u.)
    -----------------------

    Doubly Occupied:

       1A    -20.605032     2A    -20.604284     3A    -20.603624
       4A    -15.858686     5A    -11.323126     6A    -11.309374
       7A    -11.267755     8A    -11.267452     9A    -11.265100
      10A    -11.261895    11A     -1.637487    12A     -1.428847
      13A     -1.420749    14A     -1.200167    15A     -1.093981
      16A     -1.045651    17A     -0.964193    18A     -0.872976
      19A     -0.829891    20A     -0.792049    21A     -0.743663
      22A     -0.736469    23A     -0.723440    24A     -0.708386
      25A     -0.677356    26A     -0.640673    27A     -0.627549
      28A     -0.570072    29A     -0.556179    30A     -0.533398
      31A     -0.512039    32A     -0.490381    33A     -0.486632
      34A     -0.454251    35A     -0.376505    36A     -0.352949

  @DF-RHF Final Energy:  -509.02395793107411

   => Energetics <=

    Nuclear Repulsion Energy =            503.3249514434073149
    One-Electron Energy =               -1693.0137081433135791
    Two-Electron Energy =                 680.6647987688314743
    DFT Exchange-Correlation Energy =       0.0000000000000000
    Empirical Dispersion Energy =           0.0000000000000000
    PCM Polarization Energy =               0.0000000000000000
    EFP Energy =                            0.0000000000000000
    Total Energy =                       -509.0239579310747331

  Mulliken Charges: (a.u.)
   Center  Symbol    Alpha    Beta     Spin     Total
       1     H     0.26716  0.26716  0.00000  0.46568
       2     O     4.38130  4.38130  0.00000 -0.76259
       3     C     2.81121  2.81121  0.00000  0.37757
       4     C     3.10314  3.10314  0.00000 -0.20629
       5     C     3.11990  3.11990  0.00000 -0.23980
       6     H     0.38185  0.38185  0.00000  0.23630
       7     C     3.10477  3.10477  0.00000 -0.20953
       8     H     0.36242  0.36242  0.00000  0.27516
       9     C     2.91677  2.91677  0.00000  0.16646
      10     H     0.38729  0.38729  0.00000  0.22543
      11     C     3.09248  3.09248  0.00000 -0.18496
      12     N     3.24016  3.24016  0.00000  0.51967
      13     H     0.36428  0.36428  0.00000  0.27145
      14     O     4.23450  4.23450  0.00000 -0.46899
      15     O     4.23277  4.23277  0.00000 -0.46554

   Total alpha = 36.00000, Total beta = 36.00000, Total charge =  0.00000
