  ==> Input File <==

--------------------------------------------------------------------------
set {
	reference rhf
	basis cc-pvtz
}

set_num_threads( 4 )
memory 2 gb

molecule MOL {
0 1

H	 -0.939693	 0.000281	 1.681345
O	 -0.046262	 -0.000157	 1.387678
C	 -0.000837	 0.000006	 -0.025491
C	 -0.234972	 -1.417260	 -0.544804
C	 -1.058106	 0.958008	 -0.570982
C	 1.398458	 0.480952	 -0.384451
H	 -0.169991	 -1.455362	 -1.626062
H	 -1.220139	 -1.773835	 -0.259547
H	 0.501366	 -2.094824	 -0.131069
H	 -1.023211	 1.006899	 -1.653192
H	 -2.054616	 0.634104	 -0.286154
H	 -0.901724	 1.953863	 -0.175657
H	 1.531475	 0.515240	 -1.459355
H	 2.142382	 -0.184750	 0.034631
H	 1.568189	 1.472262	 0.016436

	symmetry c1
}
set optking {
	frozen_dihedral = ("
		4 3 2 1
	")
}

ee = optimize('scf')
oeprop('DIPOLE', 'QUADRUPOLE', 'MULLIKEN_CHARGES')
f=open( 'psi4out.xyz', 'w' )
f.write( "15  " )
f.write( str(ee) + "\n" )
f.write( MOL.save_string_xyz() )
f.close()
--------------------------------------------------------------------------

    Molecular point group: c1
  Charge       = 0
  Multiplicity = 1
  Basis Set: CC-PVTZ
  Basis Set:
  @DF-RHF Final Energy:  -232.24630070003218
    Total Energy =                       -232.2463007000324069
    Molecular point group: c1
  Basis Set: CC-PVTZ
  Basis Set:
  Basis Set: CC-PVTZ
  Basis Set:
  @DF-RHF Final Energy:  -232.24632616975794
    Total Energy =                       -232.2463261697580492
  Basis Set: CC-PVTZ
  Basis Set:
  Basis Set: CC-PVTZ
  Basis Set:
  @DF-RHF Final Energy:  -232.24633414312791
    Total Energy =                       -232.2463341431280242
  Basis Set: CC-PVTZ
  Basis Set:
  Basis Set: CC-PVTZ
  Basis Set:
  @DF-RHF Final Energy:  -232.24633581042622
    Total Energy =                       -232.2463358104263307
  Basis Set: CC-PVTZ
  Basis Set:
  Charge       = 0
  Multiplicity = 1
  Basis Set: CC-PVTZ
  Basis Set:

    Orbital Energies (a.u.)
    -----------------------

    Doubly Occupied:

       1A    -20.541838     2A    -11.280840     3A    -11.212643
       4A    -11.206319     5A    -11.203599     6A     -1.364493
       7A     -1.065337     8A     -0.944034     9A     -0.938547
      10A     -0.778506    11A     -0.672531    12A     -0.624293
      13A     -0.622829    14A     -0.576067    15A     -0.557552
      16A     -0.533133    17A     -0.517027    18A     -0.511334
      19A     -0.504301    20A     -0.458545    21A     -0.428361

  @DF-RHF Final Energy:  -232.24633594141795

   => Energetics <=

    Nuclear Repulsion Energy =            200.6546721721656468
    One-Electron Energy =                -712.7177488169359094
    Two-Electron Energy =                 279.8167407033522522
    DFT Exchange-Correlation Energy =       0.0000000000000000
    Empirical Dispersion Energy =           0.0000000000000000
    PCM Polarization Energy =               0.0000000000000000
    EFP Energy =                            0.0000000000000000
    Total Energy =                       -232.2463359414180104
    Molecular point group: c1
  Basis Set: CC-PVTZ
  Basis Set:

  -Total Gradient:
     Atom            X                  Y                   Z
    ------   -----------------  -----------------  -----------------
       1       -0.000016099714     0.001555603339     0.000016023389
       2        0.000337452454    -0.001964127305     0.000000366819
       3       -0.001250425298     0.000578517585    -0.000009540455
       4        0.000938887478    -0.000144433823     0.000005716126
       5       -0.000019230648    -0.000009976695     0.000000668216
       6        0.000001226260    -0.000006483805    -0.000005747731
       7       -0.000007873391    -0.000004525154     0.000003822304
       8       -0.000004163234     0.000001414392    -0.000000128508
       9        0.000009910149     0.000002861453    -0.000000609401
      10       -0.000002012821    -0.000001498644    -0.000014018282
      11        0.000004562819     0.000009967008     0.000004244506
      12        0.000008939041    -0.000014369519    -0.000000716288
      13        0.000001157215     0.000005131908    -0.000002405177
      14        0.000004138218    -0.000001739576     0.000003080667
      15       -0.000006468531    -0.000006341165    -0.000000756182

  **** Optimization is complete! (in 5 steps) ****
    Final optimized geometry and variables:
    Molecular point group: c1

    Geometry (in Angstrom), charge = 0, multiplicity = 1:

    H           -0.936764775538    -0.017871592757     1.686589366628
    O           -0.045316242926    -0.013271676612     1.388626310206
    C           -0.001966545797    -0.001634425446    -0.025436854915
    C           -0.233528938950    -1.418809798889    -0.546650967198
    C           -1.056907375372     0.958745824254    -0.568257766609
    C            1.398590090965     0.476365992144    -0.386619454525
    H           -0.167992688025    -1.456943155015    -1.628205480854
    H           -1.215900445062    -1.778085586597    -0.257684850569
    H            0.505268729458    -2.092746468523    -0.131985970588
    H           -1.018767755614     1.010622350610    -1.649759891438
    H           -2.055159019435     0.633427270336    -0.289593160152
    H           -0.901046215956     1.954529850020    -0.171441974769
    H            1.539867502323     0.486002475364    -1.461071072287
    H            2.140443241725    -0.179145966548     0.051942820384
    H            1.564899920463     1.476197456062    -0.005985854678

  Mulliken Charges: (a.u.)
   Center  Symbol    Alpha    Beta     Spin     Total
       1     H     0.39496  0.39496  0.00000  0.21008
       2     O     4.21200  4.21200  0.00000 -0.42400
       3     C     2.87831  2.87831  0.00000  0.24338
       4     C     3.14677  3.14677  0.00000 -0.29354
       5     C     3.15420  3.15420  0.00000 -0.30840
       6     C     3.14234  3.14234  0.00000 -0.28469
       7     H     0.45714  0.45714  0.00000  0.08573
       8     H     0.45516  0.45516  0.00000  0.08968
       9     H     0.44761  0.44761  0.00000  0.10479
      10     H     0.45357  0.45357  0.00000  0.09286
      11     H     0.45594  0.45594  0.00000  0.08812
      12     H     0.44558  0.44558  0.00000  0.10884
      13     H     0.45898  0.45898  0.00000  0.08204
      14     H     0.44739  0.44739  0.00000  0.10522
      15     H     0.45005  0.45005  0.00000  0.09990

   Total alpha = 21.00000, Total beta = 21.00000, Total charge = -0.00000
