  ==> Input File <==

--------------------------------------------------------------------------
set {
	reference rhf
	basis 6-31G*
}

set_num_threads( 4 )
memory 2 gb

molecule MOL {
0 1

H	 3.893188	 0.355400	 -0.101367
N	 3.092854	 -0.246221	 -0.068770
C	 1.865559	 0.531981	 0.018834
H	 3.199514	 -0.826043	 0.741946
C	 0.645745	 -0.382037	 -0.029944
H	 1.841966	 1.207024	 -0.831236
H	 1.815756	 1.155410	 0.915079
C	 -0.679275	 0.379305	 0.025956
H	 0.698998	 -0.976915	 -0.937203
H	 0.693479	 -1.083846	 0.802235
C	 -0.621101	 1.741896	 -0.667108
H	 -0.971041	 0.519803	 1.065659
H	 -1.464156	 -0.220975	 -0.431725
C	 -1.946094	 2.500893	 -0.605263
H	 0.161506	 2.343871	 -0.210637
H	 -0.332306	 1.604447	 -1.706993
H	 -2.245318	 2.684101	 0.422948
H	 -1.872836	 3.462270	 -1.104254
H	 -2.742752	 1.939186	 -1.085068

	symmetry c1
}
set optking {
	frozen_dihedral = ("
		12 8 5 9
	")
}

ee = optimize('scf')
oeprop('DIPOLE', 'QUADRUPOLE', 'MULLIKEN_CHARGES')
f=open( 'psi4out.xyz', 'w' )
f.write( "19  " )
f.write( str(ee) + "\n" )
f.write( MOL.save_string_xyz() )
f.close()
--------------------------------------------------------------------------

    Molecular point group: c1
  Charge       = 0
  Multiplicity = 1
  Basis Set: 6-31G*
  Basis Set:
  @DF-RHF Final Energy:  -251.34447692630943
    Total Energy =                       -251.3444769263094258
    Molecular point group: c1
  Basis Set: 6-31G*
  Basis Set:
  Basis Set: 6-31G*
  Basis Set:
  @DF-RHF Final Energy:  -251.34578784901171
    Total Energy =                       -251.3457878490116855
  Basis Set: 6-31G*
  Basis Set:
  Basis Set: 6-31G*
  Basis Set:
  @DF-RHF Final Energy:  -251.34719068183497
    Total Energy =                       -251.3471906818347179
  Basis Set: 6-31G*
  Basis Set:
  Basis Set: 6-31G*
  Basis Set:
  @DF-RHF Final Energy:  -251.34731953461400
    Total Energy =                       -251.3473195346138027
  Basis Set: 6-31G*
  Basis Set:
  Basis Set: 6-31G*
  Basis Set:
  @DF-RHF Final Energy:  -251.34732143303745
    Total Energy =                       -251.3473214330375072
  Basis Set: 6-31G*
  Basis Set:
  Basis Set: 6-31G*
  Basis Set:
  @DF-RHF Final Energy:  -251.34733615910156
    Total Energy =                       -251.3473361591017010
  Basis Set: 6-31G*
  Basis Set:
  Charge       = 0
  Multiplicity = 1
  Basis Set: 6-31G*
  Basis Set:

    Orbital Energies (a.u.)
    -----------------------

    Doubly Occupied:

       1A    -15.532457     2A    -11.239600     3A    -11.214731
       4A    -11.213008     5A    -11.209808     6A    -11.208067
       7A     -1.176704     8A     -1.071620     9A     -0.995914
      10A     -0.899603    11A     -0.834406    12A     -0.770305
      13A     -0.664606    14A     -0.637924    15A     -0.613635
      16A     -0.591879    17A     -0.571150    18A     -0.550968
      19A     -0.524599    20A     -0.501663    21A     -0.490205
      22A     -0.458358    23A     -0.455262    24A     -0.448335
      25A     -0.380837

  @DF-RHF Final Energy:  -251.34733813955842

   => Energetics <=

    Nuclear Repulsion Energy =            249.3640878378713523
    One-Electron Energy =                -832.9115605373325479
    Two-Electron Energy =                 332.2001345599026081
    DFT Exchange-Correlation Energy =       0.0000000000000000
    Empirical Dispersion Energy =           0.0000000000000000
    PCM Polarization Energy =               0.0000000000000000
    EFP Energy =                            0.0000000000000000
    Total Energy =                       -251.3473381395585875
    Molecular point group: c1
  Basis Set: 6-31G*
  Basis Set:

  -Total Gradient:
     Atom            X                  Y                   Z
    ------   -----------------  -----------------  -----------------
       1       -0.000006171434     0.000003657487     0.000001001246
       2       -0.000003322016    -0.000013152673    -0.000008997466
       3       -0.000002073796     0.000027684796     0.000007040955
       4        0.000001488535    -0.000000357443     0.000000544905
       5        0.002162751725     0.004153113815    -0.003316433343
       6        0.000001098090    -0.000008151547     0.000001803762
       7       -0.000000254743     0.000015283406     0.000004904025
       8        0.002910986056     0.004724056594     0.000801291910
       9       -0.002300760823    -0.004229697850     0.002627861627
      10       -0.000009734633     0.000013426267     0.000007189093
      11        0.000010005519    -0.000005556451    -0.000049490743
      12       -0.002791157024    -0.004687652585    -0.000085421363
      13        0.000014357065     0.000004550780    -0.000006772974
      14        0.000004145086    -0.000003530401     0.000022380209
      15       -0.000008633771    -0.000002770074     0.000007218421
      16        0.000016552935     0.000012338680    -0.000015957536
      17       -0.000008030922     0.000004574651     0.000002091424
      18        0.000009054202    -0.000008344174     0.000001033167
      19       -0.000000300044     0.000000526721    -0.000001287319

  **** Optimization is complete! (in 7 steps) ****
    Final optimized geometry and variables:
    Molecular point group: c1

    Geometry (in Angstrom), charge = 0, multiplicity = 1:

    H            3.543208776486    -0.604360603093     0.197670256218
    N            2.693720303882    -1.135207028787     0.193418634431
    C            1.534739125988    -0.255289187896     0.237165502002
    H            2.717316069948    -1.727703850573     1.001557652660
    C            0.253396316701    -1.075241839537     0.132196414103
    H            1.611783754314     0.425408595474    -0.603105336509
    H            1.498045616225     0.361450724045     1.139229439170
    C           -1.062501516838    -0.287529980873     0.255379264085
    H            0.263921486050    -1.654356401901    -0.786274677157
    H            0.266034060577    -1.821100698782     0.926552784346
    C           -1.114908125281     1.056748243330    -0.473553251607
    H           -1.316430978813    -0.158826481527     1.305967881976
    H           -1.856958049450    -0.918315348159    -0.139519047610
    C           -2.497777959096     1.704168324526    -0.403727405978
    H           -0.382904969410     1.740321313958    -0.052235766123
    H           -0.836599713975     0.913330038291    -1.515724858782
    H           -2.795427926046     1.881399508616     0.626070184464
    H           -2.511958581461     2.658734142137    -0.920713113693
    H           -3.251887519059     1.069197788789    -0.859957360955

  Mulliken Charges: (a.u.)
   Center  Symbol    Alpha    Beta     Spin     Total
       1     H     0.33240  0.33240  0.00000  0.33519
       2     N     3.92231  3.92231  0.00000 -0.84462
       3     C     3.06305  3.06305  0.00000 -0.12610
       4     H     0.33534  0.33534  0.00000  0.32932
       5     C     3.15249  3.15249  0.00000 -0.30499
       6     H     0.41831  0.41831  0.00000  0.16339
       7     H     0.43477  0.43477  0.00000  0.13046
       8     C     3.15593  3.15593  0.00000 -0.31186
       9     H     0.41290  0.41290  0.00000  0.17420
      10     H     0.42662  0.42662  0.00000  0.14677
      11     C     3.15554  3.15554  0.00000 -0.31108
      12     H     0.42379  0.42379  0.00000  0.15243
      13     H     0.42141  0.42141  0.00000  0.15718
      14     C     3.23913  3.23913  0.00000 -0.47827
      15     H     0.42171  0.42171  0.00000  0.15657
      16     H     0.42145  0.42145  0.00000  0.15710
      17     H     0.42198  0.42198  0.00000  0.15605
      18     H     0.41943  0.41943  0.00000  0.16114
      19     H     0.42144  0.42144  0.00000  0.15712

   Total alpha = 25.00000, Total beta = 25.00000, Total charge =  0.00000
