                              Psi4 1.0.54 Driver

  ==> Input File <==

--------------------------------------------------------------------------
set {
	reference rhf
	basis cc-pvtz
}

set_num_threads( 4 )
memory 2 gb

molecule MOL {
0 1

O	 -2.817697	 1.304178	 0.001046
C	 -2.664672	 0.129869	 0.003507
C	 -3.797908	 -0.860100	 -0.001145
O	 -1.481217	 -0.452708	 0.001092
H	 -4.408836	 -0.679689	 -0.875387
H	 -3.443486	 -1.878443	 -0.002770
H	 -4.412123	 -0.683688	 0.871605
C	 -0.332055	 0.384012	 -0.000250
C	 0.892252	 -0.506059	 -0.000295
H	 -0.360822	 1.020205	 -0.874146
H	 -0.359817	 1.021310	 0.872861
C	 2.188199	 0.299473	 -0.001416
H	 0.857046	 -1.152781	 -0.871031
H	 0.857910	 -1.151798	 0.871202
C	 2.252133	 1.327305	 -1.127737
H	 2.299722	 0.808200	 0.952909
H	 3.035264	 -0.376687	 -0.086634
C	 3.547512	 2.131667	 -1.129929
H	 1.407134	 2.004644	 -1.042621
H	 2.140958	 0.820084	 -2.081914
H	 3.670499	 2.678168	 -0.200921
H	 3.560959	 2.850905	 -1.940498
H	 4.410037	 1.484382	 -1.247941

	symmetry c1
}
set optking {
	frozen_dihedral = ("
		16 12 9 13
	")
}

ee,wfn = optimize('scf', return_wfn=True)
oeprop( wfn, 'DIPOLE', 'QUADRUPOLE', 'MULLIKEN_CHARGES')
f=open( 'psi4out.xyz', 'w' )
f.write( "23  " )
f.write( str(ee) + "\n" )
f.write( MOL.save_string_xyz() )
f.close()
--------------------------------------------------------------------------

    Molecular point group: c1
  Charge       = 0
  Multiplicity = 1
  Basis Set: CC-PVTZ
  Basis Set:
  @DF-RHF Final Energy:  -423.13104436749541
    Total Energy =                       -423.1310443674948374
    Molecular point group: c1
  Basis Set: CC-PVTZ
  Basis Set:
  Basis Set: CC-PVTZ
  Basis Set:
  @DF-RHF Final Energy:  -423.13099832730126
    Total Energy =                       -423.1309983273015405
  Basis Set: CC-PVTZ
  Basis Set:
  Basis Set: CC-PVTZ
  Basis Set:
  @DF-RHF Final Energy:  -423.13237971354584
    Total Energy =                       -423.1323797135462428
  Basis Set: CC-PVTZ
  Basis Set:
  Basis Set: CC-PVTZ
  Basis Set:
  @DF-RHF Final Energy:  -423.13107805071684
    Total Energy =                       -423.1310780507167237
  Basis Set: CC-PVTZ
  Basis Set:
  @DF-RHF Final Energy:  -423.13268691094703
    Total Energy =                       -423.1326869109474274
  Basis Set: CC-PVTZ
  Basis Set:
  @DF-RHF Final Energy:  -423.13274579878765
    Total Energy =                       -423.1327457987869138
  Basis Set: CC-PVTZ
  Basis Set:
  Basis Set: CC-PVTZ
  Basis Set:
  @DF-RHF Final Energy:  -423.13275210538779
    Total Energy =                       -423.1327521053879082
  Basis Set: CC-PVTZ
  Basis Set:
  Basis Set: CC-PVTZ
  Basis Set:
  @DF-RHF Final Energy:  -423.13275332060908
    Total Energy =                       -423.1327533206090266
  Basis Set: CC-PVTZ
  Basis Set:
  Charge       = 0
  Multiplicity = 1
  Basis Set: CC-PVTZ
  Basis Set:

    Orbital Energies (a.u.)
    -----------------------

    Doubly Occupied:

       1A    -20.595815     2A    -20.529486     3A    -11.366344
       4A    -11.278965     5A    -11.230621     6A    -11.222457
       7A    -11.221376     8A    -11.219339     9A    -11.210822
      10A     -1.471041    11A     -1.363896    12A     -1.094794
      13A     -1.041349    14A     -1.003372    15A     -0.932505
      16A     -0.851343    17A     -0.790370    18A     -0.782094
      19A     -0.692250    20A     -0.687858    21A     -0.673158
      22A     -0.638841    23A     -0.612239    24A     -0.588545
      25A     -0.579945    26A     -0.573451    27A     -0.563401
      28A     -0.530514    29A     -0.528112    30A     -0.511389
      31A     -0.495814    32A     -0.476282    33A     -0.467897
      34A     -0.462977    35A     -0.453147    36A     -0.439316

  @DF-RHF Final Energy:  -423.13275342818673

   => Energetics <=

    Nuclear Repulsion Energy =            456.8610062457735808
    One-Electron Energy =               -1481.6252763304626114
    Two-Electron Energy =                 601.6315166565020718
    DFT Exchange-Correlation Energy =       0.0000000000000000
    Empirical Dispersion Energy =           0.0000000000000000
    PCM Polarization Energy =               0.0000000000000000
    EFP Energy =                            0.0000000000000000
    Total Energy =                       -423.1327534281870157
    Molecular point group: c1
  Basis Set: CC-PVTZ
  Basis Set:

  -Total Gradient:
     Atom            X                  Y                   Z
    ------   -----------------  -----------------  -----------------
       1       -0.000014380924     0.000025954818     0.000006546470
       2        0.000044221045    -0.000032254054    -0.000002132671
       3       -0.000000782873     0.000005072077     0.000016158577
       4       -0.000024763997    -0.000002112329    -0.000001650835
       5        0.000002713192    -0.000003994616    -0.000007251795
       6       -0.000000810976    -0.000002414341    -0.000001024523
       7       -0.000000680503     0.000004224344    -0.000006679125
       8        0.000008861627     0.000016230532    -0.000007975553
       9       -0.000766699510     0.001357752682    -0.001073288931
      10       -0.000001605198    -0.000003284438     0.000003146293
      11       -0.000004607138    -0.000002382959     0.000000849183
      12       -0.000871493592     0.001516467039    -0.000625485824
      13        0.000774021962    -0.001380841757     0.000994629106
      14        0.000002833366     0.000000787832    -0.000000387120
      15       -0.000005453942     0.000005133489    -0.000008937127
      16        0.000860531825    -0.001492577352     0.000696472713
      17       -0.000001335822    -0.000000587005     0.000000866749
      18        0.000005051841    -0.000005394274     0.000012539603
      19        0.000004887009    -0.000006885539    -0.000000693873
      20       -0.000001150039     0.000003368953     0.000008718755
      21        0.000000850105    -0.000002834577    -0.000007170790
      22       -0.000005291023    -0.000005164440     0.000000999896
      23       -0.000004916435     0.000005735912     0.000001750822

  **** Optimization is complete! (in 9 steps) ****
    Final optimized geometry and variables:
    Molecular point group: c1

    Geometry (in Angstrom), charge = 0, multiplicity = 1:

    O           -2.642658062949     0.848655154310     0.193470235500
    C           -2.454243443046    -0.319701997048     0.240329110177
    C           -3.557315014025    -1.341572575155     0.302018998972
    O           -1.254112515591    -0.866550337173     0.245099854072
    H           -4.192260643192    -1.215045680624    -0.564577156401
    H           -3.172690722220    -2.348435877864     0.333723950846
    H           -4.157309742345    -1.147174410555     1.180922320526
    C           -0.131040669818     0.003658971731     0.187630765334
    C            1.113942281066    -0.859093513432     0.188231113778
    H           -0.208984010613     0.611545138353    -0.700835249224
    H           -0.153243238976     0.664516621885     1.044245803065
    C            2.420838836975    -0.068368309926     0.270079259232
    H            1.117003322633    -1.491440781164    -0.694087549920
    H            1.058057332057    -1.529632735915     1.039170439922
    C            2.641798710477     0.953504201998    -0.843720175477
    H            2.486081457353     0.422801422636     1.237932849845
    H            3.238416233243    -0.783116183460     0.251327225792
    C            4.022316851390     1.598784931155    -0.781032679894
    H            1.887256674921     1.731488183230    -0.792782598214
    H            2.514879230824     0.466459909353    -1.807137419509
    H            4.170417812331     2.113356579407     0.162536763572
    H            4.152664944577     2.323466760744    -1.576185220929
    H            4.806648193666     0.855625152145    -0.877782337682

  Mulliken Charges: (a.u.)
   Center  Symbol    Alpha    Beta     Spin     Total
       1     O     4.20254  4.20254  0.00000 -0.40507
       2     C     2.81582  2.81582  0.00000  0.36837
       3     C     3.13963  3.13963  0.00000 -0.27925
       4     O     4.14575  4.14575  0.00000 -0.29150
       5     H     0.44218  0.44218  0.00000  0.11563
       6     H     0.44183  0.44183  0.00000  0.11633
       7     H     0.44217  0.44217  0.00000  0.11566
       8     C     2.97721  2.97721  0.00000  0.04559
       9     C     3.09147  3.09147  0.00000 -0.18293
      10     H     0.45144  0.45144  0.00000  0.09713
      11     H     0.45367  0.45367  0.00000  0.09266
      12     C     3.10418  3.10418  0.00000 -0.20836
      13     H     0.44980  0.44980  0.00000  0.10041
      14     H     0.44530  0.44530  0.00000  0.10941
      15     C     3.09055  3.09055  0.00000 -0.18111
      16     H     0.45081  0.45081  0.00000  0.09837
      17     H     0.44753  0.44753  0.00000  0.10495
      18     C     3.14920  3.14920  0.00000 -0.29840
      19     H     0.45082  0.45082  0.00000  0.09836
      20     H     0.45225  0.45225  0.00000  0.09550
      21     H     0.45434  0.45434  0.00000  0.09132
      22     H     0.44717  0.44717  0.00000  0.10567
      23     H     0.45436  0.45436  0.00000  0.09128

   Total alpha = 36.00000, Total beta = 36.00000, Total charge = -0.00000

*** Psi4 exiting successfully. Buy a developer a beer!
