  ==> Input File <==

--------------------------------------------------------------------------
set {
	reference rhf
	basis cc-pvtz
}

set_num_threads( 4 )
memory 2 gb

molecule MOL {
0 1

H	 2.341328	 -1.994750	 0.438380
N	 1.360535	 -1.818955	 0.445411
C	 0.866869	 -1.616970	 -0.901934
C	 1.048401	 -0.692292	 1.301592
H	 1.097005	 -2.491469	 -1.498291
H	 1.323898	 -0.751383	 -1.385157
C	 -0.636691	 -1.412524	 -0.862152
H	 1.410079	 -0.896748	 2.301961
H	 1.516899	 0.231716	 0.957589
C	 -0.455397	 -0.489058	 1.338487
H	 -1.112439	 -2.337803	 -0.524345
H	 -0.999579	 -1.202782	 -1.861372
N	 -0.976577	 -0.298712	 -0.000000
H	 -0.687198	 0.388408	 1.930467
H	 -0.918655	 -1.350718	 1.827899
C	 -2.391156	 -0.021003	 -0.000000
H	 -2.853954	 -0.458728	 -0.875714
H	 -2.853954	 -0.458728	 0.875714
H	 -2.614037	 1.049773	 -0.000000

	symmetry c1
}
set optking {
	frozen_dihedral = ("
		7 13 16 19
	")
}

ee = optimize('scf')
oeprop('DIPOLE', 'QUADRUPOLE', 'MULLIKEN_CHARGES')
f=open( 'psi4out.xyz', 'w' )
f.write( "19  " )
f.write( str(ee) + "\n" )
f.write( MOL.save_string_xyz() )
f.close()
--------------------------------------------------------------------------

    Molecular point group: c1
  Charge       = 0
  Multiplicity = 1
  Basis Set: CC-PVTZ
  Basis Set:
  @DF-RHF Final Energy:  -305.30426456417820
    Total Energy =                       -305.3042645641780837
    Molecular point group: c1
  Basis Set: CC-PVTZ
  Basis Set:
  Basis Set: CC-PVTZ
  Basis Set:
  @DF-RHF Final Energy:  -305.30522252872652
    Total Energy =                       -305.3052225287265173
  Basis Set: CC-PVTZ
  Basis Set:
  Basis Set: CC-PVTZ
  Basis Set:
  @DF-RHF Final Energy:  -305.30534017222692
    Total Energy =                       -305.3053401722266926
  Basis Set: CC-PVTZ
  Basis Set:
  Charge       = 0
  Multiplicity = 1
  Basis Set: CC-PVTZ
  Basis Set:

    Orbital Energies (a.u.)
    -----------------------

    Doubly Occupied:

       1A    -15.533109     2A    -15.530930     3A    -11.236781
       4A    -11.236761     5A    -11.235901     6A    -11.235657
       7A    -11.232995     8A     -1.247063     9A     -1.185902
      10A     -1.024036    11A     -0.965478    12A     -0.861949
      13A     -0.858527    14A     -0.756050    15A     -0.692130
      16A     -0.633991    17A     -0.625493    18A     -0.607682
      19A     -0.604671    20A     -0.582444    21A     -0.543799
      22A     -0.534043    23A     -0.511188    24A     -0.489066
      25A     -0.468472    26A     -0.458183    27A     -0.365858
      28A     -0.340885

  @DF-RHF Final Energy:  -305.30534820583563

   => Energetics <=

    Nuclear Repulsion Energy =            339.8514907966581973
    One-Electron Energy =               -1087.1155872098579493
    Two-Electron Energy =                 441.9587482073638967
    DFT Exchange-Correlation Energy =       0.0000000000000000
    Empirical Dispersion Energy =           0.0000000000000000
    PCM Polarization Energy =               0.0000000000000000
    EFP Energy =                            0.0000000000000000
    Total Energy =                       -305.3053482058357986
    Molecular point group: c1
  Basis Set: CC-PVTZ
  Basis Set:

  -Total Gradient:
     Atom            X                  Y                   Z
    ------   -----------------  -----------------  -----------------
       1       -0.000018791448     0.000032885836    -0.000008198533
       2       -0.000062742817    -0.000004978861     0.000013750863
       3        0.000015690684    -0.000030877066     0.000026201149
       4        0.000043691219     0.000028703602    -0.000018072814
       5        0.000073044617    -0.000041940863    -0.000016114992
       6       -0.000046301893    -0.000018212490     0.000012184570
       7        0.000645033634     0.002072495972    -0.002756113584
       8        0.000055403353    -0.000023263178     0.000016141948
       9       -0.000006317109    -0.000008245266     0.000008957521
      10        0.000070627330    -0.000125761977     0.000168726917
      11        0.000038955913     0.000100687385     0.000006123342
      12        0.000006001062     0.000032936170     0.000033225676
      13       -0.000806391881    -0.003107795620     0.002510012620
      14       -0.000004320731     0.000002013339    -0.000040968612
      15       -0.000003486725     0.000051734676    -0.000067933928
      16       -0.000186166762     0.001076209464     0.004788523960
      17       -0.000001803349    -0.000005988004    -0.000012275807
      18        0.000114839476    -0.000097006403    -0.000009924637
      19        0.000073035425     0.000066403281    -0.004654245661

  **** Optimization is complete! (in 4 steps) ****
    Final optimized geometry and variables:
    Molecular point group: c1

    Geometry (in Angstrom), charge = 0, multiplicity = 1:

    H            2.532387179652    -1.061535609756     0.240285533045
    N            1.549984997679    -0.894933816219     0.251822503271
    C            1.048353340307    -0.704101566729    -1.094109398429
    C            1.232596939379     0.233584729194     1.103344623826
    H            1.296445553987    -1.573221661882    -1.691447498929
    H            1.485956521483     0.171678677629    -1.577376524792
    C           -0.459629257244    -0.530406153378    -1.053502161457
    H            1.608616951216     0.041900117544     2.101117482547
    H            1.684813228588     1.160985778300     0.746500659907
    C           -0.273588718172     0.415286469004     1.154482871482
    H           -0.914572633635    -1.473166398970    -0.734725083645
    H           -0.821205574496    -0.310783793516    -2.050271969919
    N           -0.815851201622     0.565030404734    -0.177206565008
    H           -0.511441697378     1.303346195702     1.729043158189
    H           -0.717956569212    -0.440254298010     1.671705761729
    C           -2.222257432855     0.902936020642    -0.182390292202
    H           -2.680278865801     0.561268863862    -1.102252886089
    H           -2.770680400809     0.447422945909     0.641686894680
    H           -2.360940650927     1.978121964263    -0.151637807022

  Mulliken Charges: (a.u.)
   Center  Symbol    Alpha    Beta     Spin     Total
       1     H     0.43995  0.43995  0.00000  0.12010
       2     N     3.64272  3.64272  0.00000 -0.28544
       3     C     3.04182  3.04182  0.00000 -0.08364
       4     C     3.04135  3.04135  0.00000 -0.08270
       5     H     0.45265  0.45265  0.00000  0.09469
       6     H     0.46618  0.46618  0.00000  0.06765
       7     C     3.03207  3.03207  0.00000 -0.06414
       8     H     0.45266  0.45266  0.00000  0.09468
       9     H     0.46601  0.46601  0.00000  0.06798
      10     C     3.03381  3.03381  0.00000 -0.06762
      11     H     0.46998  0.46998  0.00000  0.06003
      12     H     0.45434  0.45434  0.00000  0.09133
      13     N     3.61594  3.61594  0.00000 -0.23188
      14     H     0.45423  0.45423  0.00000  0.09154
      15     H     0.46875  0.46875  0.00000  0.06249
      16     C     3.09420  3.09420  0.00000 -0.18840
      17     H     0.45692  0.45692  0.00000  0.08616
      18     H     0.46580  0.46580  0.00000  0.06839
      19     H     0.45061  0.45061  0.00000  0.09877

   Total alpha = 28.00000, Total beta = 28.00000, Total charge = -0.00000
