  ==> Input File <==

--------------------------------------------------------------------------
set {
	reference rhf
	basis 6-31G*
}

set_num_threads( 4 )
memory 2 gb

molecule MOL {
0 1

H	 0.336193	 -1.674840	 -4.578540
O	 1.272618	 -1.806363	 -4.608241
C	 1.906742	 -0.891523	 -3.750915
C	 1.718345	 -1.221500	 -2.274315
H	 2.958583	 -0.932189	 -4.003205
H	 1.564445	 0.122338	 -3.955121
C	 0.264941	 -1.145875	 -1.800219
H	 2.110631	 -2.218428	 -2.090980
H	 2.325070	 -0.529803	 -1.692243
C	 0.115918	 -1.429151	 -0.302766
H	 -0.332321	 -1.856229	 -2.365056
H	 -0.135922	 -0.155822	 -2.018035
C	 -1.309753	 -1.282496	 0.241564
H	 0.480840	 -2.432385	 -0.090161
H	 0.764986	 -0.748723	 0.244435
C	 -2.037799	 -0.007733	 -0.193645
H	 -1.890610	 -2.142323	 -0.085726
H	 -1.285946	 -1.330893	 1.329189
C	 -3.489788	 0.042957	 0.286558
H	 -2.017067	 0.064384	 -1.280144
H	 -1.513726	 0.868678	 0.179924
C	 -4.216917	 1.317354	 -0.141063
H	 -4.025645	 -0.823308	 -0.095450
H	 -3.513059	 -0.038752	 1.371301
H	 -4.239342	 1.411634	 -1.223113
H	 -5.243387	 1.322503	 0.212445
H	 -3.726170	 2.201406	 0.256408

	symmetry c1
}
set optking {
	frozen_dihedral = ("
		14 10 13 16
	")
}

ee = optimize('scf')
oeprop('DIPOLE', 'QUADRUPOLE', 'MULLIKEN_CHARGES')
f=open( 'psi4out.xyz', 'w' )
f.write( "27  " )
f.write( str(ee) + "\n" )
f.write( MOL.save_string_xyz() )
f.close()
--------------------------------------------------------------------------

    Molecular point group: c1
  Charge       = 0
  Multiplicity = 1
  Basis Set: 6-31G*
  Basis Set:
  @DF-RHF Final Energy:  -388.27890974853636
    Total Energy =                       -388.2789097485363072
    Molecular point group: c1
  Basis Set: 6-31G*
  Basis Set:
  Basis Set: 6-31G*
  Basis Set:
  @DF-RHF Final Energy:  -388.27991687216451
    Total Energy =                       -388.2799168721638807
  Basis Set: 6-31G*
  Basis Set:
  Basis Set: 6-31G*
  Basis Set:
  @DF-RHF Final Energy:  -388.28063941580484
    Total Energy =                       -388.2806394158056946
  Basis Set: 6-31G*
  Basis Set:
  Basis Set: 6-31G*
  Basis Set:
  @DF-RHF Final Energy:  -388.28066749568791
    Total Energy =                       -388.2806674956879078
  Basis Set: 6-31G*
  Basis Set:
  Basis Set: 6-31G*
  Basis Set:
  @DF-RHF Final Energy:  -388.28070753890245
    Total Energy =                       -388.2807075389026750
  Basis Set: 6-31G*
  Basis Set:
  Basis Set: 6-31G*
  Basis Set:
  @DF-RHF Final Energy:  -388.28071187126062
    Total Energy =                       -388.2807118712601095
  Basis Set: 6-31G*
  Basis Set:
  Basis Set: 6-31G*
  Basis Set:
  @DF-RHF Final Energy:  -388.28071292419594
    Total Energy =                       -388.2807129241962230
  Basis Set: 6-31G*
  Basis Set:
  Charge       = 0
  Multiplicity = 1
  Basis Set: 6-31G*
  Basis Set:

    Orbital Energies (a.u.)
    -----------------------

    Doubly Occupied:

       1A    -20.552156     2A    -11.266948     3A    -11.219858
       4A    -11.217647     5A    -11.216546     6A    -11.215942
       7A    -11.215251     8A    -11.214921     9A    -11.210030
      10A     -1.358951    11A     -1.095546    12A     -1.061596
      13A     -1.011419    14A     -0.948310    15A     -0.889373
      16A     -0.820192    17A     -0.804805    18A     -0.773920
      19A     -0.694276    20A     -0.651983    21A     -0.637067
      22A     -0.613267    23A     -0.606699    24A     -0.584981
      25A     -0.575131    26A     -0.553506    27A     -0.546111
      28A     -0.523922    29A     -0.506634    30A     -0.499693
      31A     -0.485597    32A     -0.474942    33A     -0.466157
      34A     -0.458113    35A     -0.454016    36A     -0.442180
      37A     -0.423158

  @DF-RHF Final Energy:  -388.28071299041579

   => Energetics <=

    Nuclear Repulsion Energy =            460.5041402414465779
    One-Electron Energy =               -1438.9880223293880590
    Two-Electron Energy =                 590.2031690975259153
    DFT Exchange-Correlation Energy =       0.0000000000000000
    Empirical Dispersion Energy =           0.0000000000000000
    PCM Polarization Energy =               0.0000000000000000
    EFP Energy =                            0.0000000000000000
    Total Energy =                       -388.2807129904156227
    Molecular point group: c1
  Basis Set: 6-31G*
  Basis Set:

  -Total Gradient:
     Atom            X                  Y                   Z
    ------   -----------------  -----------------  -----------------
       1       -0.000004875202    -0.000001455943     0.000000790390
       2       -0.000017484019     0.000004715868     0.000009025089
       3        0.000024391090    -0.000016774718     0.000003411515
       4       -0.000006276016     0.000011954896    -0.000006152400
       5        0.000005229922     0.000002452324     0.000002319976
       6       -0.000002346348    -0.000004062249     0.000004557796
       7       -0.000000282975     0.000001987767    -0.000001106323
       8        0.000006481178     0.000003344673    -0.000005777163
       9        0.000000460830     0.000004941022    -0.000002131323
      10        0.001033112278     0.000781449906     0.003016267104
      11        0.000003374581     0.000002514568    -0.000006542490
      12       -0.000002102194     0.000002959670    -0.000000952341
      13        0.000914704636     0.001578191329     0.002542806742
      14       -0.001134734637    -0.001101448852    -0.003278659257
      15       -0.000004071024    -0.000006314186    -0.000003208900
      16       -0.000813885760    -0.001265970864    -0.002278728132
      17        0.000004546506     0.000001754802    -0.000000130836
      18       -0.000002584438    -0.000000000625     0.000003538418
      19       -0.000002218617    -0.000002646708    -0.000004668733
      20       -0.000003551004     0.000004958103    -0.000000508373
      21        0.000001886765    -0.000006566027     0.000002592440
      22        0.000001716834     0.000003270958     0.000004527760
      23        0.000002899504    -0.000005312001     0.000002351769
      24       -0.000002982387     0.000005937527    -0.000002647912
      25        0.000000867090    -0.000002051766     0.000001079606
      26       -0.000001003406     0.000000266661    -0.000000577663
      27       -0.000001273194     0.000001903863    -0.000001476756

  **** Optimization is complete! (in 8 steps) ****
    Final optimized geometry and variables:
    Molecular point group: c1

    Geometry (in Angstrom), charge = 0, multiplicity = 1:

    H            0.997785457902    -0.839829126022    -3.141856279899
    O            1.913120400364    -1.077868766439    -3.168145269215
    C            2.639895130029    -0.259819520226    -2.287015315438
    C            2.387528245222    -0.585725372458    -0.819203233099
    H            3.682830795713    -0.425504686145    -2.524649158243
    H            2.427494648656     0.791152798469    -2.479808026884
    C            0.945300611878    -0.342707611139    -0.367195842485
    H            2.655763029839    -1.624434028394    -0.645215969423
    H            3.061305575241     0.021100630010    -0.216297353856
    C            0.745990758096    -0.614319980604     1.127915666245
    H            0.273869666354    -0.985777371332    -0.933935804075
    H            0.667861949646     0.682965177982    -0.600113833450
    C           -0.709553934903    -0.551489173510     1.611798032955
    H            1.125702499783    -1.613190706133     1.330397553759
    H            1.355643673218     0.081217032589     1.700795878962
    C           -1.489335229910     0.699372724610     1.197459575543
    H           -1.240516624904    -1.426633392428     1.240183305509
    H           -0.715594463140    -0.634997200984     2.696249496591
    C           -2.882322840835     0.764527332414     1.827489139620
    H           -1.591073278024     0.730466965219     0.115885829591
    H           -0.928577460992     1.590606106103     1.477831561552
    C           -3.675889190925     1.997951590164     1.397910066229
    H           -3.438760258212    -0.132349703544     1.563023372765
    H           -2.788225160577     0.755769537929     2.911173393505
    H           -3.820048563500     2.016524100043     0.321214830377
    H           -4.656862374674     2.016529500148     1.862600960380
    H           -3.160489915997     2.912678260426     1.677111372070

  Mulliken Charges: (a.u.)
   Center  Symbol    Alpha    Beta     Spin     Total
       1     H     0.27993  0.27993  0.00000  0.44013
       2     O     4.37099  4.37099  0.00000 -0.74198
       3     C     2.99722  2.99722  0.00000  0.00556
       4     C     3.16100  3.16100  0.00000 -0.32200
       5     H     0.41446  0.41446  0.00000  0.17108
       6     H     0.43210  0.43210  0.00000  0.13580
       7     C     3.16536  3.16536  0.00000 -0.33072
       8     H     0.41514  0.41514  0.00000  0.16971
       9     H     0.42420  0.42420  0.00000  0.15160
      10     C     3.15095  3.15095  0.00000 -0.30190
      11     H     0.42562  0.42562  0.00000  0.14876
      12     H     0.42196  0.42196  0.00000  0.15609
      13     C     3.15317  3.15317  0.00000 -0.30633
      14     H     0.42003  0.42003  0.00000  0.15995
      15     H     0.42272  0.42272  0.00000  0.15457
      16     C     3.15342  3.15342  0.00000 -0.30685
      17     H     0.42363  0.42363  0.00000  0.15274
      18     H     0.42093  0.42093  0.00000  0.15815
      19     C     3.15126  3.15126  0.00000 -0.30253
      20     H     0.42307  0.42307  0.00000  0.15386
      21     H     0.42481  0.42481  0.00000  0.15038
      22     C     3.23914  3.23914  0.00000 -0.47827
      23     H     0.42295  0.42295  0.00000  0.15410
      24     H     0.42270  0.42270  0.00000  0.15460
      25     H     0.42238  0.42238  0.00000  0.15524
      26     H     0.41902  0.41902  0.00000  0.16196
      27     H     0.42185  0.42185  0.00000  0.15630

   Total alpha = 37.00000, Total beta = 37.00000, Total charge =  0.00000
