  ==> Input File <==

--------------------------------------------------------------------------
set {
	reference rhf
	basis 6-31G*
}

set_num_threads( 1 )
memory 2 gb

molecule MOL {
0 1

H	 2.591676	 2.013956	 0.335017
O	 3.341076	 1.666752	 -0.126416
C	 3.569581	 0.339145	 0.272707
C	 3.728397	 -0.622244	 -0.899997
H	 4.482049	 0.359685	 0.854647
H	 2.773113	 -0.002828	 0.932610
C	 2.472981	 -0.762251	 -1.764403
H	 4.558413	 -0.282823	 -1.514190
H	 4.005176	 -1.597756	 -0.503592
C	 2.646963	 -1.774398	 -2.900232
H	 2.215187	 0.208129	 -2.179459
H	 1.634673	 -1.068464	 -1.138453
C	 1.390852	 -2.016240	 -3.745239
H	 3.459291	 -1.449566	 -3.547885
H	 2.962115	 -2.723822	 -2.472478
C	 0.929735	 -0.813610	 -4.573207
H	 1.587672	 -2.846701	 -4.420081
H	 0.578396	 -2.340588	 -3.096739
C	 -0.261737	 -1.134492	 -5.478119
H	 1.758670	 -0.459500	 -5.184421
H	 0.660552	 0.011048	 -3.917630
C	 -0.728098	 0.065974	 -6.300951
H	 0.004301	 -1.949296	 -6.148049
H	 -1.087758	 -1.497695	 -4.870124
H	 0.066632	 0.432740	 -6.944465
H	 -1.571759	 -0.193694	 -6.932966
H	 -1.036584	 0.886084	 -5.658596

	symmetry c1
}
set optking {
	frozen_dihedral = ("
		14 10 7 4,
		14 10 13 16,
		10 7 4 8,
		8 4 3 2,
		10 13 16 20,
		20 16 19 22
	")
}

ee = energy('scf')
oeprop('DIPOLE', 'QUADRUPOLE', 'MULLIKEN_CHARGES')
f=open( 'psi4out.xyz', 'w' )
f.write( "27  " )
f.write( str(ee) + "\n" )
f.write( MOL.save_string_xyz() )
f.close()
--------------------------------------------------------------------------

    Molecular point group: c1

    Geometry (in Angstrom), charge = 0, multiplicity = 1:

       Center              X                  Y                   Z               Mass
    ------------   -----------------  -----------------  -----------------  -----------------
           H          0.683683403692     2.525396866432     3.128588344651     1.007825032070
           O          1.433083403692     2.178192866432     2.667155344651    15.994914619560
           C          1.661588403692     0.850585866432     3.066278344651    12.000000000000
           C          1.820404403692    -0.110803133568     1.893574344651    12.000000000000
           H          2.574056403692     0.871125866432     3.648218344651     1.007825032070
           H          0.865120403692     0.508612866432     3.726181344651     1.007825032070
           C          0.564988403692    -0.250810133568     1.029168344651    12.000000000000
           H          2.650420403692     0.228617866432     1.279381344651     1.007825032070
           H          2.097183403692    -1.086315133568     2.289979344651     1.007825032070
           C          0.738970403692    -1.262957133568    -0.106660655349    12.000000000000
           H          0.307194403692     0.719569866432     0.614112344651     1.007825032070
           H         -0.273319596308    -0.557023133568     1.655118344651     1.007825032070
           C         -0.517140596308    -1.504799133568    -0.951667655349    12.000000000000
           H          1.551298403692    -0.938125133568    -0.754313655349     1.007825032070
           H          1.054122403692    -2.212381133568     0.321093344651     1.007825032070
           C         -0.978257596308    -0.302169133568    -1.779635655349    12.000000000000
           H         -0.320320596308    -2.335260133568    -1.626509655349     1.007825032070
           H         -1.329596596308    -1.829147133568    -0.303167655349     1.007825032070
           C         -2.169729596308    -0.623051133568    -2.684547655349    12.000000000000
           H         -0.149322596308     0.051940866432    -2.390849655349     1.007825032070
           H         -1.247440596308     0.522488866432    -1.124058655349     1.007825032070
           C         -2.636090596308     0.577414866432    -3.507379655349    12.000000000000
           H         -1.903691596308    -1.437855133568    -3.354477655349     1.007825032070
           H         -2.995750596308    -0.986254133568    -2.076552655349     1.007825032070
           H         -1.841360596308     0.944180866432    -4.150893655349     1.007825032070
           H         -3.479751596308     0.317746866432    -4.139394655349     1.007825032070
           H         -2.944576596308     1.397524866432    -2.865024655349     1.007825032070

  Charge       = 0
  Multiplicity = 1
  Basis Set: 6-31G*
  Basis Set:

    Orbital Energies (a.u.)
    -----------------------

    Doubly Occupied:

       1A    -20.551341     2A    -11.267362     3A    -11.213313
       4A    -11.212592     5A    -11.211534     6A    -11.210977
       7A    -11.210038     8A    -11.209671     9A    -11.206382
      10A     -1.358750    11A     -1.089965    12A     -1.057405
      13A     -1.008633    14A     -0.944474    15A     -0.881979
      16A     -0.813915    17A     -0.796203    18A     -0.772481
      19A     -0.704112    20A     -0.645663    21A     -0.626570
      22A     -0.624865    23A     -0.589016    24A     -0.579847
      25A     -0.577290    26A     -0.547051    27A     -0.538795
      28A     -0.522160    29A     -0.506591    30A     -0.483063
      31A     -0.479981    32A     -0.474989    33A     -0.462537
      34A     -0.455584    35A     -0.451922    36A     -0.439839
      37A     -0.417219

  @DF-RHF Final Energy:  -388.27981508317731

   => Energetics <=

    Nuclear Repulsion Energy =            458.7926912478582722
    One-Electron Energy =               -1435.8567654231776487
    Two-Electron Energy =                 588.7842590921420651
    DFT Exchange-Correlation Energy =       0.0000000000000000
    Empirical Dispersion Energy =           0.0000000000000000
    PCM Polarization Energy =               0.0000000000000000
    EFP Energy =                            0.0000000000000000
    Total Energy =                       -388.2798150831772546

  Mulliken Charges: (a.u.)
   Center  Symbol    Alpha    Beta     Spin     Total
       1     H     0.27929  0.27929  0.00000  0.44141
       2     O     4.37196  4.37196  0.00000 -0.74392
       3     C     2.99722  2.99722  0.00000  0.00556
       4     C     3.15896  3.15896  0.00000 -0.31793
       5     H     0.42251  0.42251  0.00000  0.15498
       6     H     0.43349  0.43349  0.00000  0.13301
       7     C     3.15808  3.15808  0.00000 -0.31616
       8     H     0.41506  0.41506  0.00000  0.16988
       9     H     0.42436  0.42436  0.00000  0.15127
      10     C     3.15297  3.15297  0.00000 -0.30594
      11     H     0.41032  0.41032  0.00000  0.17935
      12     H     0.42928  0.42928  0.00000  0.14144
      13     C     3.15288  3.15288  0.00000 -0.30576
      14     H     0.42279  0.42279  0.00000  0.15442
      15     H     0.42389  0.42389  0.00000  0.15222
      16     C     3.15258  3.15258  0.00000 -0.30516
      17     H     0.42241  0.42241  0.00000  0.15518
      18     H     0.42501  0.42501  0.00000  0.14997
      19     C     3.15107  3.15107  0.00000 -0.30214
      20     H     0.42396  0.42396  0.00000  0.15208
      21     H     0.42186  0.42186  0.00000  0.15627
      22     C     3.23902  3.23902  0.00000 -0.47804
      23     H     0.42350  0.42350  0.00000  0.15301
      24     H     0.42381  0.42381  0.00000  0.15237
      25     H     0.42163  0.42163  0.00000  0.15673
      26     H     0.41997  0.41997  0.00000  0.16006
      27     H     0.42209  0.42209  0.00000  0.15581

   Total alpha = 37.00000, Total beta = 37.00000, Total charge =  0.00000
