  ==> Input File <==

--------------------------------------------------------------------------
set {
	reference rhf
	basis cc-pvtz
}

set_num_threads( 4 )
memory 2 gb

molecule MOL {
0 1

H	 -2.438932	 -0.600129	 0.785705
O	 -2.313989	 -0.142475	 -0.025864
C	 -0.943808	 -0.065018	 -0.330000
H	 -0.812293	 -0.225641	 -1.398673
C	 -0.231030	 -1.182113	 0.407592
C	 -0.353797	 1.300461	 0.050970
H	 -0.312800	 -0.992012	 1.473041
H	 -0.738841	 -2.119564	 0.220514
C	 1.246176	 -1.268044	 -0.015480
H	 -0.539537	 2.008579	 -0.751815
H	 -0.889989	 1.662858	 0.920677
C	 1.153605	 1.231851	 0.356834
H	 1.823096	 -1.684665	 0.802361
H	 1.352335	 -1.958223	 -0.845114
C	 1.826409	 0.100723	 -0.416008
H	 1.622968	 2.181508	 0.128734
H	 1.301983	 1.066493	 1.419367
H	 2.897299	 0.112407	 -0.249665
H	 1.683458	 0.265621	 -1.480024

	symmetry c1
}
set optking {
	frozen_dihedral = ("
		1 2 3 4
	")
}

ee = optimize('scf')
oeprop('DIPOLE', 'QUADRUPOLE', 'MULLIKEN_CHARGES')
f=open( 'psi4out.xyz', 'w' )
f.write( "19  " )
f.write( str(ee) + "\n" )
f.write( MOL.save_string_xyz() )
f.close()
--------------------------------------------------------------------------

    Molecular point group: c1
  Charge       = 0
  Multiplicity = 1
  Basis Set: CC-PVTZ
  Basis Set:
  @DF-RHF Final Energy:  -309.16025160832214
    Total Energy =                       -309.1602516083218006
    Molecular point group: c1
  Basis Set: CC-PVTZ
  Basis Set:
  Basis Set: CC-PVTZ
  Basis Set:
  @DF-RHF Final Energy:  -309.16148595510924
    Total Energy =                       -309.1614859551088443
  Basis Set: CC-PVTZ
  Basis Set:
  Basis Set: CC-PVTZ
  Basis Set:
  @DF-RHF Final Energy:  -309.16180487636075
    Total Energy =                       -309.1618048763604065
  Basis Set: CC-PVTZ
  Basis Set:
  Basis Set: CC-PVTZ
  Basis Set:
  @DF-RHF Final Energy:  -309.16180968110859
    Total Energy =                       -309.1618096811087071
  Basis Set: CC-PVTZ
  Basis Set:
  Charge       = 0
  Multiplicity = 1
  Basis Set: CC-PVTZ
  Basis Set:

    Orbital Energies (a.u.)
    -----------------------

    Doubly Occupied:

       1A    -20.541272     2A    -11.267232     3A    -11.218933
       4A    -11.217545     5A    -11.215349     6A    -11.214185
       7A    -11.207744     8A     -1.361684     9A     -1.111794
      10A     -1.005602    11A     -0.989945    12A     -0.852180
      13A     -0.836423    14A     -0.750077    15A     -0.674623
      16A     -0.669737    17A     -0.623559    18A     -0.598307
      19A     -0.581254    20A     -0.557517    21A     -0.533017
      22A     -0.521786    23A     -0.501650    24A     -0.493376
      25A     -0.465619    26A     -0.450108    27A     -0.429675
      28A     -0.412276

  @DF-RHF Final Energy:  -309.16181014731859

   => Energetics <=

    Nuclear Repulsion Energy =            331.8256225658231529
    One-Electron Energy =               -1077.3699337802199807
    Two-Electron Energy =                 436.3825010670784650
    DFT Exchange-Correlation Energy =       0.0000000000000000
    Empirical Dispersion Energy =           0.0000000000000000
    PCM Polarization Energy =               0.0000000000000000
    EFP Energy =                            0.0000000000000000
    Total Energy =                       -309.1618101473184197
    Molecular point group: c1
  Basis Set: CC-PVTZ
  Basis Set:

  -Total Gradient:
     Atom            X                  Y                   Z
    ------   -----------------  -----------------  -----------------
       1       -0.000100750699    -0.001406451682    -0.000831885692
       2        0.000138336198     0.001431810257     0.001057863949
       3       -0.000126079874     0.001313677650    -0.000409412524
       4        0.000077855426    -0.001358828499     0.000225519487
       5       -0.000003157517    -0.000005566412    -0.000024299696
       6        0.000047864004    -0.000005327783     0.000007416388
       7        0.000000171099    -0.000003997609    -0.000021254894
       8        0.000000195113    -0.000005707987     0.000009408359
       9       -0.000020396715    -0.000014252434     0.000049859346
      10        0.000016606706     0.000021665872    -0.000008898676
      11        0.000006988677    -0.000012108491    -0.000010076937
      12       -0.000015792208     0.000029833086    -0.000029834979
      13        0.000017608245    -0.000022781283    -0.000001876673
      14       -0.000011479495     0.000004890433    -0.000001021241
      15       -0.000009264601     0.000022509175    -0.000021642311
      16       -0.000004506885     0.000014214954     0.000014544160
      17       -0.000007493106    -0.000000112518     0.000000162807
      18       -0.000011299195    -0.000009435693     0.000001692409
      19        0.000004594822     0.000005968965    -0.000006263283

  **** Optimization is complete! (in 5 steps) ****
    Final optimized geometry and variables:
    Molecular point group: c1

    Geometry (in Angstrom), charge = 0, multiplicity = 1:

    H           -2.529771817480    -0.541573790354     0.707288602428
    O           -2.336627852518    -0.087574042531    -0.092073941335
    C           -0.947678158439    -0.065971050362    -0.317865841671
    H           -0.825224493036    -0.231453404774    -1.382611512545
    C           -0.219157800623    -1.184880705730     0.411137757882
    C           -0.358836626220     1.299068476018     0.061211088724
    H           -0.286137741997    -1.002909912342     1.482025953678
    H           -0.716044789470    -2.129795098533     0.221536418286
    C            1.256893355454    -1.261558199845    -0.020038903809
    H           -0.567175283276     2.004522884131    -0.735241650362
    H           -0.887398560761     1.659508421938     0.936414206864
    C            1.152890167720     1.238078234082     0.346071795176
    H            1.843027316071    -1.667546270911     0.796593466670
    H            1.360357240783    -1.957212739016    -0.845048070472
    C            1.820593564481     0.109369495816    -0.434621502612
    H            1.614873286573     2.189229495926     0.109634920558
    H            1.320682721086     1.075277504914     1.406721019089
    H            2.893984470400     0.126061376604    -0.286127569937
    H            1.658354169852     0.268974994401    -1.496362202068

  Mulliken Charges: (a.u.)
   Center  Symbol    Alpha    Beta     Spin     Total
       1     H     0.39279  0.39279  0.00000  0.21443
       2     O     4.21029  4.21029  0.00000 -0.42057
       3     C     2.92962  2.92962  0.00000  0.14077
       4     H     0.44850  0.44850  0.00000  0.10299
       5     C     3.11560  3.11560  0.00000 -0.23119
       6     C     3.10650  3.10650  0.00000 -0.21300
       7     H     0.45674  0.45674  0.00000  0.08652
       8     H     0.44058  0.44058  0.00000  0.11884
       9     C     3.11271  3.11271  0.00000 -0.22543
      10     H     0.44747  0.44747  0.00000  0.10505
      11     H     0.45047  0.45047  0.00000  0.09907
      12     C     3.10150  3.10150  0.00000 -0.20300
      13     H     0.44737  0.44737  0.00000  0.10527
      14     H     0.44562  0.44562  0.00000  0.10877
      15     C     3.10201  3.10201  0.00000 -0.20402
      16     H     0.44192  0.44192  0.00000  0.11616
      17     H     0.45472  0.45472  0.00000  0.09055
      18     H     0.44272  0.44272  0.00000  0.11455
      19     H     0.45287  0.45287  0.00000  0.09426

   Total alpha = 28.00000, Total beta = 28.00000, Total charge = -0.00000
