                              Psi4 1.0.54 Driver

  ==> Input File <==

--------------------------------------------------------------------------
set {
	reference rhf
	basis cc-pvtz
}

set_num_threads( 4 )
memory 2 gb

molecule MOL {
0 1

H	 -3.436473	 1.252944	 -1.023892
O	 -3.458596	 0.315260	 -0.960865
C	 -3.176635	 -0.080824	 0.355601
C	 -1.763371	 0.265266	 0.799691
H	 -3.321825	 -1.153438	 0.379502
H	 -3.895468	 0.357385	 1.043382
C	 -0.673390	 -0.426948	 -0.013392
H	 -1.631049	 1.344913	 0.747560
H	 -1.664587	 -0.001624	 1.849167
C	 0.737842	 -0.043159	 0.423759
H	 -0.806103	 -0.190518	 -1.063345
H	 -0.797221	 -1.503753	 0.074146
C	 1.824000	 -0.743224	 -0.390623
H	 0.850588	 1.033777	 0.343840
H	 0.868587	 -0.286314	 1.476203
C	 3.101627	 -1.068147	 0.385226
H	 2.075719	 -0.130849	 -1.253458
H	 1.417322	 -1.669715	 -0.786663
C	 3.897788	 0.151402	 0.843454
H	 3.738522	 -1.681678	 -0.244632
H	 2.851191	 -1.679647	 1.248226
H	 4.157456	 0.785290	 0.001530
H	 4.820881	 -0.150882	 1.324875
H	 3.344102	 0.754544	 1.552860

	symmetry c1
}
set optking {
	frozen_dihedral = ("
		17 13 10 7
	")
}

ee,wfn = optimize('scf', return_wfn=True)
oeprop( wfn, 'DIPOLE', 'QUADRUPOLE', 'MULLIKEN_CHARGES')
f=open( 'psi4out.xyz', 'w' )
f.write( "24  " )
f.write( str(ee) + "\n" )
f.write( MOL.save_string_xyz() )
f.close()
--------------------------------------------------------------------------

    Molecular point group: c1
  Charge       = 0
  Multiplicity = 1
  Basis Set: CC-PVTZ
  Basis Set:
  @DF-RHF Final Energy:  -349.37777051531742
    Total Energy =                       -349.3777705153171382
    Molecular point group: c1
  Basis Set: CC-PVTZ
  Basis Set:
  Basis Set: CC-PVTZ
  Basis Set:
  @DF-RHF Final Energy:  -349.37798218857063
    Total Energy =                       -349.3779821885707975
  Basis Set: CC-PVTZ
  Basis Set:
  Basis Set: CC-PVTZ
  Basis Set:
  @DF-RHF Final Energy:  -349.37802734969074
    Total Energy =                       -349.3780273496905693
  Basis Set: CC-PVTZ
  Basis Set:
  Basis Set: CC-PVTZ
  Basis Set:
  @DF-RHF Final Energy:  -349.37811115210542
    Total Energy =                       -349.3781111521055323
  Basis Set: CC-PVTZ
  Basis Set:
  Basis Set: CC-PVTZ
  Basis Set:
  @DF-RHF Final Energy:  -349.37811230391571
    Total Energy =                       -349.3781123039156569
  Basis Set: CC-PVTZ
  Basis Set:
  Charge       = 0
  Multiplicity = 1
  Basis Set: CC-PVTZ
  Basis Set:

    Orbital Energies (a.u.)
    -----------------------

    Doubly Occupied:

       1A    -20.546245     2A    -11.265585     3A    -11.215141
       4A    -11.211819     5A    -11.210476     6A    -11.209429
       7A    -11.209236     8A    -11.205204     9A     -1.364136
      10A     -1.089388    11A     -1.049620    12A     -0.985683
      13A     -0.915577    14A     -0.851542    15A     -0.802664
      16A     -0.775711    17A     -0.682416    18A     -0.652569
      19A     -0.628203    20A     -0.620462    21A     -0.594034
      22A     -0.591704    23A     -0.553022    24A     -0.546261
      25A     -0.516778    26A     -0.504919    27A     -0.503185
      28A     -0.474468    29A     -0.468536    30A     -0.461498
      31A     -0.452560    32A     -0.451206    33A     -0.421231

  @DF-RHF Final Energy:  -349.37811248714627

   => Energetics <=

    Nuclear Repulsion Energy =            384.8174310014499042
    One-Electron Energy =               -1236.3300692077013991
    Two-Electron Energy =                 502.1345257191049996
    DFT Exchange-Correlation Energy =       0.0000000000000000
    Empirical Dispersion Energy =           0.0000000000000000
    PCM Polarization Energy =               0.0000000000000000
    EFP Energy =                            0.0000000000000000
    Total Energy =                       -349.3781124871464954
    Molecular point group: c1
  Basis Set: CC-PVTZ
  Basis Set:

  -Total Gradient:
     Atom            X                  Y                   Z
    ------   -----------------  -----------------  -----------------
       1       -0.000001065316     0.000000198342     0.000001489507
       2       -0.000000621897     0.000004674052     0.000003066197
       3       -0.000000438864    -0.000012774617     0.000008301252
       4       -0.000002959482     0.000017721384    -0.000010297183
       5       -0.000001827177    -0.000000310622    -0.000002576819
       6        0.000000509623    -0.000000279218    -0.000002200234
       7       -0.000007378648    -0.002153857458     0.001845920460
       8        0.000003437381     0.000002036414     0.000002397904
       9       -0.000004689457     0.000000048225    -0.000005196106
      10        0.000673542936     0.003400403492    -0.002091598274
      11        0.000003948874    -0.000000786510     0.000011598319
      12        0.000006164665    -0.000002088135    -0.000002578586
      13       -0.003476778294    -0.002988032324    -0.001768512886
      14       -0.000008514153    -0.000000992665    -0.000003686933
      15        0.000003240714     0.000000497729    -0.000002711588
      16        0.000012160676    -0.000006453399    -0.000028656506
      17        0.002821641147     0.001726780580     0.002051952613
      18        0.000003083648    -0.000000430190    -0.000003660192
      19       -0.000015105340     0.000011746660     0.000006838566
      20       -0.000004982277    -0.000005184631     0.000002525790
      21       -0.000006406380     0.000012707064    -0.000013283044
      22        0.000000400317    -0.000004148978     0.000005467322
      23       -0.000005601810    -0.000003214005     0.000000010802
      24        0.000008239113     0.000001738816    -0.000004610381

  **** Optimization is complete! (in 6 steps) ****
    Final optimized geometry and variables:
    Molecular point group: c1

    Geometry (in Angstrom), charge = 0, multiplicity = 1:

    H           -3.426982583601     1.471811781308    -1.165913947796
    O           -3.473782795846     0.538217914042    -1.066443642137
    C           -3.171080482731     0.184231775363     0.257246554521
    C           -1.738749220124     0.507412793181     0.655310449264
    H           -3.344376333627    -0.882332117978     0.324993835893
    H           -3.861320583526     0.667388514032     0.944221369260
    C           -0.687265622622    -0.241749052542    -0.157486013876
    H           -1.579312461901     1.580564199939     0.562063347192
    H           -1.621403212459     0.274609238592     1.711092338272
    C            0.744287746415     0.099015483093     0.249703038660
    H           -0.831324264738    -0.028885194439    -1.211484005741
    H           -0.842856018583    -1.311201680399    -0.039538414903
    C            1.801440550250    -0.628326778406    -0.593572025987
    H            0.895079371079     1.172454123498     0.193517351550
    H            0.874504645167    -0.168368025737     1.296040022099
    C            3.099286460343    -0.936949122238     0.156209310421
    H            2.054101167112    -0.020394192862    -1.458328145645
    H            1.388266124252    -1.558769435646    -0.968608461219
    C            3.866606974779     0.301820961379     0.610812389064
    H            3.741166435708    -1.530328450611    -0.488015182487
    H            2.875275189408    -1.559140456774     1.018798394514
    H            4.119741522472     0.933846057688    -0.234553650917
    H            4.791399364522     0.025779246475     1.104460785783
    H            3.289900173120     0.899009804525     1.307581092375

  Mulliken Charges: (a.u.)
   Center  Symbol    Alpha    Beta     Spin     Total
       1     H     0.39529  0.39529  0.00000  0.20943
       2     O     4.20379  4.20379  0.00000 -0.40758
       3     C     2.97757  2.97757  0.00000  0.04487
       4     C     3.10293  3.10293  0.00000 -0.20585
       5     H     0.45899  0.45899  0.00000  0.08201
       6     H     0.46045  0.46045  0.00000  0.07909
       7     C     3.08672  3.08672  0.00000 -0.17344
       8     H     0.45892  0.45892  0.00000  0.08217
       9     H     0.45332  0.45332  0.00000  0.09337
      10     C     3.09557  3.09557  0.00000 -0.19114
      11     H     0.44605  0.44605  0.00000  0.10789
      12     H     0.45527  0.45527  0.00000  0.08947
      13     C     3.09531  3.09531  0.00000 -0.19061
      14     H     0.45082  0.45082  0.00000  0.09835
      15     H     0.45570  0.45570  0.00000  0.08861
      16     C     3.08964  3.08964  0.00000 -0.17928
      17     H     0.45302  0.45302  0.00000  0.09396
      18     H     0.44831  0.44831  0.00000  0.10338
      19     C     3.15118  3.15118  0.00000 -0.30235
      20     H     0.44938  0.44938  0.00000  0.10124
      21     H     0.45591  0.45591  0.00000  0.08818
      22     H     0.45522  0.45522  0.00000  0.08957
      23     H     0.44702  0.44702  0.00000  0.10595
      24     H     0.45364  0.45364  0.00000  0.09272

   Total alpha = 33.00000, Total beta = 33.00000, Total charge = -0.00000

*** Psi4 exiting successfully. Buy a developer a beer!
