                              Psi4 1.0.54 Driver

  ==> Input File <==

--------------------------------------------------------------------------
set {
	reference rhf
	basis cc-pvtz
}

set_num_threads( 4 )
memory 2 gb

molecule MOL {
0 1

O	 0.074770	 1.259872	 0.000487
C	 0.029490	 0.077183	 0.000078
C	 -1.232113	 -0.748027	 0.000015
O	 1.106773	 -0.690081	 -0.000204
C	 -2.501422	 0.088592	 -0.000052
H	 -1.188777	 -1.400384	 -0.865133
H	 -1.188857	 -1.400312	 0.865225
H	 -2.548170	 0.725504	 -0.873205
H	 -3.371613	 -0.556398	 -0.000040
H	 -2.548215	 0.725571	 0.873047
C	 2.352642	 -0.059271	 -0.218220
H	 2.370606	 0.425988	 -1.182811
H	 3.093107	 -0.841688	 -0.181338
H	 2.547509	 0.675003	 0.549318

	symmetry c1
}
set optking {
	frozen_dihedral = ("
		11 4 2 3
	")
}

ee,wfn = optimize('scf', return_wfn=True)
oeprop( wfn, 'DIPOLE', 'QUADRUPOLE', 'MULLIKEN_CHARGES')
f=open( 'psi4out.xyz', 'w' )
f.write( "14  " )
f.write( str(ee) + "\n" )
f.write( MOL.save_string_xyz() )
f.close()
--------------------------------------------------------------------------

    Molecular point group: c1
  Charge       = 0
  Multiplicity = 1
  Basis Set: CC-PVTZ
  Basis Set:
  @DF-RHF Final Energy:  -305.98708781275275
    Total Energy =                       -305.9870878127529181
    Molecular point group: c1
  Basis Set: CC-PVTZ
  Basis Set:
  Basis Set: CC-PVTZ
  Basis Set:
  @DF-RHF Final Energy:  -305.98612534532890
    Total Energy =                       -305.9861253453289009
  Basis Set: CC-PVTZ
  Basis Set:
  Basis Set: CC-PVTZ
  Basis Set:
  @DF-RHF Final Energy:  -305.98716473888385
    Total Energy =                       -305.9871647388837346
  Basis Set: CC-PVTZ
  Basis Set:
  Basis Set: CC-PVTZ
  Basis Set:
  @DF-RHF Final Energy:  -305.98719434524344
    Total Energy =                       -305.9871943452434380
  Basis Set: CC-PVTZ
  Basis Set:
  Basis Set: CC-PVTZ
  Basis Set:
  @DF-RHF Final Energy:  -305.98720905479479
    Total Energy =                       -305.9872090547949028
  Basis Set: CC-PVTZ
  Basis Set:
  Basis Set: CC-PVTZ
  Basis Set:
  @DF-RHF Final Energy:  -305.98721160989578
    Total Energy =                       -305.9872116098953256
  Basis Set: CC-PVTZ
  Basis Set:
  Charge       = 0
  Multiplicity = 1
  Basis Set: CC-PVTZ
  Basis Set:

    Orbital Energies (a.u.)
    -----------------------

    Doubly Occupied:

       1A    -20.596810     2A    -20.535145     3A    -11.365306
       4A    -11.279326     5A    -11.237344     6A    -11.214958
       7A     -1.472838     8A     -1.366795     9A     -1.065443
      10A     -0.981144    11A     -0.879274    12A     -0.770970
      13A     -0.702849    14A     -0.685785    15A     -0.675610
      16A     -0.621692    17A     -0.604304    18A     -0.546922
      19A     -0.538744    20A     -0.522586    21A     -0.515652
      22A     -0.497354    23A     -0.461301    24A     -0.442493

  @DF-RHF Final Energy:  -305.98721139790200

   => Energetics <=

    Nuclear Repulsion Energy =            247.5427425514552908
    One-Electron Energy =                -907.8986130966360406
    Two-Electron Energy =                 354.3686591472785494
    DFT Exchange-Correlation Energy =       0.0000000000000000
    Empirical Dispersion Energy =           0.0000000000000000
    PCM Polarization Energy =               0.0000000000000000
    EFP Energy =                            0.0000000000000000
    Total Energy =                       -305.9872113979022288
    Molecular point group: c1
  Basis Set: CC-PVTZ
  Basis Set:

  -Total Gradient:
     Atom            X                  Y                   Z
    ------   -----------------  -----------------  -----------------
       1        0.000017859352    -0.000055553281    -0.000140447465
       2       -0.000229509366     0.000068134226     0.002243996099
       3        0.000053438316    -0.000154486757    -0.002254685325
       4        0.000351576332     0.000672584852     0.002503494104
       5        0.000000779219    -0.000012338360     0.000000741841
       6        0.000001704482     0.000001136136     0.000004866530
       7       -0.000001476261    -0.000004780711    -0.000001161078
       8        0.000000249043     0.000000223946     0.000001695762
       9       -0.000002356958     0.000003125847    -0.000000832663
      10       -0.000000113274     0.000001587830    -0.000001686806
      11       -0.000189506481    -0.000522506126    -0.002372659614
      12       -0.000000311394     0.000000497262     0.000006254433
      13        0.000003673033     0.000003390421     0.000004394073
      14       -0.000006006045    -0.000001015287     0.000006030108

  **** Optimization is complete! (in 7 steps) ****
    Final optimized geometry and variables:
    Molecular point group: c1

    Geometry (in Angstrom), charge = 0, multiplicity = 1:

    O            0.073521161266     1.259418423213    -0.097864637058
    C            0.029949034034     0.082264164302     0.015733006552
    C           -1.229640028197    -0.745229165833     0.037316711305
    O            1.108938600420    -0.679109673355     0.099258446130
    C           -2.500192439878     0.087928185304     0.089746345621
    H           -1.204759725755    -1.366864042156    -0.851654319021
    H           -1.165171283289    -1.426515821761     0.877652203534
    H           -2.565428219583     0.751886403833    -0.761278991965
    H           -3.369203540095    -0.558605966470     0.088515825643
    H           -2.530246345865     0.696730357804     0.983944774831
    C            2.359044832672    -0.059540744602    -0.126849992518
    H            2.383250137830     0.398387181856    -1.104855281805
    H            3.095723307135    -0.843936018951    -0.064827098864
    H            2.554476680730     0.694803229213     0.620514991127

  Mulliken Charges: (a.u.)
   Center  Symbol    Alpha    Beta     Spin     Total
       1     O     4.19586  4.19586  0.00000 -0.39173
       2     C     2.80278  2.80278  0.00000  0.39444
       3     C     3.09387  3.09387  0.00000 -0.18773
       4     O     4.14748  4.14748  0.00000 -0.29495
       5     C     3.14012  3.14012  0.00000 -0.28024
       6     H     0.44278  0.44278  0.00000  0.11444
       7     H     0.44001  0.44001  0.00000  0.11998
       8     H     0.44686  0.44686  0.00000  0.10628
       9     H     0.45029  0.45029  0.00000  0.09942
      10     H     0.44967  0.44967  0.00000  0.10066
      11     C     3.03605  3.03605  0.00000 -0.07211
      12     H     0.45599  0.45599  0.00000  0.08802
      13     H     0.44551  0.44551  0.00000  0.10898
      14     H     0.45273  0.45273  0.00000  0.09454

   Total alpha = 24.00000, Total beta = 24.00000, Total charge =  0.00000

*** Psi4 exiting successfully. Buy a developer a beer!
