  ==> Input File <==

--------------------------------------------------------------------------
set {
	reference rhf
	basis 6-31G*
}

set_num_threads( 4 )
memory 2 gb

molecule MOL {
0 1

H	 2.914894	 0.368920	 1.346103
O	 2.213407	 0.919245	 1.028695
C	 1.135793	 0.118896	 0.612333
C	 0.031547	 1.023609	 0.088541
H	 0.753257	 -0.468006	 1.445460
H	 1.455133	 -0.581149	 -0.156472
C	 -1.134819	 0.293262	 -0.585751
H	 0.474374	 1.714721	 -0.623187
H	 -0.338529	 1.620940	 0.920081
C	 -1.917817	 -0.639439	 0.339494
H	 -0.758119	 -0.268455	 -1.433105
H	 -1.813832	 1.041889	 -0.986690
H	 -2.777680	 -1.057197	 -0.174994
H	 -1.310268	 -1.471279	 0.680599
H	 -2.283753	 -0.111424	 1.216626

	symmetry c1
}
set optking {
	frozen_dihedral = ("
		2 3 4 8
	")
}

ee = optimize('scf')
oeprop('DIPOLE', 'QUADRUPOLE', 'MULLIKEN_CHARGES')
f=open( 'psi4out.xyz', 'w' )
f.write( "15  " )
f.write( str(ee) + "\n" )
f.write( MOL.save_string_xyz() )
f.close()
--------------------------------------------------------------------------

    Molecular point group: c1
  Charge       = 0
  Multiplicity = 1
  Basis Set: 6-31G*
  Basis Set:
  @DF-RHF Final Energy:  -232.14304199563378
    Total Energy =                       -232.1430419956336095
    Molecular point group: c1
  Basis Set: 6-31G*
  Basis Set:
  Basis Set: 6-31G*
  Basis Set:
  @DF-RHF Final Energy:  -232.14324454529282
    Total Energy =                       -232.1432445452926459
  Basis Set: 6-31G*
  Basis Set:
  Basis Set: 6-31G*
  Basis Set:
  @DF-RHF Final Energy:  -232.14323948536946
    Total Energy =                       -232.1432394853698042
  Basis Set: 6-31G*
  Basis Set:
  Basis Set: 6-31G*
  Basis Set:
  @DF-RHF Final Energy:  -232.14327320185291
    Total Energy =                       -232.1432732018528213
  Basis Set: 6-31G*
  Basis Set:
  Basis Set: 6-31G*
  Basis Set:
  @DF-RHF Final Energy:  -232.14327746682270
    Total Energy =                       -232.1432774668226671
  Basis Set: 6-31G*
  Basis Set:
  Charge       = 0
  Multiplicity = 1
  Basis Set: 6-31G*
  Basis Set:

    Orbital Energies (a.u.)
    -----------------------

    Doubly Occupied:

       1A    -20.551979     2A    -11.267013     3A    -11.218691
       4A    -11.211472     5A    -11.211136     6A     -1.358712
       7A     -1.069767     8A     -0.970815     9A     -0.869643
      10A     -0.784568    11A     -0.695371    12A     -0.650935
      13A     -0.616302    14A     -0.584964    15A     -0.556193
      16A     -0.537118    17A     -0.507675    18A     -0.473701
      19A     -0.473231    20A     -0.456177    21A     -0.433259

  @DF-RHF Final Energy:  -232.14327751762207

   => Energetics <=

    Nuclear Repulsion Energy =            188.1185385385333859
    One-Electron Energy =                -687.5261825070040231
    Two-Electron Energy =                 267.2643664508487973
    DFT Exchange-Correlation Energy =       0.0000000000000000
    Empirical Dispersion Energy =           0.0000000000000000
    PCM Polarization Energy =               0.0000000000000000
    EFP Energy =                            0.0000000000000000
    Total Energy =                       -232.1432775176218684
    Molecular point group: c1
  Basis Set: 6-31G*
  Basis Set:

  -Total Gradient:
     Atom            X                  Y                   Z
    ------   -----------------  -----------------  -----------------
       1        0.000000608201    -0.000001645121    -0.000001541146
       2        0.000238674941    -0.000028776049    -0.000588591542
       3       -0.000284408468     0.000146568691     0.000886196644
       4       -0.000092385293    -0.000629960744    -0.000926593243
       5        0.000001313036    -0.000001619562     0.000007392561
       6        0.000002013152     0.000001306464     0.000000938291
       7       -0.000000580043     0.000002588416     0.000000685552
       8        0.000145507007     0.000531965428     0.000616777904
       9        0.000003135450    -0.000006025053     0.000003541844
      10       -0.000005446077    -0.000011965119    -0.000009313371
      11       -0.000009820906    -0.000002563594     0.000007705382
      12        0.000006615684     0.000005937475    -0.000001163764
      13       -0.000002713046    -0.000008186322     0.000005546508
      14        0.000000192661     0.000000523453     0.000003681247
      15       -0.000002706306     0.000001851634    -0.000005262868

  **** Optimization is complete! (in 6 steps) ****
    Final optimized geometry and variables:
    Molecular point group: c1

    Geometry (in Angstrom), charge = 0, multiplicity = 1:

    H            2.777334844624     0.047598555770     1.049235027751
    O            2.084505791098     0.587435575097     0.696414376090
    C            1.020707735249    -0.226969772658     0.272990440536
    C           -0.089150205800     0.682737025974    -0.229339899037
    H            0.669721992245    -0.848891375368     1.093090454795
    H            1.344861679497    -0.891975847604    -0.527179067167
    C           -1.250106971560    -0.051395057651    -0.906962429122
    H            0.356720163019     1.385432312628    -0.926829032527
    H           -0.458078458138     1.272342009438     0.606160372824
    C           -2.049682209250    -0.970019052427     0.020071693336
    H           -0.872522321843    -0.627766049472    -1.749234056462
    H           -1.922617031650     0.690950881575    -1.327915364474
    H           -2.902139926298    -1.395457949513    -0.500216367522
    H           -1.451227686796    -1.796529330633     0.390296181154
    H           -2.426544291906    -0.423671856165     0.880306860196

  Mulliken Charges: (a.u.)
   Center  Symbol    Alpha    Beta     Spin     Total
       1     H     0.28124  0.28124  0.00000  0.43751
       2     O     4.37168  4.37168  0.00000 -0.74336
       3     C     2.99208  2.99208  0.00000  0.01584
       4     C     3.15987  3.15987  0.00000 -0.31974
       5     H     0.43085  0.43085  0.00000  0.13830
       6     H     0.43324  0.43324  0.00000  0.13352
       7     C     3.16032  3.16032  0.00000 -0.32065
       8     H     0.41148  0.41148  0.00000  0.17704
       9     H     0.41672  0.41672  0.00000  0.16655
      10     C     3.24186  3.24186  0.00000 -0.48371
      11     H     0.42248  0.42248  0.00000  0.15504
      12     H     0.41771  0.41771  0.00000  0.16458
      13     H     0.41812  0.41812  0.00000  0.16376
      14     H     0.42217  0.42217  0.00000  0.15566
      15     H     0.42017  0.42017  0.00000  0.15966

   Total alpha = 21.00000, Total beta = 21.00000, Total charge =  0.00000
