  ==> Input File <==

--------------------------------------------------------------------------
set {
	reference rhf
	basis 6-31G*
}

set_num_threads( 4 )
memory 2 gb

molecule MOL {
0 1

H	 2.176868	 -0.646004	 -0.217325
O	 1.337496	 -0.537251	 0.205931
C	 0.702312	 0.627605	 -0.264544
C	 -0.714990	 0.596302	 0.266387
H	 0.682322	 0.642550	 -1.350929
H	 1.215941	 1.520383	 0.085680
O	 -1.405996	 -0.526611	 -0.195820
H	 -1.257453	 1.468809	 -0.075599
H	 -0.688972	 0.618407	 1.353696
H	 -1.166728	 -0.659197	 -1.104217

	symmetry c1
}
set optking {
	frozen_dihedral = ("
		10 7 4 3
	")
}

ee = optimize('scf')
oeprop('DIPOLE', 'QUADRUPOLE', 'MULLIKEN_CHARGES')
f=open( 'psi4out.xyz', 'w' )
f.write( "10  " )
f.write( str(ee) + "\n" )
f.write( MOL.save_string_xyz() )
f.close()
--------------------------------------------------------------------------

    Molecular point group: c1
  Charge       = 0
  Multiplicity = 1
  Basis Set: 6-31G*
  Basis Set:
  @DF-RHF Final Energy:  -228.91635521112153
    Total Energy =                       -228.9163552111215267
    Molecular point group: c1
  Basis Set: 6-31G*
  Basis Set:
  Basis Set: 6-31G*
  Basis Set:
  @DF-RHF Final Energy:  -228.91835941138638
    Total Energy =                       -228.9183594113864615
  Basis Set: 6-31G*
  Basis Set:
  Basis Set: 6-31G*
  Basis Set:
  @DF-RHF Final Energy:  -228.91864056262739
    Total Energy =                       -228.9186405626274450
  Basis Set: 6-31G*
  Basis Set:
  Basis Set: 6-31G*
  Basis Set:
  @DF-RHF Final Energy:  -228.91865363888641
    Total Energy =                       -228.9186536388863260
  Basis Set: 6-31G*
  Basis Set:
  Charge       = 0
  Multiplicity = 1
  Basis Set: 6-31G*
  Basis Set:

    Orbital Energies (a.u.)
    -----------------------

    Doubly Occupied:

       1A    -20.562384     2A    -20.551298     3A    -11.280357
       4A    -11.270050     5A     -1.377844     6A     -1.353066
       7A     -1.004158     8A     -0.848085     9A     -0.720275
      10A     -0.674132    11A     -0.659784    12A     -0.598075
      13A     -0.571673    14A     -0.546971    15A     -0.472989
      16A     -0.449277    17A     -0.437444

  @DF-RHF Final Energy:  -228.91865443118920

   => Energetics <=

    Nuclear Repulsion Energy =            133.6278685667442971
    One-Electron Energy =                -578.3373188849257076
    Two-Electron Energy =                 215.7907958869921572
    DFT Exchange-Correlation Energy =       0.0000000000000000
    Empirical Dispersion Energy =           0.0000000000000000
    PCM Polarization Energy =               0.0000000000000000
    EFP Energy =                            0.0000000000000000
    Total Energy =                       -228.9186544311892817
    Molecular point group: c1
  Basis Set: 6-31G*
  Basis Set:

  -Total Gradient:
     Atom            X                  Y                   Z
    ------   -----------------  -----------------  -----------------
       1       -0.000001259369     0.000009230306    -0.000003938598
       2       -0.000037949885     0.000065520148     0.000005587692
       3       -0.000171884598     0.000158021028    -0.000306447354
       4        0.000264923818    -0.000375655030     0.000447089956
       5        0.000011352974     0.000000950963    -0.000005505439
       6        0.000033669124    -0.000014454034     0.000025795544
       7       -0.000555083184     0.000481048180    -0.000327084755
       8        0.000033564721     0.000000839074    -0.000007004580
       9        0.000016510022     0.000016787986     0.000022754042
      10        0.000406156370    -0.000342288619     0.000148753493

  **** Optimization is complete! (in 5 steps) ****
    Final optimized geometry and variables:
    Molecular point group: c1

    Geometry (in Angstrom), charge = 0, multiplicity = 1:

    H            2.271112107406    -0.558585201900    -0.110434530051
    O            1.379234130463    -0.555854377842     0.206714859749
    C            0.719017952707     0.590634661021    -0.247189181969
    C           -0.703570556588     0.584691838506     0.273892229657
    H            0.708302403477     0.626064223758    -1.338332042043
    H            1.212340301501     1.496766958843     0.101136300602
    O           -1.457628782662    -0.510302586031    -0.158818926926
    H           -1.177401092717     1.521335062413    -0.018836021480
    H           -0.689031244557     0.540547409396     1.354612844367
    H           -1.265071954303    -0.699855022074    -1.066238376679

  Mulliken Charges: (a.u.)
   Center  Symbol    Alpha    Beta     Spin     Total
       1     H     0.27923  0.27923  0.00000  0.44154
       2     O     4.36169  4.36169  0.00000 -0.72338
       3     C     3.01908  3.01908  0.00000 -0.03816
       4     C     2.98834  2.98834  0.00000  0.02331
       5     H     0.43562  0.43562  0.00000  0.12875
       6     H     0.42747  0.42747  0.00000  0.14505
       7     O     4.36567  4.36567  0.00000 -0.73133
       8     H     0.43139  0.43139  0.00000  0.13723
       9     H     0.40960  0.40960  0.00000  0.18079
      10     H     0.28190  0.28190  0.00000  0.43619

   Total alpha = 17.00000, Total beta = 17.00000, Total charge =  0.00000
