  ==> Input File <==

--------------------------------------------------------------------------
set {
	reference rhf
	basis 6-31G*
}

set_num_threads( 1 )
memory 2 gb

molecule MOL {
0 1

H	 -0.918544	 3.057112	 -1.808981
C	 -0.137482	 3.060990	 -1.038559
C	 -0.565689	 2.529807	 0.305723
O	 0.950535	 3.464891	 -1.293183
C	 -1.220012	 1.144545	 0.209990
H	 0.298329	 2.518147	 0.959974
H	 -1.284987	 3.238076	 0.715139
C	 -0.252658	 0.041456	 -0.226725
H	 -1.638441	 0.894072	 1.180281
H	 -2.061361	 1.189316	 -0.479854
C	 1.180775	 0.282413	 0.250794
H	 -0.266029	 -0.034465	 -1.312038
H	 -0.597733	 -0.921000	 0.146291
C	 2.148627	 -0.814315	 -0.201312
H	 1.516199	 1.249228	 -0.115937
H	 1.192670	 0.346017	 1.338083
C	 3.580890	 -0.659131	 0.322722
H	 2.166869	 -0.852443	 -1.289387
H	 1.762857	 -1.776509	 0.128956
C	 4.324889	 0.564933	 -0.213704
H	 4.142010	 -1.551473	 0.056605
H	 3.564836	 -0.624694	 1.410140
H	 4.342616	 0.565491	 -1.300421
H	 3.866655	 1.493402	 0.110242
H	 5.353900	 0.572371	 0.132816

	symmetry c1
}
set optking {
	frozen_dihedral = ("
		6 3 5 8,
		6 3 2 4,
		12 8 11 14,
		8 11 14 18,
		20 17 14 18
	")
}

ee = energy('scf')
oeprop('DIPOLE', 'QUADRUPOLE', 'MULLIKEN_CHARGES')
f=open( 'psi4out.xyz', 'w' )
f.write( "25  " )
f.write( str(ee) + "\n" )
f.write( MOL.save_string_xyz() )
f.close()
--------------------------------------------------------------------------

    Molecular point group: c1

    Geometry (in Angstrom), charge = 0, multiplicity = 1:

       Center              X                  Y                   Z               Mass
    ------------   -----------------  -----------------  -----------------  -----------------
           H         -2.054379848256     1.974807924732    -1.591167450896     1.007825032070
           C         -1.273317848256     1.978685924732    -0.820745450896    12.000000000000
           C         -1.701524848256     1.447502924732     0.523536549104    12.000000000000
           O         -0.185300848256     2.382586924732    -1.075369450896    15.994914619560
           C         -2.355847848256     0.062240924732     0.427803549104    12.000000000000
           H         -0.837506848256     1.435842924732     1.177787549104     1.007825032070
           H         -2.420822848256     2.155771924732     0.932952549104     1.007825032070
           C         -1.388493848256    -1.040848075268    -0.008911450896    12.000000000000
           H         -2.774276848256    -0.188232075268     1.398094549104     1.007825032070
           H         -3.197196848256     0.107011924732    -0.262040450896     1.007825032070
           C          0.044939151744    -0.799891075268     0.468607549104    12.000000000000
           H         -1.401864848256    -1.116769075268    -1.094224450896     1.007825032070
           H         -1.733568848256    -2.003304075268     0.364104549104     1.007825032070
           C          1.012791151744    -1.896619075268     0.016501549104    12.000000000000
           H          0.380363151744     0.166923924732     0.101876549104     1.007825032070
           H          0.056834151744    -0.736287075268     1.555896549104     1.007825032070
           C          2.445054151744    -1.741435075268     0.540535549104    12.000000000000
           H          1.031033151744    -1.934747075268    -1.071573450896     1.007825032070
           H          0.627021151744    -2.858813075268     0.346769549104     1.007825032070
           C          3.189053151744    -0.517371075268     0.004109549104    12.000000000000
           H          3.006174151744    -2.633777075268     0.274418549104     1.007825032070
           H          2.429000151744    -1.706998075268     1.627953549104     1.007825032070
           H          3.206780151744    -0.516813075268    -1.082607450896     1.007825032070
           H          2.730819151744     0.411097924732     0.328055549104     1.007825032070
           H          4.218064151744    -0.509933075268     0.350629549104     1.007825032070

  Charge       = 0
  Multiplicity = 1
  Basis Set: 6-31G*
  Basis Set:

    Orbital Energies (a.u.)
    -----------------------

    Doubly Occupied:

       1A    -20.564911     2A    -11.328290     3A    -11.234579
       4A    -11.233965     5A    -11.221946     6A    -11.212731
       7A    -11.212192     8A    -11.211643     9A    -11.201755
      10A     -1.405194    11A     -1.105503    12A     -1.063706
      13A     -1.005025    14A     -0.942065    15A     -0.877758
      16A     -0.819728    17A     -0.787304    18A     -0.767678
      19A     -0.669215    20A     -0.660286    21A     -0.635882
      22A     -0.617343    23A     -0.602079    24A     -0.596967
      25A     -0.564895    26A     -0.546440    27A     -0.537999
      28A     -0.521911    29A     -0.511682    30A     -0.496692
      31A     -0.475034    32A     -0.474724    33A     -0.458642
      34A     -0.448731    35A     -0.440951    36A     -0.410631

  @DF-RHF Final Energy:  -387.11439857386193

   => Energetics <=

    Nuclear Repulsion Energy =            462.2602180333830688
    One-Electron Energy =               -1441.0168000990247492
    Two-Electron Energy =                 591.6421834917797469
    DFT Exchange-Correlation Energy =       0.0000000000000000
    Empirical Dispersion Energy =           0.0000000000000000
    PCM Polarization Energy =               0.0000000000000000
    EFP Energy =                            0.0000000000000000
    Total Energy =                       -387.1143985738618767

  Mulliken Charges: (a.u.)
   Center  Symbol    Alpha    Beta     Spin     Total
       1     H     0.42986  0.42986  0.00000  0.14027
       2     C     2.82960  2.82960  0.00000  0.34079
       3     C     3.21901  3.21901  0.00000 -0.43802
       4     O     4.23938  4.23938  0.00000 -0.47875
       5     C     3.16437  3.16437  0.00000 -0.32874
       6     H     0.39497  0.39497  0.00000  0.21006
       7     H     0.40443  0.40443  0.00000  0.19115
       8     C     3.15762  3.15762  0.00000 -0.31523
       9     H     0.41197  0.41197  0.00000  0.17606
      10     H     0.41739  0.41739  0.00000  0.16523
      11     C     3.17008  3.17008  0.00000 -0.34016
      12     H     0.42057  0.42057  0.00000  0.15886
      13     H     0.41708  0.41708  0.00000  0.16584
      14     C     3.15035  3.15035  0.00000 -0.30070
      15     H     0.40340  0.40340  0.00000  0.19321
      16     H     0.42491  0.42491  0.00000  0.15018
      17     C     3.15253  3.15253  0.00000 -0.30507
      18     H     0.42318  0.42318  0.00000  0.15363
      19     H     0.42428  0.42428  0.00000  0.15143
      20     C     3.24185  3.24185  0.00000 -0.48370
      21     H     0.42171  0.42171  0.00000  0.15658
      22     H     0.42461  0.42461  0.00000  0.15078
      23     H     0.42094  0.42094  0.00000  0.15813
      24     H     0.41527  0.41527  0.00000  0.16946
      25     H     0.42064  0.42064  0.00000  0.15872

   Total alpha = 36.00000, Total beta = 36.00000, Total charge =  0.00000
