  ==> Input File <==

--------------------------------------------------------------------------
set {
	reference rhf
	basis 6-31G*
}

set_num_threads( 4 )
memory 2 gb

molecule MOL {
0 1

H	 -0.807229	 1.689256	 -0.134615
O	 0.055946	 1.300438	 -0.164479
C	 0.004957	 -0.004114	 0.366649
C	 1.201664	 -0.828089	 -0.095740
C	 -1.317755	 -0.601827	 -0.081511
H	 0.013527	 0.048298	 1.454924
H	 1.216388	 -0.895289	 -1.178704
H	 2.135132	 -0.372895	 0.226467
H	 1.166770	 -1.832878	 0.313827
H	 -1.355732	 -0.658248	 -1.164429
H	 -2.141614	 0.017037	 0.254547
H	 -1.447303	 -1.600817	 0.322594

	symmetry c1
}
set optking {
	frozen_dihedral = ("
		1 2 3 4
	")
}

ee = optimize('scf')
oeprop('DIPOLE', 'QUADRUPOLE', 'MULLIKEN_CHARGES')
f=open( 'psi4out.xyz', 'w' )
f.write( "12  " )
f.write( str(ee) + "\n" )
f.write( MOL.save_string_xyz() )
f.close()
--------------------------------------------------------------------------

    Molecular point group: c1
  Charge       = 0
  Multiplicity = 1
  Basis Set: 6-31G*
  Basis Set:
  @DF-RHF Final Energy:  -193.11238507717971
    Total Energy =                       -193.1123850771797947
    Molecular point group: c1
  Basis Set: 6-31G*
  Basis Set:
  Basis Set: 6-31G*
  Basis Set:
  @DF-RHF Final Energy:  -193.11413904839270
    Total Energy =                       -193.1141390483927012
  Basis Set: 6-31G*
  Basis Set:
  Basis Set: 6-31G*
  Basis Set:
  @DF-RHF Final Energy:  -193.11456253859365
    Total Energy =                       -193.1145625385937308
  Basis Set: 6-31G*
  Basis Set:
  Basis Set: 6-31G*
  Basis Set:
  @DF-RHF Final Energy:  -193.11456878614223
    Total Energy =                       -193.1145687861422289
  Basis Set: 6-31G*
  Basis Set:
  Charge       = 0
  Multiplicity = 1
  Basis Set: 6-31G*
  Basis Set:

    Orbital Energies (a.u.)
    -----------------------

    Doubly Occupied:

       1A    -20.550297     2A    -11.275517     3A    -11.216949
       4A    -11.206385     5A     -1.359791     6A     -1.042410
       7A     -0.941683     8A     -0.805247     9A     -0.689471
      10A     -0.635560    11A     -0.605936    12A     -0.546843
      13A     -0.534766    14A     -0.527131    15A     -0.512374
      16A     -0.468027    17A     -0.429063

  @DF-RHF Final Energy:  -193.11456942271107

   => Energetics <=

    Nuclear Repulsion Energy =            135.5986593804161373
    One-Electron Energy =                -530.7315581920975092
    Two-Electron Energy =                 202.0183293889703293
    DFT Exchange-Correlation Energy =       0.0000000000000000
    Empirical Dispersion Energy =           0.0000000000000000
    PCM Polarization Energy =               0.0000000000000000
    EFP Energy =                            0.0000000000000000
    Total Energy =                       -193.1145694227110141
    Molecular point group: c1
  Basis Set: 6-31G*
  Basis Set:

  -Total Gradient:
     Atom            X                  Y                   Z
    ------   -----------------  -----------------  -----------------
       1       -0.000365937880    -0.000712975300    -0.001872385195
       2        0.000256962598     0.000792011290     0.001983791277
       3        0.000726352321     0.000324222415     0.000853801422
       4       -0.000642750377    -0.000371738274    -0.000976553595
       5       -0.000009010587    -0.000001879456     0.000002478893
       6        0.000010882162    -0.000031454143    -0.000015799983
       7       -0.000028198300     0.000013834616     0.000006491907
       8        0.000006057308     0.000006663072     0.000005754257
       9        0.000014411941    -0.000003909197    -0.000005411114
      10        0.000008909899     0.000013007616     0.000015341937
      11        0.000026211705    -0.000002972903    -0.000011151459
      12       -0.000003890790    -0.000024809736     0.000013641651

  **** Optimization is complete! (in 5 steps) ****
    Final optimized geometry and variables:
    Molecular point group: c1

    Geometry (in Angstrom), charge = 0, multiplicity = 1:

    H           -0.681267268891     1.744460454985    -0.153566141997
    O            0.154287952764     1.299434465526    -0.147367906581
    C            0.000937575362    -0.002738858393     0.371487390568
    C            1.202247339530    -0.805967314892    -0.098404367520
    C           -1.315495635871    -0.624299300467    -0.082125824161
    H            0.008931578308     0.043343636991     1.459501509700
    H            1.201646814845    -0.882575777434    -1.180612449476
    H            2.121400028910    -0.318140963654     0.205630260748
    H            1.188113859259    -1.806497486199     0.322547535456
    H           -1.354973857978    -0.678957790107    -1.165693902402
    H           -2.163846359502    -0.035510698734     0.259897742136
    H           -1.431402055293    -1.626538641341     0.317436412454

  Mulliken Charges: (a.u.)
   Center  Symbol    Alpha    Beta     Spin     Total
       1     H     0.28174  0.28174  0.00000  0.43651
       2     O     4.37492  4.37492  0.00000 -0.74984
       3     C     2.91058  2.91058  0.00000  0.17883
       4     C     3.23971  3.23971  0.00000 -0.47941
       5     C     3.25789  3.25789  0.00000 -0.51578
       6     H     0.42889  0.42889  0.00000  0.14221
       7     H     0.41668  0.41668  0.00000  0.16664
       8     H     0.41070  0.41070  0.00000  0.17861
       9     H     0.42400  0.42400  0.00000  0.15201
      10     H     0.41412  0.41412  0.00000  0.17177
      11     H     0.42378  0.42378  0.00000  0.15245
      12     H     0.41700  0.41700  0.00000  0.16600

   Total alpha = 17.00000, Total beta = 17.00000, Total charge =  0.00000
