                              Psi4 1.0.54 Driver

  ==> Input File <==

--------------------------------------------------------------------------
set {
	reference rhf
	basis cc-pvtz
}

set_num_threads( 4 )
memory 2 gb

molecule MOL {
0 1

H	 -0.728536	 -2.084187	 -0.000064
C	 -0.211393	 -1.141297	 -0.000027
N	 1.105709	 -1.206946	 -0.000002
C	 -0.935926	 0.037765	 -0.000021
C	 1.780445	 -0.079390	 0.000022
C	 -0.204973	 1.214905	 -0.000009
C	 -2.442453	 0.038244	 0.000014
H	 2.851880	 -0.160341	 0.000040
C	 1.171163	 1.161833	 0.000016
H	 -0.709602	 2.163939	 -0.000023
H	 -2.833329	 0.545991	 -0.874294
H	 -2.832012	 -0.970899	 -0.000701
H	 -2.833285	 0.544713	 0.875084
H	 1.762568	 2.056298	 0.000025

	symmetry c1
}
ee,wfn = energy('scf', return_wfn=True)
oeprop( wfn, 'DIPOLE', 'QUADRUPOLE', 'MULLIKEN_CHARGES')
oeprop( wfn, 'GRID_ESP')
f=open( 'psi4out.xyz', 'w' )
f.write( "14  " )
f.write( str(ee) + "\n" )
f.write( MOL.save_string_xyz() )
f.close()
--------------------------------------------------------------------------

    Molecular point group: c1

    Geometry (in Angstrom), charge = 0, multiplicity = 1:

       Center              X                  Y                   Z               Mass
    ------------   -----------------  -----------------  -----------------  -----------------
           H         -0.728554457996    -2.084140548319    -0.000063779902     1.007825032070
           C         -0.211411457996    -1.141250548319    -0.000026779902    12.000000000000
           N          1.105690542004    -1.206899548319    -0.000001779902    14.003074004780
           C         -0.935944457996     0.037811451681    -0.000020779902    12.000000000000
           C          1.780426542004    -0.079343548319     0.000022220098    12.000000000000
           C         -0.204991457996     1.214951451681    -0.000008779902    12.000000000000
           C         -2.442471457996     0.038290451681     0.000014220098    12.000000000000
           H          2.851861542004    -0.160294548319     0.000040220098     1.007825032070
           C          1.171144542004     1.161879451681     0.000016220098    12.000000000000
           H         -0.709620457996     2.163985451681    -0.000022779902     1.007825032070
           H         -2.833347457996     0.546037451681    -0.874293779902     1.007825032070
           H         -2.832030457996    -0.970852548319    -0.000700779902     1.007825032070
           H         -2.833303457996     0.544759451681     0.875084220098     1.007825032070
           H          1.762549542004     2.056344451681     0.000025220098     1.007825032070

  Charge       = 0
  Multiplicity = 1
  Basis Set: CC-PVTZ
  Basis Set:

    Orbital Energies (a.u.)
    -----------------------

    Doubly Occupied:

       1A    -15.554315     2A    -11.260494     3A    -11.259343
       4A    -11.245974     5A    -11.241252     6A    -11.232607
       7A    -11.228041     8A     -1.264583     9A     -1.102648
      10A     -1.050209    11A     -0.953128    12A     -0.859463
      13A     -0.830264    14A     -0.713592    15A     -0.673609
      16A     -0.632903    17A     -0.589821    18A     -0.578951
      19A     -0.571565    20A     -0.552033    21A     -0.531553
      22A     -0.509357    23A     -0.409108    24A     -0.378450
      25A     -0.337000

  @DF-RHF Final Energy:  -285.82800887078770

   => Energetics <=

    Nuclear Repulsion Energy =            274.6409997777830085
    One-Electron Energy =                -929.8174538551768364
    Two-Electron Energy =                 369.3484452066059589
    DFT Exchange-Correlation Energy =       0.0000000000000000
    Empirical Dispersion Energy =           0.0000000000000000
    PCM Polarization Energy =               0.0000000000000000
    EFP Energy =                            0.0000000000000000
    Total Energy =                       -285.8280088707878690

  Mulliken Charges: (a.u.)
   Center  Symbol    Alpha    Beta     Spin     Total
       1     H     0.42257  0.42257  0.00000  0.15485
       2     C     3.07702  3.07702  0.00000 -0.15405
       3     N     3.59703  3.59703  0.00000 -0.19406
       4     C     2.94513  2.94513  0.00000  0.10973
       5     C     3.05405  3.05405  0.00000 -0.10809
       6     C     3.09976  3.09976  0.00000 -0.19953
       7     C     3.14045  3.14045  0.00000 -0.28089
       8     H     0.42045  0.42045  0.00000  0.15910
       9     C     3.06235  3.06235  0.00000 -0.12471
      10     H     0.42308  0.42308  0.00000  0.15383
      11     H     0.44727  0.44727  0.00000  0.10546
      12     H     0.44966  0.44966  0.00000  0.10068
      13     H     0.44726  0.44726  0.00000  0.10547
      14     H     0.41390  0.41390  0.00000  0.17220

   Total alpha = 25.00000, Total beta = 25.00000, Total charge = -0.00000

*** Psi4 exiting successfully. Buy a developer a beer!
