  ==> Input File <==

--------------------------------------------------------------------------
set {
	reference rhf
	basis 6-31G*
}

set_num_threads( 4 )
memory 2 gb

molecule MOL {
0 1

O	 3.225979	 0.970355	 -0.599647
C	 2.701189	 0.057885	 -0.047330
C	 1.245376	 -0.013843	 0.345420
O	 3.347903	 -1.046386	 0.304773
C	 0.455112	 1.231400	 -0.050772
H	 0.838542	 -0.913825	 -0.103701
H	 1.208210	 -0.175333	 1.419774
C	 -0.998893	 1.219485	 0.433193
H	 0.482531	 1.345121	 -1.130325
H	 0.957290	 2.103070	 0.354729
C	 -1.883438	 0.145884	 -0.207175
H	 -1.431207	 2.195402	 0.224832
H	 -1.019646	 1.105716	 1.516076
C	 -1.149902	 -1.179763	 -0.420683
H	 -2.754656	 -0.022942	 0.423932
H	 -2.262945	 0.495264	 -1.164714
C	 -2.022581	 -2.258479	 -1.064837
H	 -0.778114	 -1.543302	 0.535794
H	 -0.272597	 -1.009720	 -1.042873
C	 -1.283710	 -3.580309	 -1.271076
H	 -2.900223	 -2.428930	 -0.444891
H	 -2.391609	 -1.898627	 -2.023015
H	 -1.928107	 -4.324321	 -1.729123
H	 -0.931928	 -3.984371	 -0.325995
H	 -0.419079	 -3.449754	 -1.915779
C	 4.728119	 -1.109107	 -0.004993
H	 4.882018	 -1.033965	 -1.071845
H	 5.068212	 -2.067527	 0.355250
H	 5.265056	 -0.311663	 0.488280

	symmetry c1
}
set optking {
	frozen_dihedral = ("
		15 11 8 5
	")
}

ee = optimize('scf')
oeprop('DIPOLE', 'QUADRUPOLE', 'MULLIKEN_CHARGES')
f=open( 'psi4out.xyz', 'w' )
f.write( "29  " )
f.write( str(ee) + "\n" )
f.write( MOL.save_string_xyz() )
f.close()
--------------------------------------------------------------------------

    Molecular point group: c1
  Charge       = 0
  Multiplicity = 1
  Basis Set: 6-31G*
  Basis Set:
  @DF-RHF Final Energy:  -501.01200034349733
    Total Energy =                       -501.0120003434983573
    Molecular point group: c1
  Basis Set: 6-31G*
  Basis Set:
  Basis Set: 6-31G*
  Basis Set:
  @DF-RHF Final Energy:  -501.02999598172119
    Total Energy =                       -501.0299959817214130
  Basis Set: 6-31G*
  Basis Set:
  Basis Set: 6-31G*
  Basis Set:
  @DF-RHF Final Energy:  -501.03454023494476
    Total Energy =                       -501.0345402349443020
  Basis Set: 6-31G*
  Basis Set:
  Basis Set: 6-31G*
  Basis Set:
  @DF-RHF Final Energy:  -501.03365395036735
    Total Energy =                       -501.0336539503671247
  Basis Set: 6-31G*
  Basis Set:
  @DF-RHF Final Energy:  -501.03621592891670
    Total Energy =                       -501.0362159289170449
  @DF-RHF Final Energy:  -501.03663849492636
    Total Energy =                       -501.0366384949262510
  @DF-RHF Final Energy:  -501.03639786767747
    Total Energy =                       -501.0363978676779197
  @DF-RHF Final Energy:  -501.03676841546792
    Total Energy =                       -501.0367684154680319
  Basis Set: 6-31G*
  Basis Set:
  @DF-RHF Final Energy:  -501.03677780307396
    Total Energy =                       -501.0367778030741874
  Basis Set: 6-31G*
  Basis Set:
  Basis Set: 6-31G*
  Basis Set:
  @DF-RHF Final Energy:  -501.03677928762750
    Total Energy =                       -501.0367792876274962
  Basis Set: 6-31G*
  Basis Set:
  Basis Set: 6-31G*
  Basis Set:
  @DF-RHF Final Energy:  -501.03678107046733
    Total Energy =                       -501.0367810704671001
  Basis Set: 6-31G*
  Basis Set:
  Charge       = 0
  Multiplicity = 1
  Basis Set: 6-31G*
  Basis Set:

    Orbital Energies (a.u.)
    -----------------------

    Doubly Occupied:

       1A    -20.603059     2A    -20.544875     3A    -11.371500
       4A    -11.280450     5A    -11.233680     6A    -11.218998
       7A    -11.218241     8A    -11.216465     9A    -11.216291
      10A    -11.215338    11A    -11.209603    12A     -1.468711
      13A     -1.362153    14A     -1.096510    15A     -1.064965
      16A     -1.018547    17A     -0.975883    18A     -0.931154
      19A     -0.864231    20A     -0.808077    21A     -0.777950
      22A     -0.764400    23A     -0.697731    24A     -0.682398
      25A     -0.671922    26A     -0.650554    27A     -0.629695
      28A     -0.605345    29A     -0.593622    30A     -0.580471
      31A     -0.564201    32A     -0.555880    33A     -0.536559
      34A     -0.526564    35A     -0.520415    36A     -0.505539
      37A     -0.492242    38A     -0.484115    39A     -0.473080
      40A     -0.458368    41A     -0.455921    42A     -0.454289
      43A     -0.439019    44A     -0.434282

  @DF-RHF Final Energy:  -501.03678115406092

   => Energetics <=

    Nuclear Repulsion Energy =            629.1340395501581497
    One-Electron Energy =               -1929.3950580660950891
    Two-Electron Energy =                 799.2242373618755664
    DFT Exchange-Correlation Energy =       0.0000000000000000
    Empirical Dispersion Energy =           0.0000000000000000
    PCM Polarization Energy =               0.0000000000000000
    EFP Energy =                            0.0000000000000000
    Total Energy =                       -501.0367811540613729
    Molecular point group: c1
  Basis Set: 6-31G*
  Basis Set:

  -Total Gradient:
     Atom            X                  Y                   Z
    ------   -----------------  -----------------  -----------------
       1       -0.000008066489     0.000021036654    -0.000007719082
       2        0.000006083920    -0.000006512642     0.000009076040
       3       -0.000013944538    -0.000030280472    -0.000010757265
       4       -0.000006869416    -0.000012987461     0.000001088117
       5        0.001221185251    -0.003096052124     0.002946260207
       6        0.000009449361     0.000004943140     0.000006929242
       7        0.000007573614     0.000012876266     0.000005801437
       8       -0.001162707304     0.003589402628    -0.003790220842
       9       -0.000007158523    -0.000007555644    -0.000019729722
      10       -0.000014396446    -0.000007493577     0.000004951640
      11       -0.002996025182     0.003963396434    -0.001514659795
      12        0.000004207578     0.000006502038     0.000001371886
      13        0.000010335297    -0.000003576549    -0.000002371242
      14        0.000008539928     0.000002976630     0.000021464195
      15        0.002939281173    -0.004448870847     0.002372081214
      16        0.000000755348    -0.000001130052     0.000000828344
      17        0.000003149010     0.000007871016    -0.000021368449
      18       -0.000005037996    -0.000010724647    -0.000006298371
      19        0.000008994374     0.000013577987    -0.000009233168
      20       -0.000004144319    -0.000007230365     0.000017768809
      21        0.000002630215     0.000003918572    -0.000005254214
      22        0.000002489171     0.000002061359    -0.000004944885
      23       -0.000000546532    -0.000001328503     0.000005252018
      24        0.000006045913    -0.000003623213    -0.000000221431
      25       -0.000005957005     0.000003953796    -0.000001868979
      26        0.000001242513     0.000005811290    -0.000001520354
      27       -0.000002215491    -0.000000086344     0.000001083016
      28       -0.000005250382    -0.000000682014     0.000002240151
      29        0.000000356954    -0.000000193362    -0.000000028516

  **** Optimization is complete! (in 12 steps) ****
    Final optimized geometry and variables:
    Molecular point group: c1

    Geometry (in Angstrom), charge = 0, multiplicity = 1:

    O            2.452877794064     1.420581640077    -0.611744626478
    C            2.085486785172     0.679165135475     0.241847507882
    C            0.677845277897     0.581672049675     0.778804157974
    O            2.890842264546    -0.183162964998     0.849901614982
    C           -0.285413949369     1.560676034133     0.109555143223
    H            0.364952087496    -0.449673541935     0.670681613567
    H            0.729291409796     0.763952223053     1.848956176024
    C           -1.716443672246     1.529599718433     0.676980997602
    H           -0.294479270047     1.390086082642    -0.962177350281
    H            0.118925888538     2.558656183267     0.239465349137
    C           -2.714407264781     0.536455423192     0.046391857466
    H           -2.146136525411     2.522629458059     0.586494624436
    H           -1.656119548778     1.335620123015     1.746563644832
    C           -2.180866851733    -0.855207420479    -0.311680502660
    H           -3.521145195898     0.383010389458     0.759374843169
    H           -3.149293413438     0.981047394040    -0.845395204509
    C           -3.262970559372    -1.755537679895    -0.912931029189
    H           -1.780779117070    -1.334936470724     0.579722842867
    H           -1.359299120914    -0.777082577262    -1.019229094559
    C           -2.750326675450    -3.151240557445    -1.266404431141
    H           -4.090475656815    -1.842299718300    -0.212057754908
    H           -3.667852007191    -1.283401990535    -1.805476789049
    H           -3.539684392567    -3.764699176811    -1.689642975468
    H           -2.369065860519    -3.663626677461    -0.387493258518
    H           -1.945096574496    -3.100871620168    -1.993942713610
    C            4.246278660429    -0.194923926635     0.440794491606
    H            4.324788066302    -0.444243934502    -0.607635215205
    H            4.729399681007    -0.949560692348     1.041730927530
    H            4.703386367611     0.769124953587     0.611716411527

  Mulliken Charges: (a.u.)
   Center  Symbol    Alpha    Beta     Spin     Total
       1     O     4.28619  4.28619  0.00000 -0.57239
       2     C     2.60591  2.60591  0.00000  0.78819
       3     C     3.20970  3.20970  0.00000 -0.41940
       4     O     4.30743  4.30743  0.00000 -0.61486
       5     C     3.15854  3.15854  0.00000 -0.31707
       6     H     0.39636  0.39636  0.00000  0.20728
       7     H     0.40117  0.40117  0.00000  0.19766
       8     C     3.15858  3.15858  0.00000 -0.31717
       9     H     0.41038  0.41038  0.00000  0.17925
      10     H     0.40948  0.40948  0.00000  0.18103
      11     C     3.15168  3.15168  0.00000 -0.30336
      12     H     0.41603  0.41603  0.00000  0.16794
      13     H     0.42414  0.42414  0.00000  0.15172
      14     C     3.15688  3.15688  0.00000 -0.31375
      15     H     0.42178  0.42178  0.00000  0.15645
      16     H     0.42145  0.42145  0.00000  0.15709
      17     C     3.15067  3.15067  0.00000 -0.30134
      18     H     0.42518  0.42518  0.00000  0.14963
      19     H     0.42202  0.42202  0.00000  0.15595
      20     C     3.23943  3.23943  0.00000 -0.47886
      21     H     0.42299  0.42299  0.00000  0.15403
      22     H     0.42225  0.42225  0.00000  0.15551
      23     H     0.41888  0.41888  0.00000  0.16224
      24     H     0.42214  0.42214  0.00000  0.15573
      25     H     0.42150  0.42150  0.00000  0.15699
      26     C     3.09233  3.09233  0.00000 -0.18466
      27     H     0.40918  0.40918  0.00000  0.18165
      28     H     0.40856  0.40856  0.00000  0.18288
      29     H     0.40918  0.40918  0.00000  0.18164

   Total alpha = 44.00000, Total beta = 44.00000, Total charge =  0.00000
