                              Psi4 1.0.54 Driver

  ==> Input File <==

--------------------------------------------------------------------------
set {
	reference rhf
	basis cc-pvtz
}

set_num_threads( 4 )
memory 2 gb

molecule MOL {
0 1

H	 0.506750	 1.424732	 -1.878735
C	 0.633014	 1.725579	 -0.830306
C	 0.692262	 0.592428	 0.156232
O	 0.707834	 2.871356	 -0.548827
C	 -0.554654	 -0.292621	 0.086567
H	 0.826760	 1.006715	 1.146744
H	 1.571009	 -0.002560	 -0.083915
C	 -1.846385	 0.513195	 -0.016346
H	 -0.473986	 -0.956115	 -0.769708
H	 -0.597929	 -0.929215	 0.966651
C	 -3.089953	 -0.365049	 -0.098564
H	 -1.798267	 1.154820	 -0.891143
H	 -1.925398	 1.173265	 0.842889
H	 -3.055079	 -1.012299	 -0.968245
H	 -3.988403	 0.236438	 -0.170014
H	 -3.183055	 -0.995885	 0.779079

	symmetry c1
}
set optking {
	frozen_dihedral = ("
		6 3 5 9
	")
}

ee,wfn = optimize('scf', return_wfn=True)
oeprop( wfn, 'DIPOLE', 'QUADRUPOLE', 'MULLIKEN_CHARGES')
f=open( 'psi4out.xyz', 'w' )
f.write( "16  " )
f.write( str(ee) + "\n" )
f.write( MOL.save_string_xyz() )
f.close()
--------------------------------------------------------------------------

    Molecular point group: c1
  Charge       = 0
  Multiplicity = 1
  Basis Set: CC-PVTZ
  Basis Set:
  @DF-RHF Final Energy:  -270.11588401830363
    Total Energy =                       -270.1158840183035750
    Molecular point group: c1
  Basis Set: CC-PVTZ
  Basis Set:
  Basis Set: CC-PVTZ
  Basis Set:
  @DF-RHF Final Energy:  -270.11683796155216
    Total Energy =                       -270.1168379615522781
  Basis Set: CC-PVTZ
  Basis Set:
  Basis Set: CC-PVTZ
  Basis Set:
  @DF-RHF Final Energy:  -270.11693430950260
    Total Energy =                       -270.1169343095025965
  Basis Set: CC-PVTZ
  Basis Set:
  Basis Set: CC-PVTZ
  Basis Set:
  @DF-RHF Final Energy:  -270.11607227536047
    Total Energy =                       -270.1160722753605796
  Basis Set: CC-PVTZ
  Basis Set:
  @DF-RHF Final Energy:  -270.11701601982065
    Total Energy =                       -270.1170160198206531
  Basis Set: CC-PVTZ
  Basis Set:
  @DF-RHF Final Energy:  -270.11704080693295
    Total Energy =                       -270.1170408069326641
  Basis Set: CC-PVTZ
  Basis Set:
  Basis Set: CC-PVTZ
  Basis Set:
  @DF-RHF Final Energy:  -270.11705383439960
    Total Energy =                       -270.1170538343995986
  Basis Set: CC-PVTZ
  Basis Set:
  Basis Set: CC-PVTZ
  Basis Set:
  @DF-RHF Final Energy:  -270.11705550431998
    Total Energy =                       -270.1170555043199215
  Basis Set: CC-PVTZ
  Basis Set:
  Charge       = 0
  Multiplicity = 1
  Basis Set: CC-PVTZ
  Basis Set:

    Orbital Energies (a.u.)
    -----------------------

    Doubly Occupied:

       1A    -20.551284     2A    -11.321395     3A    -11.234445
       4A    -11.233754     5A    -11.225992     6A    -11.216049
       7A     -1.406295     8A     -1.096813     9A     -1.018229
      10A     -0.905883    11A     -0.826834    12A     -0.783751
      13A     -0.670114    14A     -0.654443    15A     -0.623632
      16A     -0.609540    17A     -0.589779    18A     -0.551442
      19A     -0.527835    20A     -0.516289    21A     -0.492191
      22A     -0.479132    23A     -0.469958    24A     -0.411918

  @DF-RHF Final Energy:  -270.11705572397068

   => Energetics <=

    Nuclear Repulsion Energy =            234.0279303574465359
    One-Electron Energy =                -829.4559788597647412
    Two-Electron Energy =                 325.3109927783476678
    DFT Exchange-Correlation Energy =       0.0000000000000000
    Empirical Dispersion Energy =           0.0000000000000000
    PCM Polarization Energy =               0.0000000000000000
    EFP Energy =                            0.0000000000000000
    Total Energy =                       -270.1170557239705659
    Molecular point group: c1
  Basis Set: CC-PVTZ
  Basis Set:

  -Total Gradient:
     Atom            X                  Y                   Z
    ------   -----------------  -----------------  -----------------
       1        0.000007763742     0.000015564869     0.000016575691
       2       -0.000015848312    -0.000012786727     0.000000859025
       3       -0.002408122508     0.003761694376    -0.000983080616
       4       -0.000000269635    -0.000017669876    -0.000009047858
       5       -0.001593883896     0.002791626878    -0.002871171525
       6        0.002261855713    -0.003540455188     0.001261234788
       7       -0.000002534427    -0.000004129552     0.000003456475
       8        0.000006004876     0.000000822810     0.000003412578
       9        0.001743219548    -0.002992785146     0.002582567242
      10        0.000004719489     0.000002193244    -0.000001488196
      11       -0.000004772587    -0.000001745798    -0.000001181968
      12        0.000002032086    -0.000000715931     0.000001131128
      13        0.000001367982    -0.000000792397    -0.000000672534
      14       -0.000000597694    -0.000001898548    -0.000001347933
      15       -0.000003423521     0.000001228381     0.000000654524
      16        0.000002489145    -0.000000151394    -0.000001900821

  **** Optimization is complete! (in 9 steps) ****
    Final optimized geometry and variables:
    Molecular point group: c1

    Geometry (in Angstrom), charge = 0, multiplicity = 1:

    H            1.213193791078     0.536085681542    -1.647836618436
    C            1.321454737861     0.855792734173    -0.602758238583
    C            1.211669945527    -0.246520728126     0.412496989879
    O            1.525362190709     1.992567085338    -0.350234312184
    C           -0.049980819342    -1.107856813661     0.263183452370
    H            1.297228006002     0.164714788173     1.409651203963
    H            2.081762987700    -0.883888767034     0.265157293083
    C           -1.352995965758    -0.318266636414     0.170754588726
    H            0.058306665565    -1.775825397494    -0.586777923724
    H           -0.096768481949    -1.762520439318     1.127897826951
    C           -2.583196049773    -1.217583394183     0.121608650004
    H           -1.341484553200     0.317383749258    -0.709728974631
    H           -1.424666226196     0.350342292872     1.023600954159
    H           -2.551188238886    -1.878356697209    -0.738266286882
    H           -3.492343131230    -0.632074516270     0.054965854000
    H           -2.651450304618    -1.835679222422     1.010418181397

  Mulliken Charges: (a.u.)
   Center  Symbol    Alpha    Beta     Spin     Total
       1     H     0.46266  0.46266  0.00000  0.07468
       2     C     2.90334  2.90334  0.00000  0.19333
       3     C     3.09176  3.09176  0.00000 -0.18351
       4     O     4.16711  4.16711  0.00000 -0.33421
       5     C     3.10870  3.10870  0.00000 -0.21740
       6     H     0.44075  0.44075  0.00000  0.11850
       7     H     0.44342  0.44342  0.00000  0.11315
       8     C     3.08700  3.08700  0.00000 -0.17400
       9     H     0.44841  0.44841  0.00000  0.10317
      10     H     0.44555  0.44555  0.00000  0.10890
      11     C     3.15011  3.15011  0.00000 -0.30022
      12     H     0.45041  0.45041  0.00000  0.09917
      13     H     0.44661  0.44661  0.00000  0.10679
      14     H     0.45485  0.45485  0.00000  0.09031
      15     H     0.44569  0.44569  0.00000  0.10863
      16     H     0.45364  0.45364  0.00000  0.09271

   Total alpha = 24.00000, Total beta = 24.00000, Total charge =  0.00000

*** Psi4 exiting successfully. Buy a developer a beer!
