  ==> Input File <==

--------------------------------------------------------------------------
set {
	reference rhf
	basis 6-31G*
}

set_num_threads( 4 )
memory 2 gb

molecule MOL {
0 1

H	 -3.042581	 -0.665861	 0.004336
O	 -2.245037	 -1.176175	 0.000806
C	 -1.162163	 -0.365336	 0.001020
C	 0.121454	 -0.839927	 0.202072
C	 -1.384774	 0.990139	 -0.208651
H	 0.295254	 -1.889894	 0.367405
C	 1.180950	 0.056319	 0.190966
H	 -2.395038	 1.324574	 -0.359105
C	 -0.327437	 1.882889	 -0.220846
H	 2.180207	 -0.308976	 0.349346
C	 0.966729	 1.403889	 -0.016727
C	 -0.565614	 3.353602	 -0.472591
H	 1.798190	 2.086524	 -0.020023
H	 0.021512	 3.966176	 0.203299
H	 -1.609243	 3.613496	 -0.341618
H	 -0.281756	 3.621572	 -1.486476

	symmetry c1
}
set optking {
	frozen_dihedral = ("
		5 3 2 1
	")
}

ee = optimize('scf')
oeprop('DIPOLE', 'QUADRUPOLE', 'MULLIKEN_CHARGES')
f=open( 'psi4out.xyz', 'w' )
f.write( "16  " )
f.write( str(ee) + "\n" )
f.write( MOL.save_string_xyz() )
f.close()
--------------------------------------------------------------------------

    Molecular point group: c1
  Charge       = 0
  Multiplicity = 1
  Basis Set: 6-31G*
  Basis Set:
  @DF-RHF Final Energy:  -344.59283626409598
    Total Energy =                       -344.5928362640959222
    Molecular point group: c1
  Basis Set: 6-31G*
  Basis Set:
  Basis Set: 6-31G*
  Basis Set:
  @DF-RHF Final Energy:  -344.59471562593518
    Total Energy =                       -344.5947156259350663
  Basis Set: 6-31G*
  Basis Set:
  Basis Set: 6-31G*
  Basis Set:
  @DF-RHF Final Energy:  -344.59488510024755
    Total Energy =                       -344.5948851002476090
  Basis Set: 6-31G*
  Basis Set:
  Basis Set: 6-31G*
  Basis Set:
  @DF-RHF Final Energy:  -344.59490818066104
    Total Energy =                       -344.5949081806612639
  Basis Set: 6-31G*
  Basis Set:
  @DF-RHF Final Energy:  -344.59491516070773
    Total Energy =                       -344.5949151607081831
  @DF-RHF Final Energy:  -344.59491905626436
    Total Energy =                       -344.5949190562646436
  @DF-RHF Final Energy:  -344.59493578416436
    Total Energy =                       -344.5949357841642495
  @DF-RHF Final Energy:  -344.59494477006206
    Total Energy =                       -344.5949447700624546
  @DF-RHF Final Energy:  -344.59495187554694
    Total Energy =                       -344.5949518755468262
  @DF-RHF Final Energy:  -344.59497055460446
    Total Energy =                       -344.5949705546043447
  @DF-RHF Final Energy:  -344.59498803711432
    Total Energy =                       -344.5949880371144900
  @DF-RHF Final Energy:  -344.59500219739948
    Total Energy =                       -344.5950021973995376
  @DF-RHF Final Energy:  -344.59497890472278
    Total Energy =                       -344.5949789047226659
  @DF-RHF Final Energy:  -344.59500761408043
    Total Energy =                       -344.5950076140807141
  @DF-RHF Final Energy:  -344.59501658697724
    Total Energy =                       -344.5950165869774082
  @DF-RHF Final Energy:  -344.59502384866977
    Total Energy =                       -344.5950238486698254
  @DF-RHF Final Energy:  -344.59502554848308
    Total Energy =                       -344.5950255484830222
  @DF-RHF Final Energy:  -344.59502702258015
    Total Energy =                       -344.5950270225802115
  Basis Set: 6-31G*
  Basis Set:
  @DF-RHF Final Energy:  -344.59502829553264
    Total Energy =                       -344.5950282955325861
  Basis Set: 6-31G*
  Basis Set:
  Basis Set: 6-31G*
  Basis Set:
  @DF-RHF Final Energy:  -344.59503163060782
    Total Energy =                       -344.5950316306078207
  Basis Set: 6-31G*
  Basis Set:
  Basis Set: 6-31G*
  Basis Set:
  @DF-RHF Final Energy:  -344.59503287033340
    Total Energy =                       -344.5950328703333412
  Basis Set: 6-31G*
  Basis Set:
  Charge       = 0
  Multiplicity = 1
  Basis Set: 6-31G*
  Basis Set:

    Orbital Energies (a.u.)
    -----------------------

    Doubly Occupied:

       1A    -20.588997     2A    -11.296263     3A    -11.243465
       4A    -11.232733     5A    -11.223091     6A    -11.221724
       7A    -11.217322     8A    -11.216244     9A     -1.407542
      10A     -1.149806    11A     -1.044187    12A     -1.003254
      13A     -0.938378    14A     -0.841008    15A     -0.798965
      16A     -0.727803    17A     -0.680165    18A     -0.647400
      19A     -0.598014    20A     -0.591961    21A     -0.578160
      22A     -0.569986    23A     -0.567250    24A     -0.534870
      25A     -0.504041    26A     -0.481948    27A     -0.467162
      28A     -0.329555    29A     -0.305812

  @DF-RHF Final Energy:  -344.59503202358735

   => Energetics <=

    Nuclear Repulsion Energy =            345.5865161158126284
    One-Electron Energy =               -1152.3488787906687776
    Two-Electron Energy =                 462.1673306512689692
    DFT Exchange-Correlation Energy =       0.0000000000000000
    Empirical Dispersion Energy =           0.0000000000000000
    PCM Polarization Energy =               0.0000000000000000
    EFP Energy =                            0.0000000000000000
    Total Energy =                       -344.5950320235871800
    Molecular point group: c1
  Basis Set: 6-31G*
  Basis Set:

  -Total Gradient:
     Atom            X                  Y                   Z
    ------   -----------------  -----------------  -----------------
       1       -0.000050410370     0.000008147907     0.001032178602
       2        0.000075006457    -0.000025255970    -0.001342866315
       3       -0.000067806695     0.000048715822     0.000360378513
       4       -0.000010234001     0.000054970029     0.000334055256
       5        0.000026613063    -0.000083357394    -0.000392087798
       6       -0.000003011182    -0.000003554597    -0.000016709546
       7       -0.000018247781    -0.000021536909     0.000051515800
       8        0.000000642617    -0.000001416115    -0.000002973953
       9        0.000057356013     0.000031642858     0.000053198111
      10        0.000001802774    -0.000000513551    -0.000012146472
      11       -0.000010316035     0.000011592396    -0.000043950082
      12        0.000019561858    -0.000003883454     0.000024227797
      13       -0.000001461524     0.000001771778     0.000000316694
      14       -0.000008364385    -0.000001181365    -0.000005720105
      15       -0.000008557501    -0.000006578196    -0.000017401515
      16       -0.000002573307    -0.000009563239    -0.000022014987

  **** Optimization is complete! (in 22 steps) ****
    Final optimized geometry and variables:
    Molecular point group: c1

    Geometry (in Angstrom), charge = 0, multiplicity = 1:

    H           -2.533193361567    -1.462389303210    -0.067472582454
    O           -1.696075836162    -1.902291929357    -0.019642639391
    C           -0.687219796232    -1.001744761741     0.028715694774
    C            0.587045036996    -1.483026228919     0.304596887236
    C           -0.891065788716     0.347469002938    -0.194323946977
    H            0.724930994813    -2.534199371142     0.475782939379
    C            1.640006262790    -0.594480800453     0.351712510013
    H           -1.884096251783     0.707099656848    -0.412595900651
    C            0.173443884949     1.245367653430    -0.143206974483
    H            2.629062159376    -0.959440796899     0.565350321440
    C            1.442460384931     0.763797576592     0.131643750871
    C           -0.071215519488     2.714507914168    -0.397569636728
    H            2.277020992071     1.440466953402     0.175346848972
    H            0.831423013636     3.294719711194    -0.248550921587
    H           -0.834075947509     3.105715236940     0.268462474958
    H           -0.410203810211     2.881684065228    -1.415799830617

  Mulliken Charges: (a.u.)
   Center  Symbol    Alpha    Beta     Spin     Total
       1     H     0.27199  0.27199  0.00000  0.45602
       2     O     4.37939  4.37939  0.00000 -0.75879
       3     C     2.78899  2.78899  0.00000  0.42203
       4     C     3.12743  3.12743  0.00000 -0.25487
       5     C     3.15670  3.15670  0.00000 -0.31340
       6     H     0.39256  0.39256  0.00000  0.21487
       7     C     3.08754  3.08754  0.00000 -0.17508
       8     H     0.40781  0.40781  0.00000  0.18437
       9     C     2.96872  2.96872  0.00000  0.06255
      10     H     0.39847  0.39847  0.00000  0.20305
      11     C     3.12879  3.12879  0.00000 -0.25758
      12     C     3.25512  3.25512  0.00000 -0.51024
      13     H     0.40328  0.40328  0.00000  0.19343
      14     H     0.41138  0.41138  0.00000  0.17725
      15     H     0.41167  0.41167  0.00000  0.17666
      16     H     0.41014  0.41014  0.00000  0.17972

   Total alpha = 29.00000, Total beta = 29.00000, Total charge =  0.00000
