  ==> Input File <==

--------------------------------------------------------------------------
set {
	reference rhf
	basis cc-pvtz
}

set_num_threads( 4 )
memory 2 gb

molecule MOL {
0 1

H	 -1.606000	 -2.105000	 -0.000000
C	 -1.099000	 -1.157000	 -0.000000
N	 0.218000	 -1.178000	 -0.000000
C	 -1.810000	 0.031000	 0.000000
C	 0.848000	 -0.015000	 0.000000
H	 -2.885000	 0.036000	 0.000000
N	 -1.194000	 1.196000	 0.000000
C	 0.123000	 1.173000	 -0.000000
C	 2.353000	 -0.036000	 0.000000
H	 0.627000	 2.123000	 -0.000000
H	 2.720000	 -0.561000	 -0.875000
H	 2.765000	 0.966000	 -0.000000
H	 2.720000	 -0.561000	 0.875000

	symmetry c1
}
ee = optimize('scf')
oeprop('DIPOLE', 'QUADRUPOLE', 'MULLIKEN_CHARGES')
f=open( 'psi4out.xyz', 'w' )
f.write( "13  " )
f.write( str(ee) + "\n" )
f.write( MOL.save_string_xyz() )
f.close()
--------------------------------------------------------------------------

    Molecular point group: c1
  Charge       = 0
  Multiplicity = 1
  Basis Set: CC-PVTZ
  Basis Set:
  @DF-RHF Final Energy:  -301.82456119521237
    Total Energy =                       -301.8245611952123681
    Molecular point group: c1
  Basis Set: CC-PVTZ
  Basis Set:
  Basis Set: CC-PVTZ
  Basis Set:
  @DF-RHF Final Energy:  -301.82467188873062
    Total Energy =                       -301.8246718887306770
  Basis Set: CC-PVTZ
  Basis Set:
  Charge       = 0
  Multiplicity = 1
  Basis Set: CC-PVTZ
  Basis Set:

    Orbital Energies (a.u.)
    -----------------------

    Doubly Occupied:

       1A    -15.581246     2A    -15.576299     3A    -11.281785
       4A    -11.273385     5A    -11.268703     6A    -11.268519
       7A    -11.227546     8A     -1.316759     9A     -1.224550
      10A     -1.075844    11A     -0.975052    12A     -0.898025
      13A     -0.857678    14A     -0.718553    15A     -0.714108
      16A     -0.656803    17A     -0.606618    18A     -0.592656
      19A     -0.559808    20A     -0.551152    21A     -0.540135
      22A     -0.490152    23A     -0.434080    24A     -0.399494
      25A     -0.347838

  @DF-RHF Final Energy:  -301.82467534840930

   => Energetics <=

    Nuclear Repulsion Energy =            278.7648117264076291
    One-Electron Energy =                -960.3054037741560478
    Two-Electron Energy =                 379.7159166993391182
    DFT Exchange-Correlation Energy =       0.0000000000000000
    Empirical Dispersion Energy =           0.0000000000000000
    PCM Polarization Energy =               0.0000000000000000
    EFP Energy =                            0.0000000000000000
    Total Energy =                       -301.8246753484093006
    Molecular point group: c1
  Basis Set: CC-PVTZ
  Basis Set:

  -Total Gradient:
     Atom            X                  Y                   Z
    ------   -----------------  -----------------  -----------------
       1        0.000008777611    -0.000012521127     0.000000000002
       2        0.000179813300    -0.000072715287     0.000000000020
       3       -0.000011669020     0.000040110281     0.000000000013
       4       -0.000001891927     0.000168022375    -0.000000000011
       5        0.000026102617    -0.000177743136    -0.000000000115
       6       -0.000023229100     0.000014995994     0.000000000008
       7        0.000021725343    -0.000036660212    -0.000000000011
       8       -0.000133753009     0.000075742377     0.000000000048
       9       -0.000065211464    -0.000009324879     0.000000000149
      10       -0.000001589340     0.000024686487    -0.000000000003
      11        0.000011942574    -0.000019981586     0.000026539944
      12       -0.000022960173     0.000025370337    -0.000000000010
      13        0.000011942587    -0.000019981625    -0.000026540033

  **** Optimization is complete! (in 3 steps) ****
    Final optimized geometry and variables:
    Molecular point group: c1

    Geometry (in Angstrom), charge = 0, multiplicity = 1:

    H            1.559783141107     2.100663939561     0.000000000187
    C            1.051378080481     1.154892882364     0.000000000027
    N           -0.262022632300     1.175073728332    -0.000000000309
    C            1.761087054192    -0.030041799763     0.000000000200
    C           -0.892294172289     0.016740639598    -0.000000000416
    H            2.834210163113    -0.033951664858     0.000000000568
    N            1.144425520295    -1.190495753443     0.000000000141
    C           -0.169171310919    -1.168213885085    -0.000000000003
    C           -2.394071031479     0.035735158261     0.000000000255
    H           -0.674115873445    -2.115582942222     0.000000000037
    H           -2.760025003557     0.560035437401    -0.873723785949
    H           -2.803301474649    -0.965428063153     0.000000000216
    H           -2.760025002938     0.560035437290     0.873723786533

  Mulliken Charges: (a.u.)
   Center  Symbol    Alpha    Beta     Spin     Total
       1     H     0.41333  0.41333  0.00000  0.17334
       2     C     3.04170  3.04170  0.00000 -0.08339
       3     N     3.59445  3.59445  0.00000 -0.18890
       4     C     3.04815  3.04815  0.00000 -0.09630
       5     C     2.93843  2.93843  0.00000  0.12314
       6     H     0.41371  0.41371  0.00000  0.17259
       7     N     3.58752  3.58752  0.00000 -0.17504
       8     C     3.07504  3.07504  0.00000 -0.15008
       9     C     3.12960  3.12960  0.00000 -0.25920
      10     H     0.41630  0.41630  0.00000  0.16739
      11     H     0.44443  0.44443  0.00000  0.11113
      12     H     0.45291  0.45291  0.00000  0.09419
      13     H     0.44443  0.44443  0.00000  0.11113

   Total alpha = 25.00000, Total beta = 25.00000, Total charge = -0.00000
