                              Psi4 1.0.54 Driver

  ==> Input File <==

--------------------------------------------------------------------------
set {
	reference rhf
	basis cc-pvtz
}

set_num_threads( 4 )
memory 2 gb

molecule MOL {
0 1

H	 -3.162190	 0.493205	 -0.000107
C	 -2.363908	 -0.234727	 0.000005
O	 -1.158738	 0.454634	 -0.000087
H	 -2.464314	 -0.863616	 -0.882153
H	 -2.464327	 -0.863359	 0.882345
C	 -0.966687	 1.280437	 1.105120
C	 0.376795	 1.971066	 0.984787
H	 -1.006112	 0.692555	 2.022441
H	 -1.765591	 2.020102	 1.162482
C	 0.662970	 2.897119	 2.161596
H	 1.149045	 1.213548	 0.909140
H	 0.395576	 2.530575	 0.056052
H	 0.672887	 2.352571	 3.099923
H	 1.627685	 3.376609	 2.050093
H	 -0.085437	 3.678565	 2.240955

	symmetry c1
}
set optking {
	frozen_dihedral = ("
		6 3 2 4
	")
}

ee,wfn = optimize('scf', return_wfn=True)
oeprop( wfn, 'DIPOLE', 'QUADRUPOLE', 'MULLIKEN_CHARGES')
f=open( 'psi4out.xyz', 'w' )
f.write( "15  " )
f.write( str(ee) + "\n" )
f.write( MOL.save_string_xyz() )
f.close()
--------------------------------------------------------------------------

    Molecular point group: c1
  Charge       = 0
  Multiplicity = 1
  Basis Set: CC-PVTZ
  Basis Set:
  @DF-RHF Final Energy:  -232.22718519508300
    Total Energy =                       -232.2271851950831092
    Molecular point group: c1
  Basis Set: CC-PVTZ
  Basis Set:
  Basis Set: CC-PVTZ
  Basis Set:
  @DF-RHF Final Energy:  -232.22799939423430
    Total Energy =                       -232.2279993942340752
  Basis Set: CC-PVTZ
  Basis Set:
  Basis Set: CC-PVTZ
  Basis Set:
  @DF-RHF Final Energy:  -232.22822257385150
    Total Energy =                       -232.2282225738515535
  Basis Set: CC-PVTZ
  Basis Set:
  Charge       = 0
  Multiplicity = 1
  Basis Set: CC-PVTZ
  Basis Set:

    Orbital Energies (a.u.)
    -----------------------

    Doubly Occupied:

       1A    -20.547597     2A    -11.264413     3A    -11.261788
       4A    -11.212788     5A    -11.210736     6A     -1.381990
       7A     -1.058499     8A     -0.956173     9A     -0.877341
      10A     -0.809583    11A     -0.677280    12A     -0.655999
      13A     -0.632362    14A     -0.608539    15A     -0.565254
      16A     -0.540880    17A     -0.503768    18A     -0.490396
      19A     -0.478381    20A     -0.462964    21A     -0.416846

  @DF-RHF Final Energy:  -232.22822337289068

   => Energetics <=

    Nuclear Repulsion Energy =            190.0185839524064590
    One-Electron Energy =                -691.2664655733469772
    Two-Electron Energy =                 269.0196582480500069
    DFT Exchange-Correlation Energy =       0.0000000000000000
    Empirical Dispersion Energy =           0.0000000000000000
    PCM Polarization Energy =               0.0000000000000000
    EFP Energy =                            0.0000000000000000
    Total Energy =                       -232.2282233728905112
    Molecular point group: c1
  Basis Set: CC-PVTZ
  Basis Set:

  -Total Gradient:
     Atom            X                  Y                   Z
    ------   -----------------  -----------------  -----------------
       1        0.000026342888     0.000014127768     0.000001376027
       2       -0.000007868110     0.000035358569     0.000048197717
       3        0.000023335949     0.000031255507    -0.000033076331
       4        0.000040581438     0.000026354056     0.000002061716
       5        0.000027455576     0.000016354959     0.000004421586
       6       -0.000066774669    -0.000034454769     0.000133889831
       7        0.000012919528    -0.000036868839    -0.000086822821
       8       -0.000006346381    -0.000009926961     0.000008757438
       9       -0.000002760568    -0.000011363996    -0.000038583179
      10       -0.000065867022    -0.000028436283    -0.000004430989
      11        0.000008844091    -0.000004079058    -0.000004388085
      12        0.000022397169     0.000018718527    -0.000010149105
      13        0.000000751614    -0.000003352450    -0.000000167161
      14       -0.000010434033    -0.000021877319    -0.000027596654
      15       -0.000002577470     0.000008190291     0.000006510009

  **** Optimization is complete! (in 4 steps) ****
    Final optimized geometry and variables:
    Molecular point group: c1

    Geometry (in Angstrom), charge = 0, multiplicity = 1:

    H           -2.484332284250    -0.844260723891    -0.842343566882
    C           -1.620911189114    -1.506050457265    -0.863781287277
    O           -0.430990189711    -0.791228659890    -0.858521807188
    H           -1.653448239817    -2.089692587883    -1.772391238589
    H           -1.685152329590    -2.180685368365    -0.012503327460
    C           -0.247320064230     0.014675307755     0.262467868312
    C            1.079974392790     0.736570650989     0.145774074444
    H           -0.266383780877    -0.593178328180     1.167429616149
    H           -1.061421137010     0.735565120778     0.341951099247
    C            1.355847390335     1.643638643357     1.339715891321
    H            1.867813766433    -0.002234881764     0.048016561017
    H            1.079039734818     1.315864219428    -0.771022105047
    H            1.385655990771     1.079694515347     2.266139566753
    H            2.308941499975     2.146496800477     1.230625981268
    H            0.591210651547     2.406608356212     1.441722838647

  Mulliken Charges: (a.u.)
   Center  Symbol    Alpha    Beta     Spin     Total
       1     H     0.47216  0.47216  0.00000  0.05568
       2     C     3.03352  3.03352  0.00000 -0.06704
       3     O     4.17143  4.17143  0.00000 -0.34285
       4     H     0.44686  0.44686  0.00000  0.10628
       5     H     0.47216  0.47216  0.00000  0.05568
       6     C     2.95608  2.95608  0.00000  0.08785
       7     C     3.08012  3.08012  0.00000 -0.16024
       8     H     0.47584  0.47584  0.00000  0.04832
       9     H     0.47586  0.47586  0.00000  0.04829
      10     C     3.15583  3.15583  0.00000 -0.31166
      11     H     0.45110  0.45110  0.00000  0.09779
      12     H     0.45110  0.45110  0.00000  0.09780
      13     H     0.45584  0.45584  0.00000  0.08832
      14     H     0.44627  0.44627  0.00000  0.10745
      15     H     0.45584  0.45584  0.00000  0.08832

   Total alpha = 21.00000, Total beta = 21.00000, Total charge = -0.00000

*** Psi4 exiting successfully. Buy a developer a beer!
