  ==> Input File <==

--------------------------------------------------------------------------
set {
	reference rhf
	basis 6-31G*
}

set_num_threads( 4 )
memory 2 gb

molecule MOL {
0 1

O	 3.225979	 0.970355	 -0.599647
C	 2.701189	 0.057885	 -0.047330
C	 1.245376	 -0.013843	 0.345420
O	 3.347903	 -1.046386	 0.304773
C	 0.455112	 1.231400	 -0.050772
H	 0.838542	 -0.913825	 -0.103701
H	 1.208210	 -0.175333	 1.419774
C	 -0.998893	 1.219485	 0.433193
H	 0.482531	 1.345121	 -1.130325
H	 0.957290	 2.103070	 0.354729
C	 -1.213258	 0.600703	 1.817486
H	 -1.590334	 0.664012	 -0.290943
H	 -1.391384	 2.235321	 0.427052
C	 -2.690118	 0.512353	 2.207459
H	 -0.776557	 -0.396696	 1.834955
H	 -0.684880	 1.178795	 2.572204
C	 -2.916085	 -0.099625	 3.591132
H	 -3.224043	 -0.076446	 1.463500
H	 -3.130058	 1.508036	 2.179762
C	 -4.393707	 -0.187772	 3.971348
H	 -2.476193	 -1.094236	 3.620871
H	 -2.386723	 0.490067	 4.336666
H	 -4.521343	 -0.625378	 4.956649
H	 -4.944746	 -0.800555	 3.263501
H	 -4.854633	 0.795923	 3.984180
C	 4.728119	 -1.109107	 -0.004993
H	 4.882018	 -1.033965	 -1.071845
H	 5.068212	 -2.067527	 0.355250
H	 5.265056	 -0.311663	 0.488280

	symmetry c1
}
set optking {
	frozen_dihedral = ("
		11 8 5 9
	")
}

ee = optimize('scf')
oeprop('DIPOLE', 'QUADRUPOLE', 'MULLIKEN_CHARGES')
f=open( 'psi4out.xyz', 'w' )
f.write( "29  " )
f.write( str(ee) + "\n" )
f.write( MOL.save_string_xyz() )
f.close()
--------------------------------------------------------------------------

    Molecular point group: c1
  Charge       = 0
  Multiplicity = 1
  Basis Set: 6-31G*
  Basis Set:
  @DF-RHF Final Energy:  -501.03925233438315
    Total Energy =                       -501.0392523343823541
    Molecular point group: c1
  Basis Set: 6-31G*
  Basis Set:
  Basis Set: 6-31G*
  Basis Set:
  @DF-RHF Final Energy:  -501.04018007064485
    Total Energy =                       -501.0401800706449649
  Basis Set: 6-31G*
  Basis Set:
  Basis Set: 6-31G*
  Basis Set:
  @DF-RHF Final Energy:  -501.04128836328846
    Total Energy =                       -501.0412883632886860
  Basis Set: 6-31G*
  Basis Set:
  Basis Set: 6-31G*
  Basis Set:
  @DF-RHF Final Energy:  -501.04105097469733
    Total Energy =                       -501.0410509746974412
  Basis Set: 6-31G*
  Basis Set:
  @DF-RHF Final Energy:  -501.04132722462009
    Total Energy =                       -501.0413272246197494
  Basis Set: 6-31G*
  Basis Set:
  @DF-RHF Final Energy:  -501.04141886094021
    Total Energy =                       -501.0414188609406665
  Basis Set: 6-31G*
  Basis Set:
  Basis Set: 6-31G*
  Basis Set:
  @DF-RHF Final Energy:  -501.04142602418835
    Total Energy =                       -501.0414260241878992
  Basis Set: 6-31G*
  Basis Set:
  Basis Set: 6-31G*
  Basis Set:
  @DF-RHF Final Energy:  -501.04142908989388
    Total Energy =                       -501.0414290898941090
  Basis Set: 6-31G*
  Basis Set:
  Charge       = 0
  Multiplicity = 1
  Basis Set: 6-31G*
  Basis Set:

    Orbital Energies (a.u.)
    -----------------------

    Doubly Occupied:

       1A    -20.603187     2A    -20.545095     3A    -11.371765
       4A    -11.280551     5A    -11.234452     6A    -11.219322
       7A    -11.217782     8A    -11.216571     9A    -11.216158
      10A    -11.214736    11A    -11.209282    12A     -1.468912
      13A     -1.362359    14A     -1.097867    15A     -1.066471
      16A     -1.018812    17A     -0.977056    18A     -0.928587
      19A     -0.863770    20A     -0.799013    21A     -0.791015
      22A     -0.760630    23A     -0.699672    24A     -0.682894
      25A     -0.671213    26A     -0.654486    27A     -0.629836
      28A     -0.603637    29A     -0.592809    30A     -0.580353
      31A     -0.567087    32A     -0.552173    33A     -0.530999
      34A     -0.527422    35A     -0.518131    36A     -0.512543
      37A     -0.497916    38A     -0.479003    39A     -0.468435
      40A     -0.461043    41A     -0.458683    42A     -0.454502
      43A     -0.440005    44A     -0.436623

  @DF-RHF Final Energy:  -501.04142937940844

   => Energetics <=

    Nuclear Repulsion Energy =            612.2447999583545197
    One-Electron Energy =               -1895.6067418405691569
    Two-Electron Energy =                 782.3205125028052862
    DFT Exchange-Correlation Energy =       0.0000000000000000
    Empirical Dispersion Energy =           0.0000000000000000
    PCM Polarization Energy =               0.0000000000000000
    EFP Energy =                            0.0000000000000000
    Total Energy =                       -501.0414293794092373
    Molecular point group: c1
  Basis Set: 6-31G*
  Basis Set:

  -Total Gradient:
     Atom            X                  Y                   Z
    ------   -----------------  -----------------  -----------------
       1       -0.000001016789     0.000018240165     0.000017547039
       2       -0.000000266819    -0.000003066456    -0.000016158421
       3       -0.000018905752    -0.000031747402    -0.000054534618
       4       -0.000007191532    -0.000012605655    -0.000002208093
       5       -0.000435157533     0.005108275364    -0.000139507055
       6        0.000005519705     0.000000297601     0.000021806719
       7        0.000003728462     0.000018654718     0.000016113588
       8        0.000297284388     0.004175579626     0.002295372918
       9        0.000304486660    -0.005512051508    -0.000458274849
      10        0.000004167685     0.000003408310    -0.000003860763
      11       -0.000158169951    -0.003766265363    -0.001674669988
      12       -0.000006164401    -0.000000609064    -0.000002221360
      13        0.000009769555    -0.000002742310    -0.000002482468
      14        0.000000531321     0.000001498451    -0.000003649229
      15       -0.000004725244    -0.000000526714     0.000005476127
      16        0.000006550433     0.000004996677     0.000001902873
      17        0.000002626048    -0.000006006345    -0.000000414831
      18        0.000001313119     0.000001347616    -0.000003410683
      19       -0.000000009761    -0.000000710560     0.000004139858
      20       -0.000000461242    -0.000001719814    -0.000003401863
      21       -0.000001603401    -0.000003301014     0.000004486964
      22        0.000001371950     0.000001259254    -0.000005621095
      23        0.000001199731    -0.000000806787    -0.000001176613
      24       -0.000000610664     0.000002009926    -0.000000481240
      25        0.000000209282     0.000001308751     0.000002274230
      26       -0.000002001067     0.000005054142     0.000000448907
      27       -0.000000237639    -0.000000116089     0.000000724035
      28       -0.000002732534    -0.000000086687     0.000001507733
      29        0.000000495991     0.000000431170     0.000000272178

  **** Optimization is complete! (in 9 steps) ****
    Final optimized geometry and variables:
    Molecular point group: c1

    Geometry (in Angstrom), charge = 0, multiplicity = 1:

    O            2.837082427865     0.784707287611    -1.815262123565
    C            2.395687420736    -0.103117481771    -1.159419834828
    C            0.986345509107    -0.188205321377    -0.624346735036
    O            3.108207146209    -1.164502302367    -0.802071182047
    C            0.131395922754     1.020292172840    -1.008202668675
    H            0.555214786752    -1.112670306260    -0.999836093983
    H            1.062408018853    -0.311524311762     0.450626482557
    C           -1.347522641538     0.903046854193    -0.600460995836
    H            0.186880242010     1.112684452215    -2.086994156365
    H            0.573886217962     1.915563140941    -0.585138817697
    C           -1.623131056527     0.300830852392     0.780850451892
    H           -1.865324204955     0.294113798776    -1.339852608472
    H           -1.797531440392     1.890520559032    -0.660428131648
    C           -3.106784822227     0.340103761112     1.152966949313
    H           -1.280540274250    -0.730062283404     0.810016533586
    H           -1.051442234304     0.836038432153     1.538456464647
    C           -3.406153621536    -0.284708113796     2.516831039428
    H           -3.683353234266    -0.177057816427     0.387512285954
    H           -3.452290993987     1.372389972057     1.147777238565
    C           -4.889324383551    -0.238135854139     2.882565550793
    H           -3.066016261722    -1.318178244653     2.522166644907
    H           -2.829678373586     0.229748020311     3.282788812603
    H           -5.069757331627    -0.688863972202     3.853591868842
    H           -5.490118771603    -0.773478708788     2.152702779131
    H           -5.251760661379     0.785281747944     2.920577356296
    C            4.454132917554    -1.211669649941    -1.239107834319
    H            4.503942796136    -1.203011212187    -2.318457041212
    H            4.857410588669    -2.135137855328    -0.853636243987
    H            5.009472929585    -0.369812647448    -0.851286832507

  Mulliken Charges: (a.u.)
   Center  Symbol    Alpha    Beta     Spin     Total
       1     O     4.28602  4.28602  0.00000 -0.57203
       2     C     2.60448  2.60448  0.00000  0.79104
       3     C     3.21254  3.21254  0.00000 -0.42508
       4     O     4.30746  4.30746  0.00000 -0.61493
       5     C     3.15276  3.15276  0.00000 -0.30551
       6     H     0.40137  0.40137  0.00000  0.19726
       7     H     0.39827  0.39827  0.00000  0.20346
       8     C     3.15568  3.15568  0.00000 -0.31137
       9     H     0.40885  0.40885  0.00000  0.18231
      10     H     0.41228  0.41228  0.00000  0.17544
      11     C     3.15770  3.15770  0.00000 -0.31541
      12     H     0.42295  0.42295  0.00000  0.15410
      13     H     0.41794  0.41794  0.00000  0.16413
      14     C     3.15016  3.15016  0.00000 -0.30031
      15     H     0.42206  0.42206  0.00000  0.15588
      16     H     0.42367  0.42367  0.00000  0.15266
      17     C     3.15142  3.15142  0.00000 -0.30284
      18     H     0.42380  0.42380  0.00000  0.15240
      19     H     0.42319  0.42319  0.00000  0.15363
      20     C     3.23935  3.23935  0.00000 -0.47871
      21     H     0.42337  0.42337  0.00000  0.15326
      22     H     0.42301  0.42301  0.00000  0.15398
      23     H     0.41922  0.41922  0.00000  0.16157
      24     H     0.42173  0.42173  0.00000  0.15654
      25     H     0.42154  0.42154  0.00000  0.15693
      26     C     3.09236  3.09236  0.00000 -0.18471
      27     H     0.40917  0.40917  0.00000  0.18165
      28     H     0.40854  0.40854  0.00000  0.18292
      29     H     0.40913  0.40913  0.00000  0.18175

   Total alpha = 44.00000, Total beta = 44.00000, Total charge = -0.00000
