  ==> Input File <==

--------------------------------------------------------------------------
set {
	reference rhf
	basis 6-31G*
}

set_num_threads( 1 )
memory 2 gb

molecule MOL {
0 1

H	 -3.420663	 1.227371	 -1.044276
O	 -3.452007	 0.283848	 -0.965577
C	 -3.181085	 -0.079926	 0.364119
C	 -1.765924	 0.277073	 0.805136
H	 -3.327791	 -1.152017	 0.410903
H	 -3.905698	 0.375695	 1.036898
C	 -0.677594	 -0.417312	 -0.014550
H	 -1.637766	 1.358238	 0.744969
H	 -1.659588	 0.017670	 1.857098
C	 0.738335	 -0.034840	 0.421385
H	 -0.814977	 -0.178223	 -1.064632
H	 -0.802730	 -1.495410	 0.071702
C	 1.822265	 -0.738362	 -0.399735
H	 0.853533	 1.043532	 0.342250
H	 0.871597	 -0.279636	 1.474438
C	 3.103438	 -1.065877	 0.375819
H	 2.073335	 -0.125379	 -1.263975
H	 1.412231	 -1.665282	 -0.795346
C	 3.895979	 0.157496	 0.840192
H	 3.743322	 -1.674948	 -0.258113
H	 2.854722	 -1.683138	 1.236826
H	 4.148104	 0.800374	 0.000978
H	 4.824711	 -0.142648	 1.315805
H	 3.341328	 0.752720	 1.557991

	symmetry c1
}
set optking {
	frozen_dihedral = ("
		20 16 13 17,
		13 10 7 11,
		11 7 4 3,
		1 2 3 5,
		7 4 3 2
	")
}

ee = energy('scf')
oeprop('DIPOLE', 'QUADRUPOLE', 'MULLIKEN_CHARGES')
f=open( 'psi4out.xyz', 'w' )
f.write( "24  " )
f.write( str(ee) + "\n" )
f.write( MOL.save_string_xyz() )
f.close()
--------------------------------------------------------------------------

    Molecular point group: c1

    Geometry (in Angstrom), charge = 0, multiplicity = 1:

       Center              X                  Y                   Z               Mass
    ------------   -----------------  -----------------  -----------------  -----------------
           H         -3.426097144724     1.409286144506    -1.207310548302     1.007825032070
           O         -3.457441144724     0.465763144506    -1.128611548302    15.994914619560
           C         -3.186519144724     0.101989144506     0.201084451698    12.000000000000
           C         -1.771358144724     0.458988144506     0.642101451698    12.000000000000
           H         -3.333225144724    -0.970101855494     0.247868451698     1.007825032070
           H         -3.911132144724     0.557610144506     0.873863451698     1.007825032070
           C         -0.683028144724    -0.235396855494    -0.177584548302    12.000000000000
           H         -1.643200144724     1.540153144506     0.581934451698     1.007825032070
           H         -1.665022144724     0.199585144506     1.694063451698     1.007825032070
           C          0.732900855276     0.147075144506     0.258350451698    12.000000000000
           H         -0.820411144724     0.003692144506    -1.227666548302     1.007825032070
           H         -0.808164144724    -1.313494855494    -0.091332548302     1.007825032070
           C          1.816830855276    -0.556446855494    -0.562769548302    12.000000000000
           H          0.848098855276     1.225447144506     0.179215451698     1.007825032070
           H          0.866162855276    -0.097720855494     1.311403451698     1.007825032070
           C          3.098003855276    -0.883961855494     0.212784451698    12.000000000000
           H          2.067900855276     0.056536144506    -1.427009548302     1.007825032070
           H          1.406796855276    -1.483366855494    -0.958380548302     1.007825032070
           C          3.890544855276     0.339411144506     0.677157451698    12.000000000000
           H          3.737887855276    -1.493032855494    -0.421147548302     1.007825032070
           H          2.849287855276    -1.501222855494     1.073791451698     1.007825032070
           H          4.142669855276     0.982289144506    -0.162056548302     1.007825032070
           H          4.819276855276     0.039267144506     1.152770451698     1.007825032070
           H          3.335893855276     0.934635144506     1.394956451698     1.007825032070

  Charge       = 0
  Multiplicity = 1
  Basis Set: 6-31G*
  Basis Set:

    Orbital Energies (a.u.)
    -----------------------

    Doubly Occupied:

       1A    -20.553550     2A    -11.267712     3A    -11.217250
       4A    -11.214076     5A    -11.211971     6A    -11.211347
       7A    -11.210636     8A    -11.207379     9A     -1.360148
      10A     -1.088630    11A     -1.048156    12A     -0.985610
      13A     -0.914604    14A     -0.850495    15A     -0.801910
      16A     -0.775560    17A     -0.679556    18A     -0.652096
      19A     -0.626653    20A     -0.618489    21A     -0.592871
      22A     -0.590403    23A     -0.552640    24A     -0.544494
      25A     -0.516822    26A     -0.504273    27A     -0.501819
      28A     -0.474429    29A     -0.467841    30A     -0.458743
      31A     -0.452308    32A     -0.450881    33A     -0.418936

  @DF-RHF Final Energy:  -349.24499676777481

   => Energetics <=

    Nuclear Repulsion Energy =            384.2799960624232085
    One-Electron Energy =               -1235.0053147405483287
    Two-Electron Energy =                 501.4803219103516199
    DFT Exchange-Correlation Energy =       0.0000000000000000
    Empirical Dispersion Energy =           0.0000000000000000
    PCM Polarization Energy =               0.0000000000000000
    EFP Energy =                            0.0000000000000000
    Total Energy =                       -349.2449967677735572

  Mulliken Charges: (a.u.)
   Center  Symbol    Alpha    Beta     Spin     Total
       1     H     0.28338  0.28338  0.00000  0.43324
       2     O     4.36831  4.36831  0.00000 -0.73662
       3     C     2.99619  2.99619  0.00000  0.00763
       4     C     3.16931  3.16931  0.00000 -0.33863
       5     H     0.41640  0.41640  0.00000  0.16721
       6     H     0.42819  0.42819  0.00000  0.14363
       7     C     3.15372  3.15372  0.00000 -0.30743
       8     H     0.42830  0.42830  0.00000  0.14340
       9     H     0.42233  0.42233  0.00000  0.15534
      10     C     3.15360  3.15360  0.00000 -0.30719
      11     H     0.41175  0.41175  0.00000  0.17650
      12     H     0.42330  0.42330  0.00000  0.15341
      13     C     3.15394  3.15394  0.00000 -0.30788
      14     H     0.42251  0.42251  0.00000  0.15499
      15     H     0.42434  0.42434  0.00000  0.15131
      16     C     3.15324  3.15324  0.00000 -0.30648
      17     H     0.42263  0.42263  0.00000  0.15475
      18     H     0.42015  0.42015  0.00000  0.15971
      19     C     3.24067  3.24067  0.00000 -0.48134
      20     H     0.42169  0.42169  0.00000  0.15662
      21     H     0.42373  0.42373  0.00000  0.15255
      22     H     0.42240  0.42240  0.00000  0.15520
      23     H     0.41972  0.41972  0.00000  0.16057
      24     H     0.42024  0.42024  0.00000  0.15952

   Total alpha = 33.00000, Total beta = 33.00000, Total charge =  0.00000
