  ==> Input File <==

--------------------------------------------------------------------------
set {
	reference rhf
	basis 6-31G*
}

set_num_threads( 4 )
memory 2 gb

molecule MOL {
0 1

H	 2.343455	 0.755932	 -0.441314
O	 2.064459	 -0.086912	 -0.111827
C	 0.745630	 0.005118	 0.354752
H	 0.739005	 0.037656	 1.444976
C	 -0.064159	 -1.194875	 -0.122754
C	 -0.046302	 1.193543	 -0.190431
H	 0.197384	 -1.376065	 -1.160690
H	 0.162855	 -2.097978	 0.431858
C	 -1.535782	 -0.752177	 0.006642
H	 0.154512	 1.271315	 -1.255561
H	 0.226209	 2.140461	 0.267302
C	 -1.509193	 0.801505	 0.065617
H	 -2.127797	 -1.112194	 -0.826847
H	 -1.986849	 -1.158408	 0.905561
H	 -2.183670	 1.254107	 -0.651985
H	 -1.821727	 1.144320	 1.047089

	symmetry c1
}
set optking {
	frozen_dihedral = ("
		1 2 3 6
	")
}

ee = optimize('scf')
oeprop('DIPOLE', 'QUADRUPOLE', 'MULLIKEN_CHARGES')
f=open( 'psi4out.xyz', 'w' )
f.write( "16  " )
f.write( str(ee) + "\n" )
f.write( MOL.save_string_xyz() )
f.close()
--------------------------------------------------------------------------

    Molecular point group: c1
  Charge       = 0
  Multiplicity = 1
  Basis Set: 6-31G*
  Basis Set:
  @DF-RHF Final Energy:  -270.01211433731487
    Total Energy =                       -270.0121143373149835
    Molecular point group: c1
  Basis Set: 6-31G*
  Basis Set:
  Basis Set: 6-31G*
  Basis Set:
  @DF-RHF Final Energy:  -270.01233555930577
    Total Energy =                       -270.0123355593059387
  Basis Set: 6-31G*
  Basis Set:
  Basis Set: 6-31G*
  Basis Set:
  @DF-RHF Final Energy:  -270.01240481341495
    Total Energy =                       -270.0124048134148325
  Basis Set: 6-31G*
  Basis Set:
  Basis Set: 6-31G*
  Basis Set:
  @DF-RHF Final Energy:  -270.01240922196035
    Total Energy =                       -270.0124092219606382
  Basis Set: 6-31G*
  Basis Set:
  Basis Set: 6-31G*
  Basis Set:
  @DF-RHF Final Energy:  -270.01241572152310
    Total Energy =                       -270.0124157215233254
  Basis Set: 6-31G*
  Basis Set:
  Basis Set: 6-31G*
  Basis Set:
  @DF-RHF Final Energy:  -270.01241876693541
    Total Energy =                       -270.0124187669351841
  Basis Set: 6-31G*
  Basis Set:
  Charge       = 0
  Multiplicity = 1
  Basis Set: 6-31G*
  Basis Set:

    Orbital Energies (a.u.)
    -----------------------

    Doubly Occupied:

       1A    -20.549819     2A    -11.268042     3A    -11.220402
       4A    -11.219087     5A    -11.216605     6A    -11.208036
       7A     -1.359131     8A     -1.115403     9A     -0.968783
      10A     -0.948795    11A     -0.797180    12A     -0.778940
      13A     -0.685902    14A     -0.664354    15A     -0.610262
      16A     -0.599022    17A     -0.574300    18A     -0.527848
      19A     -0.500573    20A     -0.484985    21A     -0.472667
      22A     -0.458930    23A     -0.444498    24A     -0.421415

  @DF-RHF Final Energy:  -270.01241944395542

   => Energetics <=

    Nuclear Repulsion Energy =            255.1528239911419007
    One-Electron Energy =                -872.1405259617577030
    Two-Electron Energy =                 346.9752825266605214
    DFT Exchange-Correlation Energy =       0.0000000000000000
    Empirical Dispersion Energy =           0.0000000000000000
    PCM Polarization Energy =               0.0000000000000000
    EFP Energy =                            0.0000000000000000
    Total Energy =                       -270.0124194439553094
    Molecular point group: c1
  Basis Set: 6-31G*
  Basis Set:

  -Total Gradient:
     Atom            X                  Y                   Z
    ------   -----------------  -----------------  -----------------
       1       -0.000510139264    -0.000370375801    -0.001549041863
       2        0.000744208886     0.000724823556     0.002287026850
       3       -0.000537701864    -0.000932632719    -0.001598975832
       4       -0.000005886279    -0.000002688081     0.000017014210
       5        0.000024679224     0.000032892405    -0.000007759014
       6        0.000308499615     0.000569659504     0.000815691912
       7       -0.000000720650    -0.000034750898    -0.000002063003
       8       -0.000001351826     0.000020323426     0.000025637794
       9       -0.000008158206     0.000007586048     0.000011304961
      10        0.000006194662    -0.000005704965     0.000003520054
      11       -0.000004371675     0.000000006499    -0.000005914265
      12       -0.000012092153    -0.000005948514     0.000012154044
      13        0.000026085965     0.000021520900    -0.000024495828
      14       -0.000032319548    -0.000019211617    -0.000016177091
      15       -0.000019747626     0.000010069917     0.000021487889
      16        0.000022820737    -0.000015569661     0.000010589182

  **** Optimization is complete! (in 7 steps) ****
    Final optimized geometry and variables:
    Molecular point group: c1

    Geometry (in Angstrom), charge = 0, multiplicity = 1:

    H            2.374138093634     0.770298592799    -0.377247839816
    O            2.081577111949    -0.077464290721    -0.076733935018
    C            0.745216506223    -0.003697091448     0.347646832084
    H            0.726433262480     0.025795201312     1.436570826613
    C           -0.069607317253    -1.197962517737    -0.138104061212
    C           -0.043597977646     1.189554279167    -0.188751164273
    H            0.168328412147    -1.360129732095    -1.185058293130
    H            0.167754409903    -2.111552612947     0.394863149401
    C           -1.536150117631    -0.755958484913     0.033734547509
    H            0.150550757264     1.279776211714    -1.256039219555
    H            0.231862606352     2.130207524749     0.279223433223
    C           -1.509412392784     0.799223179264     0.061226656230
    H           -2.159382343317    -1.134567328861    -0.768145823843
    H           -1.951470270122    -1.142200964113     0.958342865854
    H           -2.174563066996     1.237009749695    -0.673887259131
    H           -1.832049353671     1.163768652930     1.030952511208

  Mulliken Charges: (a.u.)
   Center  Symbol    Alpha    Beta     Spin     Total
       1     H     0.27948  0.27948  0.00000  0.44104
       2     O     4.38270  4.38270  0.00000 -0.76540
       3     C     2.89619  2.89619  0.00000  0.20761
       4     H     0.42770  0.42770  0.00000  0.14461
       5     C     3.16580  3.16580  0.00000 -0.33160
       6     C     3.18825  3.18825  0.00000 -0.37650
       7     H     0.41510  0.41510  0.00000  0.16981
       8     H     0.41202  0.41202  0.00000  0.17595
       9     C     3.17013  3.17013  0.00000 -0.34025
      10     H     0.41909  0.41909  0.00000  0.16182
      11     H     0.41607  0.41607  0.00000  0.16786
      12     C     3.16724  3.16724  0.00000 -0.33448
      13     H     0.41439  0.41439  0.00000  0.17122
      14     H     0.41613  0.41613  0.00000  0.16775
      15     H     0.41369  0.41369  0.00000  0.17263
      16     H     0.41603  0.41603  0.00000  0.16794

   Total alpha = 24.00000, Total beta = 24.00000, Total charge =  0.00000
