  ==> Input File <==

--------------------------------------------------------------------------
set {
	reference rhf
	basis 6-31G*
}

set_num_threads( 1 )
memory 2 gb

molecule MOL {
0 1

H	 -2.798360	 -0.862255	 -0.071053
N	 -1.863561	 -0.715187	 0.256814
C	 -1.344686	 0.554728	 -0.219830
H	 -1.300452	 -1.461917	 -0.101532
C	 0.081427	 0.741154	 0.254071
H	 -1.362155	 0.656231	 -1.305829
H	 -1.952773	 1.354456	 0.191809
O	 0.874168	 -0.245412	 -0.342030
H	 0.444037	 1.730782	 -0.023037
H	 0.121165	 0.653424	 1.337565
C	 0.883970	 -0.211061	 -1.733538
H	 1.523089	 -1.013095	 -2.076998
H	 -0.114210	 -0.357744	 -2.142320
H	 1.273543	 0.734426	 -2.105152

	symmetry c1
}
set optking {
	frozen_dihedral = ("
		8 5 3 6,
		6 3 2 4,
		5 8 11 13
	")
}

ee = energy('scf')
oeprop('DIPOLE', 'QUADRUPOLE', 'MULLIKEN_CHARGES')
f=open( 'psi4out.xyz', 'w' )
f.write( "14  " )
f.write( str(ee) + "\n" )
f.write( MOL.save_string_xyz() )
f.close()
--------------------------------------------------------------------------

    Molecular point group: c1

    Geometry (in Angstrom), charge = 0, multiplicity = 1:

       Center              X                  Y                   Z               Mass
    ------------   -----------------  -----------------  -----------------  -----------------
           H         -2.520433199951    -0.869224949196     0.310091816983     1.007825032070
           N         -1.585634199951    -0.722156949196     0.637958816983    14.003074004780
           C         -1.066759199951     0.547758050804     0.161314816983    12.000000000000
           H         -1.022525199951    -1.468886949196     0.279612816983     1.007825032070
           C          0.359353800049     0.734184050804     0.635215816983    12.000000000000
           H         -1.084228199951     0.649261050804    -0.924684183017     1.007825032070
           H         -1.674846199951     1.347486050804     0.572953816983     1.007825032070
           O          1.152094800049    -0.252381949196     0.039114816983    15.994914619560
           H          0.721963800049     1.723812050804     0.358107816983     1.007825032070
           H          0.399091800049     0.646454050804     1.718709816983     1.007825032070
           C          1.161896800049    -0.218030949196    -1.352393183017    12.000000000000
           H          1.801015800049    -1.020064949196    -1.695853183017     1.007825032070
           H          0.163716800049    -0.364713949196    -1.761175183017     1.007825032070
           H          1.551469800049     0.727456050804    -1.724007183017     1.007825032070

  Charge       = 0
  Multiplicity = 1
  Basis Set: 6-31G*
  Basis Set:

    Orbital Energies (a.u.)
    -----------------------

    Doubly Occupied:

       1A    -20.557722     2A    -15.533936     3A    -11.267963
       4A    -11.267013     5A    -11.241171     6A     -1.384308
       7A     -1.177706     8A     -0.996705     9A     -0.926016
      10A     -0.805912    11A     -0.696238    12A     -0.680454
      13A     -0.642975    14A     -0.618898    15A     -0.598068
      16A     -0.542239    17A     -0.535014    18A     -0.518184
      19A     -0.461450    20A     -0.420708    21A     -0.380901

  @DF-RHF Final Energy:  -248.11445141316730

   => Energetics <=

    Nuclear Repulsion Energy =            199.8480305424577921
    One-Electron Energy =                -733.4177089081266558
    Two-Electron Energy =                 285.4552269525010502
    DFT Exchange-Correlation Energy =       0.0000000000000000
    Empirical Dispersion Energy =           0.0000000000000000
    PCM Polarization Energy =               0.0000000000000000
    EFP Energy =                            0.0000000000000000
    Total Energy =                       -248.1144514131678420

  Mulliken Charges: (a.u.)
   Center  Symbol    Alpha    Beta     Spin     Total
       1     H     0.33238  0.33238  0.00000  0.33524
       2     N     3.92083  3.92083  0.00000 -0.84166
       3     C     3.08588  3.08588  0.00000 -0.17177
       4     H     0.32584  0.32584  0.00000  0.34832
       5     C     2.99401  2.99401  0.00000  0.01199
       6     H     0.43013  0.43013  0.00000  0.13975
       7     H     0.41830  0.41830  0.00000  0.16340
       8     O     4.30484  4.30484  0.00000 -0.60969
       9     H     0.42964  0.42964  0.00000  0.14072
      10     H     0.40447  0.40447  0.00000  0.19106
      11     C     3.08708  3.08708  0.00000 -0.17415
      12     H     0.40999  0.40999  0.00000  0.18002
      13     H     0.42860  0.42860  0.00000  0.14281
      14     H     0.42802  0.42802  0.00000  0.14397

   Total alpha = 21.00000, Total beta = 21.00000, Total charge =  0.00000
