  ==> Input File <==

--------------------------------------------------------------------------
set {
	reference rhf
	basis 6-31G*
}

set_num_threads( 1 )
memory 2 gb

molecule MOL {
0 1

H	 -4.236494	 0.538104	 0.039757
O	 -3.517110	 -0.026191	 -0.205115
C	 -2.306886	 0.532354	 0.237577
C	 -1.177863	 -0.397191	 -0.171080
H	 -2.156308	 1.517575	 -0.201710
H	 -2.315015	 0.655684	 1.319734
C	 0.198102	 0.111031	 0.262842
H	 -1.208843	 -0.518759	 -1.250427
H	 -1.368741	 -1.376554	 0.258909
C	 1.331804	 -0.827780	 -0.158768
H	 0.361943	 1.100838	 -0.156218
H	 0.217265	 0.229072	 1.345532
C	 2.723619	 -0.410569	 0.329459
H	 1.342964	 -0.912588	 -1.244120
H	 1.116806	 -1.824343	 0.220779
C	 3.486646	 -1.501293	 1.083412
H	 2.614385	 0.452305	 0.981843
H	 3.316754	 -0.075240	 -0.519016
H	 2.911567	 -1.864998	 1.930785
H	 3.714163	 -2.351347	 0.448730
H	 4.428770	 -1.119178	 1.464389

	symmetry c1
}
set optking {
	frozen_dihedral = ("
		2 3 4 8,
		8 4 7 10,
		4 7 10 14,
		1 2 3 5
	")
}

ee = energy('scf')
oeprop('DIPOLE', 'QUADRUPOLE', 'MULLIKEN_CHARGES')
f=open( 'psi4out.xyz', 'w' )
f.write( "21  " )
f.write( str(ee) + "\n" )
f.write( MOL.save_string_xyz() )
f.close()
--------------------------------------------------------------------------

    Molecular point group: c1

    Geometry (in Angstrom), charge = 0, multiplicity = 1:

       Center              X                  Y                   Z               Mass
    ------------   -----------------  -----------------  -----------------  -----------------
           H         -4.271916451755     0.890029376080    -0.159996988620     1.007825032070
           O         -3.552532451755     0.325734376080    -0.404868988620    15.994914619560
           C         -2.342308451755     0.884279376080     0.037823011380    12.000000000000
           C         -1.213285451755    -0.045265623920    -0.370833988620    12.000000000000
           H         -2.191730451755     1.869500376080    -0.401463988620     1.007825032070
           H         -2.350437451755     1.007609376080     1.119980011380     1.007825032070
           C          0.162679548245     0.462956376080     0.063088011380    12.000000000000
           H         -1.244265451755    -0.166833623920    -1.450180988620     1.007825032070
           H         -1.404163451755    -1.024628623920     0.059155011380     1.007825032070
           C          1.296381548245    -0.475854623920    -0.358521988620    12.000000000000
           H          0.326520548245     1.452763376080    -0.355971988620     1.007825032070
           H          0.181842548245     0.580997376080     1.145778011380     1.007825032070
           C          2.688196548245    -0.058643623920     0.129705011380    12.000000000000
           H          1.307541548245    -0.560662623920    -1.443873988620     1.007825032070
           H          1.081383548245    -1.472417623920     0.021025011380     1.007825032070
           C          3.451223548245    -1.149367623920     0.883658011380    12.000000000000
           H          2.578962548245     0.804230376080     0.782089011380     1.007825032070
           H          3.281331548245     0.276685376080    -0.718769988620     1.007825032070
           H          2.876144548245    -1.513072623920     1.731031011380     1.007825032070
           H          3.678740548245    -1.999421623920     0.248976011380     1.007825032070
           H          4.393347548245    -0.767252623920     1.264635011380     1.007825032070

  Charge       = 0
  Multiplicity = 1
  Basis Set: 6-31G*
  Basis Set:

    Orbital Energies (a.u.)
    -----------------------

    Doubly Occupied:

       1A    -20.551882     2A    -11.267137     3A    -11.216783
       4A    -11.213528     5A    -11.212051     6A    -11.210479
       7A    -11.208610     8A     -1.358706     9A     -1.085491
      10A     -1.033915    11A     -0.956370    12A     -0.869487
      13A     -0.803149    14A     -0.788643    15A     -0.692297
      16A     -0.662273    17A     -0.626674    18A     -0.599949
      19A     -0.584929    20A     -0.562538    21A     -0.545539
      22A     -0.522206    23A     -0.507101    24A     -0.486123
      25A     -0.477640    26A     -0.460402    27A     -0.454834
      28A     -0.443293    29A     -0.434007

  @DF-RHF Final Energy:  -310.20853786337852

   => Energetics <=

    Nuclear Repulsion Energy =            309.4994466633363572
    One-Electron Energy =               -1033.7438872575728510
    Two-Electron Energy =                 414.0359027308581403
    DFT Exchange-Correlation Energy =       0.0000000000000000
    Empirical Dispersion Energy =           0.0000000000000000
    PCM Polarization Energy =               0.0000000000000000
    EFP Energy =                            0.0000000000000000
    Total Energy =                       -310.2085378633783534

  Mulliken Charges: (a.u.)
   Center  Symbol    Alpha    Beta     Spin     Total
       1     H     0.28117  0.28117  0.00000  0.43765
       2     O     4.37171  4.37171  0.00000 -0.74341
       3     C     2.98983  2.98983  0.00000  0.02034
       4     C     3.15998  3.15998  0.00000 -0.31996
       5     H     0.43291  0.43291  0.00000  0.13419
       6     H     0.43290  0.43290  0.00000  0.13420
       7     C     3.16217  3.16217  0.00000 -0.32434
       8     H     0.41469  0.41469  0.00000  0.17061
       9     H     0.41455  0.41455  0.00000  0.17090
      10     C     3.15374  3.15374  0.00000 -0.30747
      11     H     0.42274  0.42274  0.00000  0.15453
      12     H     0.42347  0.42347  0.00000  0.15306
      13     C     3.15463  3.15463  0.00000 -0.30926
      14     H     0.42016  0.42016  0.00000  0.15968
      15     H     0.42026  0.42026  0.00000  0.15948
      16     C     3.24013  3.24013  0.00000 -0.48026
      17     H     0.42124  0.42124  0.00000  0.15752
      18     H     0.42055  0.42055  0.00000  0.15889
      19     H     0.42202  0.42202  0.00000  0.15595
      20     H     0.42066  0.42066  0.00000  0.15868
      21     H     0.42049  0.42049  0.00000  0.15902

   Total alpha = 29.00000, Total beta = 29.00000, Total charge =  0.00000
