  ==> Input File <==

--------------------------------------------------------------------------
set {
	reference rhf
	basis 6-31G*
}

set_num_threads( 1 )
memory 2 gb

molecule MOL {
0 1

O	 -0.689226	 -1.591502	 -1.727397
C	 -1.538570	 -1.407419	 -0.915397
C	 -2.796594	 -2.231117	 -0.814573
O	 -1.481751	 -0.454642	 0.000584
H	 -2.522197	 -3.268195	 -0.662788
H	 -3.432968	 -1.897759	 -0.008138
H	 -3.330306	 -2.167672	 -1.755321
C	 -0.334255	 0.388708	 0.000906
C	 0.891947	 -0.504646	 0.000751
H	 -0.365390	 1.025305	 -0.873475
H	 -0.365484	 1.024911	 0.875569
C	 2.191998	 0.301789	 0.000897
H	 0.855148	 -1.151283	 -0.871571
H	 0.855132	 -1.151660	 0.872805
C	 3.441114	 -0.581407	 0.000108
H	 2.215074	 0.954890	 -0.869742
H	 2.215465	 0.953923	 0.872248
C	 4.739576	 0.224112	 -0.001102
H	 3.419457	 -1.233487	 -0.870178
H	 3.420834	 -1.233096	 0.870717
H	 4.804918	 0.861552	 -0.878265
H	 5.606527	 -0.429058	 -0.001824
H	 4.806469	 0.861674	 0.875853

	symmetry c1
}
set optking {
	frozen_dihedral = ("
		13 9 8 10,
		16 12 9 13,
		19 15 12 16,
		1 2 4 8
	")
}

ee = energy('scf')
oeprop('DIPOLE', 'QUADRUPOLE', 'MULLIKEN_CHARGES')
f=open( 'psi4out.xyz', 'w' )
f.write( "23  " )
f.write( str(ee) + "\n" )
f.write( MOL.save_string_xyz() )
f.close()
--------------------------------------------------------------------------

    Molecular point group: c1

    Geometry (in Angstrom), charge = 0, multiplicity = 1:

       Center              X                  Y                   Z               Mass
    ------------   -----------------  -----------------  -----------------  -----------------
           O         -1.171495473080    -0.935455715218    -1.336893791151    15.994914619560
           C         -2.020839473080    -0.751372715218    -0.524893791151    12.000000000000
           C         -3.278863473080    -1.575070715218    -0.424069791151    12.000000000000
           O         -1.964020473080     0.201404284782     0.391087208849    15.994914619560
           H         -3.004466473080    -2.612148715218    -0.272284791151     1.007825032070
           H         -3.915237473080    -1.241712715218     0.382365208849     1.007825032070
           H         -3.812575473080    -1.511625715218    -1.364817791151     1.007825032070
           C         -0.816524473080     1.044754284782     0.391409208849    12.000000000000
           C          0.409677526920     0.151400284782     0.391254208849    12.000000000000
           H         -0.847659473080     1.681351284782    -0.482971791151     1.007825032070
           H         -0.847753473080     1.680957284782     1.266072208849     1.007825032070
           C          1.709728526920     0.957835284782     0.391400208849    12.000000000000
           H          0.372878526920    -0.495236715218    -0.481067791151     1.007825032070
           H          0.372862526920    -0.495613715218     1.263308208849     1.007825032070
           C          2.958844526920     0.074639284782     0.390611208849    12.000000000000
           H          1.732804526920     1.610936284782    -0.479238791151     1.007825032070
           H          1.733195526920     1.609969284782     1.262751208849     1.007825032070
           C          4.257306526920     0.880158284782     0.389401208849    12.000000000000
           H          2.937187526920    -0.577440715218    -0.479674791151     1.007825032070
           H          2.938564526920    -0.577049715218     1.261220208849     1.007825032070
           H          4.322648526920     1.517598284782    -0.487761791151     1.007825032070
           H          5.124257526920     0.226988284782     0.388679208849     1.007825032070
           H          4.324199526920     1.517720284782     1.266356208849     1.007825032070

  Charge       = 0
  Multiplicity = 1
  Basis Set: 6-31G*
  Basis Set:

    Orbital Energies (a.u.)
    -----------------------

    Doubly Occupied:

       1A    -20.604905     2A    -20.542051     3A    -11.379585
       4A    -11.282420     5A    -11.234759     6A    -11.212827
       7A    -11.212143     8A    -11.206248     9A    -11.199690
      10A     -1.473666    11A     -1.366492    12A     -1.084317
      13A     -1.039989    14A     -0.997820    15A     -0.928322
      16A     -0.849791    17A     -0.793351    18A     -0.762637
      19A     -0.706206    20A     -0.684930    21A     -0.658676
      22A     -0.640261    23A     -0.604140    24A     -0.588842
      25A     -0.579716    26A     -0.567633    27A     -0.555413
      28A     -0.533010    29A     -0.523256    30A     -0.518203
      31A     -0.487502    32A     -0.472380    33A     -0.463816
      34A     -0.463046    35A     -0.435295    36A     -0.413816

  @DF-RHF Final Energy:  -422.95938854819173

   => Energetics <=

    Nuclear Repulsion Energy =            466.6393794437782958
    One-Electron Energy =               -1501.0633865789852734
    Two-Electron Energy =                 611.4646185870141153
    DFT Exchange-Correlation Energy =       0.0000000000000000
    Empirical Dispersion Energy =           0.0000000000000000
    PCM Polarization Energy =               0.0000000000000000
    EFP Energy =                            0.0000000000000000
    Total Energy =                       -422.9593885481928055

  Mulliken Charges: (a.u.)
   Center  Symbol    Alpha    Beta     Spin     Total
       1     O     4.28904  4.28904  0.00000 -0.57809
       2     C     2.60891  2.60891  0.00000  0.78219
       3     C     3.28783  3.28783  0.00000 -0.57566
       4     O     4.31258  4.31258  0.00000 -0.62515
       5     H     0.39763  0.39763  0.00000  0.20475
       6     H     0.39846  0.39846  0.00000  0.20307
       7     H     0.39698  0.39698  0.00000  0.20604
       8     C     2.99871  2.99871  0.00000  0.00258
       9     C     3.19530  3.19530  0.00000 -0.39059
      10     H     0.41233  0.41233  0.00000  0.17533
      11     H     0.40723  0.40723  0.00000  0.18554
      12     C     3.15635  3.15635  0.00000 -0.31270
      13     H     0.36717  0.36717  0.00000  0.26565
      14     H     0.42305  0.42305  0.00000  0.15389
      15     C     3.15069  3.15069  0.00000 -0.30138
      16     H     0.42334  0.42334  0.00000  0.15332
      17     H     0.42841  0.42841  0.00000  0.14317
      18     C     3.23938  3.23938  0.00000 -0.47875
      19     H     0.41945  0.41945  0.00000  0.16110
      20     H     0.42336  0.42336  0.00000  0.15329
      21     H     0.42173  0.42173  0.00000  0.15654
      22     H     0.41942  0.41942  0.00000  0.16116
      23     H     0.42265  0.42265  0.00000  0.15470

   Total alpha = 36.00000, Total beta = 36.00000, Total charge =  0.00000
