                              Psi4 1.0.54 Driver

  ==> Input File <==

--------------------------------------------------------------------------
set {
	reference rhf
	basis cc-pvtz
}

set_num_threads( 4 )
memory 2 gb

molecule MOL {
0 1

H	 3.273419	 0.176595	 -0.102789
N	 2.433987	 -0.362316	 -0.080024
C	 1.263552	 0.494993	 0.021953
H	 2.497638	 -0.973615	 0.707122
C	 -0.016533	 -0.325589	 -0.026925
H	 1.280915	 1.180773	 -0.818522
H	 1.263064	 1.106893	 0.925038
C	 -1.280353	 0.525521	 0.047747
H	 -0.016686	 -0.912532	 -0.939714
H	 -0.014099	 -1.037598	 0.796369
C	 -2.230148	 0.087247	 1.157610
H	 -1.799213	 0.481904	 -0.906113
H	 -1.008397	 1.566749	 0.198609
H	 -2.547650	 -0.940436	 1.016933
H	 -3.118610	 0.707706	 1.182410
H	 -1.752997	 0.153950	 2.129751

	symmetry c1
}
set optking {
	frozen_dihedral = ("
		12 8 5 9
	")
}

ee,wfn = optimize('scf', return_wfn=True)
oeprop( wfn, 'DIPOLE', 'QUADRUPOLE', 'MULLIKEN_CHARGES')
f=open( 'psi4out.xyz', 'w' )
f.write( "16  " )
f.write( str(ee) + "\n" )
f.write( MOL.save_string_xyz() )
f.close()
--------------------------------------------------------------------------

    Molecular point group: c1
  Charge       = 0
  Multiplicity = 1
  Basis Set: CC-PVTZ
  Basis Set:
  @DF-RHF Final Energy:  -212.39502258716121
    Total Energy =                       -212.3950225871610655
    Molecular point group: c1
  Basis Set: CC-PVTZ
  Basis Set:
  Basis Set: CC-PVTZ
  Basis Set:
  @DF-RHF Final Energy:  -212.39524861746133
    Total Energy =                       -212.3952486174613341
  Basis Set: CC-PVTZ
  Basis Set:
  Basis Set: CC-PVTZ
  Basis Set:
  @DF-RHF Final Energy:  -212.39530723141769
    Total Energy =                       -212.3953072314175188
  Basis Set: CC-PVTZ
  Basis Set:
  Charge       = 0
  Multiplicity = 1
  Basis Set: CC-PVTZ
  Basis Set:

    Orbital Energies (a.u.)
    -----------------------

    Doubly Occupied:

       1A    -15.526574     2A    -11.238633     3A    -11.212891
       4A    -11.207715     5A    -11.206727     6A     -1.178545
       7A     -1.058244     8A     -0.959600     9A     -0.845627
      10A     -0.792303    11A     -0.662238    12A     -0.639408
      13A     -0.600458    14A     -0.588047    15A     -0.564149
      16A     -0.518678    17A     -0.509388    18A     -0.469469
      19A     -0.460698    20A     -0.459851    21A     -0.384179

  @DF-RHF Final Energy:  -212.39530787858129

   => Energetics <=

    Nuclear Repulsion Energy =            186.8514020319512099
    One-Electron Energy =                -656.3265720383064945
    Two-Electron Energy =                 257.0798621277739926
    DFT Exchange-Correlation Energy =       0.0000000000000000
    Empirical Dispersion Energy =           0.0000000000000000
    PCM Polarization Energy =               0.0000000000000000
    EFP Energy =                            0.0000000000000000
    Total Energy =                       -212.3953078785812636
    Molecular point group: c1
  Basis Set: CC-PVTZ
  Basis Set:

  -Total Gradient:
     Atom            X                  Y                   Z
    ------   -----------------  -----------------  -----------------
       1        0.000039111534    -0.000012206141     0.000004628795
       2        0.000075725318    -0.000018210661    -0.000001387177
       3       -0.000076631769    -0.000035141312    -0.000022922734
       4        0.000012989341    -0.000002896813     0.000006430890
       5       -0.001128345969    -0.001686576610     0.001037118941
       6       -0.000004254488     0.000000405136     0.000006142517
       7       -0.000014780947     0.000010262682    -0.000005669793
       8        0.001142306247     0.001778407919    -0.000755177298
       9        0.000761964597     0.001183600532    -0.000757633511
      10       -0.000001851456    -0.000005537937     0.000001965793
      11       -0.000004779980     0.000026508378    -0.000021047394
      12       -0.000811384298    -0.001245802077     0.000509682095
      13        0.000006566876     0.000004701600     0.000003372464
      14        0.000005376045     0.000000162404     0.000000549712
      15       -0.000008517491     0.000001797145    -0.000000025519
      16        0.000006506435     0.000000525755    -0.000006027780

  **** Optimization is complete! (in 4 steps) ****
    Final optimized geometry and variables:
    Molecular point group: c1

    Geometry (in Angstrom), charge = 0, multiplicity = 1:

    H            3.210566919513     0.105673801897    -0.383193108736
    N            2.374046202178    -0.437171497653    -0.348377226942
    C            1.200950162445     0.412157099615    -0.226788778778
    H            2.453134739850    -1.051148202497     0.435331914876
    C           -0.077387068370    -0.415165656691    -0.251676547057
    H            1.197596158733     1.097954244766    -1.067658181469
    H            1.210202728525     1.025370827972     0.675872284962
    C           -1.353330230742     0.445245577195    -0.175860992025
    H           -0.068864201728    -1.008420206499    -1.158057417399
    H           -0.054014640162    -1.116729618060     0.577998008706
    C           -2.314333588937     0.013664991268     0.928797170200
    H           -1.877457641141     0.403054512114    -1.124210818237
    H           -1.086706544266     1.486243241899    -0.021403146925
    H           -2.631564079711    -1.014503078147     0.789645716051
    H           -3.202583544411     0.635262799566     0.943761687188
    H           -1.843967887663     0.083108446569     1.904310860146

  Mulliken Charges: (a.u.)
   Center  Symbol    Alpha    Beta     Spin     Total
       1     H     0.43008  0.43008  0.00000  0.13983
       2     N     3.69009  3.69009  0.00000 -0.38018
       3     C     3.02465  3.02465  0.00000 -0.04929
       4     H     0.43069  0.43069  0.00000  0.13862
       5     C     3.08549  3.08549  0.00000 -0.17099
       6     H     0.45628  0.45628  0.00000  0.08744
       7     H     0.46912  0.46912  0.00000  0.06176
       8     C     3.09323  3.09323  0.00000 -0.18645
       9     H     0.44634  0.44634  0.00000  0.10732
      10     H     0.46017  0.46017  0.00000  0.07965
      11     C     3.14762  3.14762  0.00000 -0.29524
      12     H     0.44983  0.44983  0.00000  0.10034
      13     H     0.45607  0.45607  0.00000  0.08785
      14     H     0.45397  0.45397  0.00000  0.09206
      15     H     0.44984  0.44984  0.00000  0.10032
      16     H     0.45652  0.45652  0.00000  0.08697

   Total alpha = 21.00000, Total beta = 21.00000, Total charge = -0.00000

*** Psi4 exiting successfully. Buy a developer a beer!
