                              Psi4 1.0.54 Driver

  ==> Input File <==

--------------------------------------------------------------------------
set {
	reference rhf
	basis cc-pvtz
}

set_num_threads( 4 )
memory 2 gb

molecule MOL {
0 1

O	 1.216069	 1.304886	 0.000821
C	 1.121787	 0.124983	 0.000110
C	 -0.170912	 -0.649867	 -0.000147
O	 2.167739	 -0.685178	 -0.000678
C	 -1.413045	 0.229353	 0.001137
H	 -0.152877	 -1.303435	 -0.866175
H	 -0.152278	 -1.305116	 0.864586
C	 -2.075910	 0.300914	 -1.371378
H	 -1.145630	 1.226542	 0.332260
H	 -2.119559	 -0.149885	 0.730905
C	 -3.320684	 1.181435	 -1.381988
H	 -1.362163	 0.678418	 -2.098905
H	 -2.341420	 -0.701139	 -1.697922
H	 -3.081584	 2.199236	 -1.093030
H	 -3.769717	 1.213719	 -2.367890
H	 -4.067993	 0.809630	 -0.689260
C	 3.449556	 -0.089977	 -0.000570
H	 3.585694	 0.522473	 -0.879546
H	 4.155805	 -0.904274	 -0.001389
H	 3.586173	 0.521118	 0.879272

	symmetry c1
}
set optking {
	frozen_dihedral = ("
		9 5 3 6
	")
}

ee,wfn = optimize('scf', return_wfn=True)
oeprop( wfn, 'DIPOLE', 'QUADRUPOLE', 'MULLIKEN_CHARGES')
f=open( 'psi4out.xyz', 'w' )
f.write( "20  " )
f.write( str(ee) + "\n" )
f.write( MOL.save_string_xyz() )
f.close()
--------------------------------------------------------------------------

    Molecular point group: c1
  Charge       = 0
  Multiplicity = 1
  Basis Set: CC-PVTZ
  Basis Set:
  @DF-RHF Final Energy:  -384.07953110203260
    Total Energy =                       -384.0795311020328882
    Molecular point group: c1
  Basis Set: CC-PVTZ
  Basis Set:
  Basis Set: CC-PVTZ
  Basis Set:
  @DF-RHF Final Energy:  -384.07990345287823
    Total Energy =                       -384.0799034528788525
  Basis Set: CC-PVTZ
  Basis Set:
  Basis Set: CC-PVTZ
  Basis Set:
  @DF-RHF Final Energy:  -384.07984415969696
    Total Energy =                       -384.0798441596973589
  Basis Set: CC-PVTZ
  Basis Set:
  Basis Set: CC-PVTZ
  Basis Set:
  @DF-RHF Final Energy:  -384.07995631887877
    Total Energy =                       -384.0799563188786578
  Basis Set: CC-PVTZ
  Basis Set:
  @DF-RHF Final Energy:  -384.07998572738182
    Total Energy =                       -384.0799857273818816
  Basis Set: CC-PVTZ
  Basis Set:
  @DF-RHF Final Energy:  -384.07998869751691
    Total Energy =                       -384.0799886975170239
  Basis Set: CC-PVTZ
  Basis Set:
  Basis Set: CC-PVTZ
  Basis Set:
  @DF-RHF Final Energy:  -384.07999109155406
    Total Energy =                       -384.0799910915540067
  Basis Set: CC-PVTZ
  Basis Set:
  Basis Set: CC-PVTZ
  Basis Set:
  @DF-RHF Final Energy:  -384.07999221252254
    Total Energy =                       -384.0799922125221428
  Basis Set: CC-PVTZ
  Basis Set:
  Charge       = 0
  Multiplicity = 1
  Basis Set: CC-PVTZ
  Basis Set:

    Orbital Energies (a.u.)
    -----------------------

    Doubly Occupied:

       1A    -20.596970     2A    -20.535135     3A    -11.365500
       4A    -11.278991     5A    -11.234061     6A    -11.216186
       7A    -11.214868     8A    -11.206040     9A     -1.473124
      10A     -1.366606    11A     -1.087305    12A     -1.024061
      13A     -0.968995    14A     -0.885590    15A     -0.804851
      16A     -0.768735    17A     -0.704298    18A     -0.684299
      19A     -0.676511    20A     -0.632867    21A     -0.607219
      22A     -0.589949    23A     -0.579690    24A     -0.547604
      25A     -0.531025    26A     -0.515935    27A     -0.513930
      28A     -0.477094    29A     -0.470473    30A     -0.462846
      31A     -0.459929    32A     -0.442338

  @DF-RHF Final Energy:  -384.07999233767941

   => Energetics <=

    Nuclear Repulsion Energy =            386.0132202015279290
    One-Electron Energy =               -1288.3403749265494298
    Two-Electron Energy =                 518.2471623873419730
    DFT Exchange-Correlation Energy =       0.0000000000000000
    Empirical Dispersion Energy =           0.0000000000000000
    PCM Polarization Energy =               0.0000000000000000
    EFP Energy =                            0.0000000000000000
    Total Energy =                       -384.0799923376795277
    Molecular point group: c1
  Basis Set: CC-PVTZ
  Basis Set:

  -Total Gradient:
     Atom            X                  Y                   Z
    ------   -----------------  -----------------  -----------------
       1       -0.000018419199     0.000020626459     0.000001234142
       2        0.000000226290    -0.000015184589     0.000005045824
       3       -0.001906589026    -0.002706725202     0.001434686213
       4        0.000005783615    -0.000016872265    -0.000002273037
       5       -0.000341281224    -0.000459626215     0.003367796232
       6        0.001639914715     0.002309384580    -0.001709902840
       7        0.000004867072     0.000004376556     0.000000256931
       8       -0.000003970496     0.000002178891    -0.000002020865
       9        0.000626790628     0.000856548669    -0.003094703603
      10       -0.000000279486     0.000003170416     0.000000648673
      11       -0.000001465626    -0.000001043729    -0.000001120632
      12        0.000001606722     0.000000154777     0.000000909093
      13        0.000000819552    -0.000000316350     0.000002500983
      14       -0.000000636369     0.000000402154    -0.000000170699
      15       -0.000003107776     0.000002211824    -0.000001565554
      16        0.000000742091     0.000000834178    -0.000000953717
      17       -0.000002016351     0.000001730050    -0.000001862302
      18        0.000001250432    -0.000000458970     0.000003344295
      19       -0.000004611640    -0.000000081568     0.000000320290
      20        0.000000376077    -0.000001309667    -0.000002169424

  **** Optimization is complete! (in 9 steps) ****
    Final optimized geometry and variables:
    Molecular point group: c1

    Geometry (in Angstrom), charge = 0, multiplicity = 1:

    O            1.062225515971     1.068096619584     0.218530959447
    C            0.960969479422    -0.106173038769     0.329410976587
    C           -0.333453734752    -0.883426838139     0.380990706036
    O            2.003515578630    -0.916221843313     0.411336380914
    C           -1.589377210405    -0.007088510160     0.366767547154
    H           -0.302977880005    -1.541811728142    -0.481164715821
    H           -0.286046010167    -1.521174696853     1.254442886973
    C           -2.228152598665     0.099778642721    -1.017433560525
    H           -1.327081442460     0.989718076430     0.694586873872
    H           -2.315375437793    -0.405430646276     1.066682711101
    C           -3.454653220955     1.004487442919    -1.035099176387
    H           -1.490803290579     0.478741811691    -1.719187102338
    H           -2.505476451858    -0.891887443044    -1.365637705185
    H           -3.198964141169     2.013190892968    -0.729617955108
    H           -3.887834761351     1.058498189189    -2.027160882079
    H           -4.220836510829     0.638731244740    -0.359199710842
    C            3.288153659214    -0.329547144828     0.356914617342
    H            3.429556748098     0.192766990274    -0.577659377977
    H            3.990436462084    -1.143184916384     0.438406520913
    H            3.425299512161     0.364431482765     1.172821661873

  Mulliken Charges: (a.u.)
   Center  Symbol    Alpha    Beta     Spin     Total
       1     O     4.19812  4.19812  0.00000 -0.39625
       2     C     2.80150  2.80150  0.00000  0.39700
       3     C     3.11160  3.11160  0.00000 -0.22321
       4     O     4.14671  4.14671  0.00000 -0.29342
       5     C     3.09509  3.09509  0.00000 -0.19019
       6     H     0.44008  0.44008  0.00000  0.11983
       7     H     0.43020  0.43020  0.00000  0.13960
       8     C     3.08272  3.08272  0.00000 -0.16544
       9     H     0.44069  0.44069  0.00000  0.11863
      10     H     0.44687  0.44687  0.00000  0.10626
      11     C     3.15135  3.15135  0.00000 -0.30270
      12     H     0.45118  0.45118  0.00000  0.09764
      13     H     0.45651  0.45651  0.00000  0.08699
      14     H     0.45173  0.45173  0.00000  0.09653
      15     H     0.44858  0.44858  0.00000  0.10284
      16     H     0.45636  0.45636  0.00000  0.08729
      17     C     3.03649  3.03649  0.00000 -0.07298
      18     H     0.45449  0.45449  0.00000  0.09101
      19     H     0.44549  0.44549  0.00000  0.10903
      20     H     0.45423  0.45423  0.00000  0.09153

   Total alpha = 32.00000, Total beta = 32.00000, Total charge =  0.00000

*** Psi4 exiting successfully. Buy a developer a beer!
