  ==> Input File <==

--------------------------------------------------------------------------
set {
	reference rhf
	basis 6-31G*
}

set_num_threads( 4 )
memory 2 gb

molecule MOL {
0 1

O	 -2.604751	 1.003080	 -0.297781
C	 -1.921153	 0.064240	 -0.045697
C	 -2.394009	 -1.363964	 -0.014247
O	 -0.632575	 0.154573	 0.251549
H	 -2.227390	 -1.783293	 0.971323
H	 -3.444588	 -1.403541	 -0.260324
H	 -1.824062	 -1.953991	 -0.722615
C	 0.160891	 -1.019931	 0.106212
C	 1.589627	 -0.672828	 0.480843
H	 0.089836	 -1.367806	 -0.916050
H	 -0.238459	 -1.792301	 0.749618
C	 2.246377	 0.346236	 -0.452210
H	 2.163194	 -1.597435	 0.473358
H	 1.604769	 -0.303424	 1.502885
C	 3.691736	 0.652107	 -0.061850
H	 2.219579	 -0.032311	 -1.472055
H	 1.666466	 1.263317	 -0.447249
H	 4.134505	 1.377213	 -0.737283
H	 4.305508	 -0.243868	 -0.089969
H	 3.748266	 1.059562	 0.943567

	symmetry c1
}
set optking {
	frozen_dihedral = ("
		1 2 4 8
	")
}

ee = optimize('scf')
oeprop('DIPOLE', 'QUADRUPOLE', 'MULLIKEN_CHARGES')
f=open( 'psi4out.xyz', 'w' )
f.write( "20  " )
f.write( str(ee) + "\n" )
f.write( MOL.save_string_xyz() )
f.close()
--------------------------------------------------------------------------

    Molecular point group: c1
  Charge       = 0
  Multiplicity = 1
  Basis Set: 6-31G*
  Basis Set:
  @DF-RHF Final Energy:  -383.92154052078104
    Total Energy =                       -383.9215405207811500
    Molecular point group: c1
  Basis Set: 6-31G*
  Basis Set:
  Basis Set: 6-31G*
  Basis Set:
  @DF-RHF Final Energy:  -383.92121215633841
    Total Energy =                       -383.9212121563386972
  Basis Set: 6-31G*
  Basis Set:
  Basis Set: 6-31G*
  Basis Set:
  @DF-RHF Final Energy:  -383.92881165223093
    Total Energy =                       -383.9288116522308201
  Basis Set: 6-31G*
  Basis Set:
  Basis Set: 6-31G*
  Basis Set:
  @DF-RHF Final Energy:  -383.93039817169671
    Total Energy =                       -383.9303981716963108
  Basis Set: 6-31G*
  Basis Set:
  @DF-RHF Final Energy:  -383.92964291416763
    Total Energy =                       -383.9296429141677436
  Basis Set: 6-31G*
  Basis Set:
  @DF-RHF Final Energy:  -383.93057012146187
    Total Energy =                       -383.9305701214617557
  Basis Set: 6-31G*
  Basis Set:
  Basis Set: 6-31G*
  Basis Set:
  @DF-RHF Final Energy:  -383.93084797006424
    Total Energy =                       -383.9308479700641783
  Basis Set: 6-31G*
  Basis Set:
  Basis Set: 6-31G*
  Basis Set:
  @DF-RHF Final Energy:  -383.93084906082021
    Total Energy =                       -383.9308490608206057
  Basis Set: 6-31G*
  Basis Set:
  Charge       = 0
  Multiplicity = 1
  Basis Set: 6-31G*
  Basis Set:

    Orbital Energies (a.u.)
    -----------------------

    Doubly Occupied:

       1A    -20.598742     2A    -20.540021     3A    -11.376075
       4A    -11.297905     5A    -11.242219     6A    -11.230686
       7A    -11.220431     8A    -11.213140     9A     -1.462025
      10A     -1.364879    11A     -1.086531    12A     -1.019506
      13A     -0.999855    14A     -0.889051    15A     -0.813986
      16A     -0.781153    17A     -0.698973    18A     -0.686879
      19A     -0.660375    20A     -0.634379    21A     -0.606121
      22A     -0.594494    23A     -0.579470    24A     -0.561880
      25A     -0.544766    26A     -0.529143    27A     -0.519247
      28A     -0.486825    29A     -0.477300    30A     -0.473507
      31A     -0.442531    32A     -0.432581

  @DF-RHF Final Energy:  -383.93084972954910

   => Energetics <=

    Nuclear Repulsion Energy =            384.8560603479158999
    One-Electron Energy =               -1285.4444706303793282
    Two-Electron Energy =                 516.6575605529146742
    DFT Exchange-Correlation Energy =       0.0000000000000000
    Empirical Dispersion Energy =           0.0000000000000000
    PCM Polarization Energy =               0.0000000000000000
    EFP Energy =                            0.0000000000000000
    Total Energy =                       -383.9308497295487541
    Molecular point group: c1
  Basis Set: 6-31G*
  Basis Set:

  -Total Gradient:
     Atom            X                  Y                   Z
    ------   -----------------  -----------------  -----------------
       1        0.000611392285    -0.000214488264    -0.001898136116
       2       -0.000478199137     0.000470149954     0.001768471169
       3        0.000047928032     0.000007980769     0.000024200607
       4       -0.000507114672    -0.000722141753     0.001707904426
       5       -0.000000512244    -0.000005718110     0.000012811805
       6        0.000010620456     0.000016304708     0.000007898145
       7        0.000040024795    -0.000013102276    -0.000006529856
       8        0.000332431721     0.000457215508    -0.001572121536
       9       -0.000012520118     0.000005754427     0.000008556958
      10       -0.000052595477     0.000025844269    -0.000033027406
      11        0.000022625419    -0.000010315895    -0.000002566196
      12       -0.000000841921    -0.000000845808    -0.000018844050
      13        0.000003067023    -0.000004842040    -0.000009077155
      14       -0.000004595863    -0.000004982303    -0.000000101385
      15       -0.000005673296    -0.000002168077     0.000012022917
      16       -0.000002864678     0.000002916290     0.000003193484
      17       -0.000001832681    -0.000005572769    -0.000006607241
      18       -0.000007847610    -0.000000418897     0.000001051595
      19        0.000002802779    -0.000000287287    -0.000002865234
      20        0.000003705193    -0.000001282447     0.000003765070

  **** Optimization is complete! (in 9 steps) ****
    Final optimized geometry and variables:
    Molecular point group: c1

    Geometry (in Angstrom), charge = 0, multiplicity = 1:

    O           -2.479410771022     1.151102354774    -0.246281208257
    C           -1.918165774959     0.130978392516    -0.033698683009
    C           -2.615418530592    -1.209613094416    -0.074102973126
    O           -0.620930679666     0.146813025900     0.280926269576
    H           -2.504401790825    -1.728340660405     0.871731685554
    H           -3.662508657773    -1.038317878312    -0.271244536874
    H           -2.206014447807    -1.844541404544    -0.851779499903
    C            0.214241614359    -0.989734096106     0.148496320154
    C            1.631848431756    -0.568992869407     0.493590477908
    H            0.166125185758    -1.362495336508    -0.869443209191
    H           -0.116525455567    -1.776400106988     0.816979238215
    C            2.217866961529     0.467980860494    -0.465917862400
    H            2.250726677037    -1.464128037613     0.493393445031
    H            1.637417241986    -0.181258719208     1.508329104425
    C            3.645545976622     0.865654260035    -0.093768067685
    H            2.206912653200     0.066455663650    -1.477496802311
    H            1.582645746192     1.346470660774    -0.473430983945
    H            4.039169999636     1.599880201964    -0.789170154530
    H            4.311790682856     0.007323343485    -0.106417541048
    H            3.684211229290     1.299741952555     0.901149823171

  Mulliken Charges: (a.u.)
   Center  Symbol    Alpha    Beta     Spin     Total
       1     O     4.26439  4.26439  0.00000 -0.52878
       2     C     2.61440  2.61440  0.00000  0.77119
       3     C     3.30826  3.30826  0.00000 -0.61652
       4     O     4.30436  4.30436  0.00000 -0.60872
       5     H     0.40209  0.40209  0.00000  0.19582
       6     H     0.38799  0.38799  0.00000  0.22402
       7     H     0.40362  0.40362  0.00000  0.19277
       8     C     3.00376  3.00376  0.00000 -0.00753
       9     C     3.16128  3.16128  0.00000 -0.32257
      10     H     0.41888  0.41888  0.00000  0.16224
      11     H     0.41725  0.41725  0.00000  0.16549
      12     C     3.15695  3.15695  0.00000 -0.31389
      13     H     0.41965  0.41965  0.00000  0.16070
      14     H     0.41066  0.41066  0.00000  0.17869
      15     C     3.24096  3.24096  0.00000 -0.48193
      16     H     0.42474  0.42474  0.00000  0.15053
      17     H     0.40206  0.40206  0.00000  0.19587
      18     H     0.41619  0.41619  0.00000  0.16761
      19     H     0.42313  0.42313  0.00000  0.15373
      20     H     0.41937  0.41937  0.00000  0.16127

   Total alpha = 32.00000, Total beta = 32.00000, Total charge = -0.00000
