  ==> Input File <==

--------------------------------------------------------------------------
set {
	reference rhf
	basis 6-31G*
}

set_num_threads( 4 )
memory 2 gb

molecule MOL {
0 1

H	 -3.990805	 -0.805508	 -0.749610
C	 -2.925352	 -0.660664	 -0.774407
C	 -2.364678	 0.186464	 -1.718423
C	 -2.117370	 -1.321460	 0.137430
H	 -2.992438	 0.698332	 -2.425017
C	 -0.994638	 0.372198	 -1.749684
H	 -2.553782	 -1.977745	 0.868484
C	 -0.745690	 -1.137062	 0.108012
H	 -0.543424	 1.023902	 -2.473121
C	 -0.180686	 -0.288703	 -0.836879
H	 -0.116649	 -1.646394	 0.811723
C	 1.289014	 -0.054421	 -0.912721
O	 1.970282	 -0.730723	 0.000018
O	 1.808191	 0.664607	 -1.707901
C	 3.377318	 -0.566646	 -0.000065
H	 3.695437	 -0.028981	 -0.881264
H	 3.789299	 -1.563704	 0.000236
H	 3.695516	 -0.028316	 0.880770

	symmetry c1
}
set optking {
	frozen_dihedral = ("
		12 13 15 16
	")
}

ee = optimize('scf')
oeprop('DIPOLE', 'QUADRUPOLE', 'MULLIKEN_CHARGES')
f=open( 'psi4out.xyz', 'w' )
f.write( "18  " )
f.write( str(ee) + "\n" )
f.write( MOL.save_string_xyz() )
f.close()
--------------------------------------------------------------------------

    Molecular point group: c1
  Charge       = 0
  Multiplicity = 1
  Basis Set: 6-31G*
  Basis Set:
  @DF-RHF Final Energy:  -457.34776998628820
    Total Energy =                       -457.3477699862874033
    Molecular point group: c1
  Basis Set: 6-31G*
  Basis Set:
  Basis Set: 6-31G*
  Basis Set:
  @DF-RHF Final Energy:  -457.34800166049246
    Total Energy =                       -457.3480016604920593
  Basis Set: 6-31G*
  Basis Set:
  Basis Set: 6-31G*
  Basis Set:
  @DF-RHF Final Energy:  -457.34858463253846
    Total Energy =                       -457.3485846325386319
  Basis Set: 6-31G*
  Basis Set:
  Basis Set: 6-31G*
  Basis Set:
  @DF-RHF Final Energy:  -457.34857869700215
    Total Energy =                       -457.3485786970023810
  Basis Set: 6-31G*
  Basis Set:
  Basis Set: 6-31G*
  Basis Set:
  @DF-RHF Final Energy:  -457.34855663665309
    Total Energy =                       -457.3485566366534840
  Basis Set: 6-31G*
  Basis Set:
  Charge       = 0
  Multiplicity = 1
  Basis Set: 6-31G*
  Basis Set:

    Orbital Energies (a.u.)
    -----------------------

    Doubly Occupied:

       1A    -20.606704     2A    -20.543666     3A    -11.379411
       4A    -11.281511     5A    -11.245035     6A    -11.244889
       7A    -11.243593     8A    -11.241192     9A    -11.237002
      10A    -11.236239    11A     -1.470174    12A     -1.364464
      13A     -1.164746    14A     -1.047787    15A     -1.024324
      16A     -0.979257    17A     -0.859667    18A     -0.833803
      19A     -0.776957    20A     -0.739898    21A     -0.683825
      22A     -0.675027    23A     -0.671522    24A     -0.631260
      25A     -0.623520    26A     -0.597291    27A     -0.584743
      28A     -0.567407    29A     -0.523922    30A     -0.516253
      31A     -0.503789    32A     -0.498125    33A     -0.455359
      34A     -0.444825    35A     -0.344557    36A     -0.340497

  @DF-RHF Final Energy:  -457.34859453607822

   => Energetics <=

    Nuclear Repulsion Energy =            492.5881564213332808
    One-Electron Energy =               -1599.5090176285152666
    Two-Electron Energy =                 649.5722666711039892
    DFT Exchange-Correlation Energy =       0.0000000000000000
    Empirical Dispersion Energy =           0.0000000000000000
    PCM Polarization Energy =               0.0000000000000000
    EFP Energy =                            0.0000000000000000
    Total Energy =                       -457.3485945360780534
    Molecular point group: c1
  Basis Set: 6-31G*
  Basis Set:

  -Total Gradient:
     Atom            X                  Y                   Z
    ------   -----------------  -----------------  -----------------
       1        0.000000612001     0.000000811145    -0.000001790197
       2       -0.000002842249     0.000006124867    -0.000008387860
       3       -0.000006527546     0.000004025092     0.000002415060
       4        0.000016735110     0.000003632456     0.000001300313
       5        0.000000722499     0.000000793285    -0.000001002914
       6        0.000012487982    -0.000007115673    -0.000001764895
       7        0.000004470506     0.000001136526     0.000001010899
       8        0.000001544608    -0.000001842072    -0.000003073929
       9        0.000000390273     0.000005040918    -0.000005157603
      10        0.000020777270    -0.000056091987    -0.000014120073
      11        0.000006855932    -0.000002798793     0.000002318737
      12        0.000075281886    -0.000318617766    -0.000349940442
      13       -0.000096078973     0.000842754907     0.000711265196
      14       -0.000027775484    -0.000077105658    -0.000026424848
      15        0.000033752955    -0.001087044674    -0.000661288953
      16       -0.000060055758     0.000672450779     0.000361698093
      17        0.000004283116     0.000010450625    -0.000002388260
      18        0.000015365865     0.000003396021    -0.000004668326

  **** Optimization is complete! (in 6 steps) ****
    Final optimized geometry and variables:
    Molecular point group: c1

    Geometry (in Angstrom), charge = 0, multiplicity = 1:

    H           -4.026221049401    -0.481054386398     0.010531630575
    C           -2.962033466331    -0.328786788749    -0.021758373562
    C           -2.413916803476     0.523146353684    -0.968809359209
    C           -2.142945670218    -0.984762649632     0.883563832923
    H           -3.050123031074     1.031492203779    -1.670441514100
    C           -1.045511542626     0.718428927877    -1.009553917102
    H           -2.569528660712    -1.644733339854     1.617092483974
    C           -0.772809815184    -0.790824477688     0.844537932957
    H           -0.604361962610     1.374044775940    -1.735528462632
    C           -0.220144815612     0.062284573407    -0.103444942500
    H           -0.135648993937    -1.296372871552     1.543428541840
    C            1.247942960747     0.308011037326    -0.191250901231
    O            1.932413828604    -0.366580834384     0.721493990938
    O            1.748173654076     1.031246479475    -0.994387402872
    C            3.345326769606    -0.250109370199     0.754444231751
    H            3.707961113142     0.269898349342    -0.115635815848
    H            3.748844966209    -1.251151621057     0.797572933915
    H            3.622080907245     0.291309319666     1.648745547039

  Mulliken Charges: (a.u.)
   Center  Symbol    Alpha    Beta     Spin     Total
       1     H     0.39549  0.39549  0.00000  0.20903
       2     C     3.09000  3.09000  0.00000 -0.18001
       3     C     3.10702  3.10702  0.00000 -0.21404
       4     C     3.10708  3.10708  0.00000 -0.21417
       5     H     0.39549  0.39549  0.00000  0.20902
       6     C     3.08656  3.08656  0.00000 -0.17312
       7     H     0.39641  0.39641  0.00000  0.20719
       8     C     3.08690  3.08690  0.00000 -0.17380
       9     H     0.37594  0.37594  0.00000  0.24813
      10     C     3.07796  3.07796  0.00000 -0.15592
      11     H     0.38063  0.38063  0.00000  0.23875
      12     C     2.57937  2.57937  0.00000  0.84127
      13     O     4.31664  4.31664  0.00000 -0.63329
      14     O     4.29130  4.29130  0.00000 -0.58260
      15     C     3.09832  3.09832  0.00000 -0.19663
      16     H     0.39232  0.39232  0.00000  0.21536
      17     H     0.41065  0.41065  0.00000  0.17870
      18     H     0.41193  0.41193  0.00000  0.17614

   Total alpha = 36.00000, Total beta = 36.00000, Total charge = -0.00000
