                              Psi4 1.0.54 Driver

  ==> Input File <==

--------------------------------------------------------------------------
set {
	reference rhf
	basis cc-pvtz
}

set_num_threads( 4 )
memory 2 gb

molecule MOL {
0 1

O	 0.395927	 1.296676	 -0.000076
C	 0.503051	 0.114301	 -0.000074
C	 -0.701422	 -0.805636	 -0.000109
C	 1.858118	 -0.556123	 0.000212
C	 -1.967366	 -0.169512	 0.551988
H	 -0.852573	 -1.147551	 -1.020738
H	 -0.435108	 -1.694248	 0.566358
H	 -2.247407	 0.701426	 -0.025311
H	 -2.787116	 -0.877374	 0.523771
H	 -1.826259	 0.149884	 1.575857
H	 1.961106	 -1.191101	 -0.872843
H	 2.636688	 0.191085	 -0.000109
H	 1.961070	 -1.190284	 0.873873

	symmetry c1
}
set optking {
	frozen_dihedral = ("
		6 3 2 1
	")
}

ee,wfn = optimize('scf', return_wfn=True)
oeprop( wfn, 'DIPOLE', 'QUADRUPOLE', 'MULLIKEN_CHARGES')
f=open( 'psi4out.xyz', 'w' )
f.write( "13  " )
f.write( str(ee) + "\n" )
f.write( MOL.save_string_xyz() )
f.close()
--------------------------------------------------------------------------

    Molecular point group: c1
  Charge       = 0
  Multiplicity = 1
  Basis Set: CC-PVTZ
  Basis Set:
  @DF-RHF Final Energy:  -231.08276195692298
    Total Energy =                       -231.0827619569228659
    Molecular point group: c1
  Basis Set: CC-PVTZ
  Basis Set:
  Basis Set: CC-PVTZ
  Basis Set:
  @DF-RHF Final Energy:  -231.08158822946592
    Total Energy =                       -231.0815882294659787
  Basis Set: CC-PVTZ
  Basis Set:
  Basis Set: CC-PVTZ
  Basis Set:
  @DF-RHF Final Energy:  -231.08290961608688
    Total Energy =                       -231.0829096160868517
  Basis Set: CC-PVTZ
  Basis Set:
  Basis Set: CC-PVTZ
  Basis Set:
  @DF-RHF Final Energy:  -231.08313083264028
    Total Energy =                       -231.0831308326406202
  Basis Set: CC-PVTZ
  Basis Set:
  @DF-RHF Final Energy:  -231.08315139728691
    Total Energy =                       -231.0831513972868834
  Basis Set: CC-PVTZ
  Basis Set:
  @DF-RHF Final Energy:  -231.08315808742310
    Total Energy =                       -231.0831580874232714
  Basis Set: CC-PVTZ
  Basis Set:
  Basis Set: CC-PVTZ
  Basis Set:
  @DF-RHF Final Energy:  -231.08316206216668
    Total Energy =                       -231.0831620621665934
  Basis Set: CC-PVTZ
  Basis Set:
  Basis Set: CC-PVTZ
  Basis Set:
  @DF-RHF Final Energy:  -231.08316619835102
    Total Energy =                       -231.0831661983510799
  Basis Set: CC-PVTZ
  Basis Set:
  Charge       = 0
  Multiplicity = 1
  Basis Set: CC-PVTZ
  Basis Set:

    Orbital Energies (a.u.)
    -----------------------

    Doubly Occupied:

       1A    -20.539188     2A    -11.321423     3A    -11.233560
       4A    -11.227810     5A    -11.213569     6A     -1.399682
       7A     -1.062825     8A     -1.001506     9A     -0.879268
      10A     -0.731309    11A     -0.660603    12A     -0.642809
      13A     -0.622452    14A     -0.585351    15A     -0.572016
      16A     -0.524130    17A     -0.516848    18A     -0.507580
      19A     -0.487169    20A     -0.404363

  @DF-RHF Final Energy:  -231.08316653096972

   => Energetics <=

    Nuclear Repulsion Energy =            177.2668544577194893
    One-Electron Energy =                -664.4331204614770741
    Two-Electron Energy =                 256.0830994727879215
    DFT Exchange-Correlation Energy =       0.0000000000000000
    Empirical Dispersion Energy =           0.0000000000000000
    PCM Polarization Energy =               0.0000000000000000
    EFP Energy =                            0.0000000000000000
    Total Energy =                       -231.0831665309696632
    Molecular point group: c1
  Basis Set: CC-PVTZ
  Basis Set:

  -Total Gradient:
     Atom            X                  Y                   Z
    ------   -----------------  -----------------  -----------------
       1        0.000013824549     0.000047979735    -0.001290123046
       2       -0.000135011942     0.000131383006     0.001786346292
       3        0.000838116586    -0.001179315113    -0.000282847308
       4       -0.000007311616     0.000035491845    -0.000013793199
       5       -0.000003335954    -0.000009046647    -0.000010294604
       6       -0.000710289461     0.000998161398    -0.000204431954
       7        0.000002053024    -0.000003968719    -0.000000559919
       8       -0.000001574712     0.000000738131     0.000002139645
       9       -0.000006354045     0.000001736554     0.000003085842
      10        0.000001247111    -0.000000078267     0.000000049349
      11        0.000002593334    -0.000001807717     0.000011175096
      12        0.000004887731    -0.000016920748     0.000004739958
      13        0.000001155395    -0.000004353460    -0.000005486152

  **** Optimization is complete! (in 9 steps) ****
    Final optimized geometry and variables:
    Molecular point group: c1

    Geometry (in Angstrom), charge = 0, multiplicity = 1:

    O            0.423243617446     1.298840870866    -0.060723495425
    C            0.497584021375     0.114176531302    -0.086630339228
    C           -0.735471804443    -0.767739028752    -0.123693893884
    C            1.831274059900    -0.594456474224    -0.118104204961
    C           -1.998876666438    -0.079915172833     0.373862866447
    H           -0.859621825164    -1.066583830351    -1.162661159180
    H           -0.539041628966    -1.679592730637     0.430359855675
    H           -2.202230287149     0.813335901209    -0.199250282447
    H           -2.849000494115    -0.746065566663     0.289273366189
    H           -1.899538082111     0.211487814693     1.412281202421
    H            1.848530797914    -1.344307339299    -0.901049300659
    H            2.626172531287     0.119260345444    -0.270675951992
    H            1.985650241030    -1.109597398769     0.824468253364

  Mulliken Charges: (a.u.)
   Center  Symbol    Alpha    Beta     Spin     Total
       1     O     4.17143  4.17143  0.00000 -0.34287
       2     C     2.86117  2.86117  0.00000  0.27767
       3     C     3.10104  3.10104  0.00000 -0.20207
       4     C     3.15075  3.15075  0.00000 -0.30150
       5     C     3.14236  3.14236  0.00000 -0.28472
       6     H     0.44567  0.44567  0.00000  0.10866
       7     H     0.44648  0.44648  0.00000  0.10705
       8     H     0.44285  0.44285  0.00000  0.11430
       9     H     0.45041  0.45041  0.00000  0.09918
      10     H     0.45203  0.45203  0.00000  0.09594
      11     H     0.45085  0.45085  0.00000  0.09830
      12     H     0.43600  0.43600  0.00000  0.12800
      13     H     0.44897  0.44897  0.00000  0.10206

   Total alpha = 20.00000, Total beta = 20.00000, Total charge = -0.00000

*** Psi4 exiting successfully. Buy a developer a beer!
