                              Psi4 1.0.54 Driver

  ==> Input File <==

--------------------------------------------------------------------------
set {
	reference rhf
	basis cc-pvtz
}

set_num_threads( 4 )
memory 2 gb

molecule MOL {
0 1

O	 0.074770	 1.259872	 0.000487
C	 0.029490	 0.077183	 0.000078
C	 -1.232113	 -0.748027	 0.000015
O	 1.106773	 -0.690081	 -0.000204
C	 -2.501422	 0.088592	 -0.000052
H	 -1.188777	 -1.400384	 -0.865133
H	 -1.188857	 -1.400312	 0.865225
H	 -2.548170	 0.725504	 -0.873205
H	 -3.371613	 -0.556398	 -0.000040
H	 -2.548215	 0.725571	 0.873047
C	 1.077396	 -1.850166	 0.806631
H	 0.936358	 -1.588892	 1.844936
H	 2.031951	 -2.331926	 0.670400
H	 0.279638	 -2.509200	 0.497597

	symmetry c1
}
set optking {
	frozen_dihedral = ("
		11 4 2 3
	")
}

ee,wfn = optimize('scf', return_wfn=True)
oeprop( wfn, 'DIPOLE', 'QUADRUPOLE', 'MULLIKEN_CHARGES')
f=open( 'psi4out.xyz', 'w' )
f.write( "14  " )
f.write( str(ee) + "\n" )
f.write( MOL.save_string_xyz() )
f.close()
--------------------------------------------------------------------------

    Molecular point group: c1
  Charge       = 0
  Multiplicity = 1
  Basis Set: CC-PVTZ
  Basis Set:
  @DF-RHF Final Energy:  -305.96321622983510
    Total Energy =                       -305.9632162298352114
    Molecular point group: c1
  Basis Set: CC-PVTZ
  Basis Set:
  Basis Set: CC-PVTZ
  Basis Set:
  @DF-RHF Final Energy:  -305.95735167512493
    Total Energy =                       -305.9573516751251532
  Basis Set: CC-PVTZ
  Basis Set:
  Basis Set: CC-PVTZ
  Basis Set:
  @DF-RHF Final Energy:  -305.96957066600839
    Total Energy =                       -305.9695706660083943
  Basis Set: CC-PVTZ
  Basis Set:
  Basis Set: CC-PVTZ
  Basis Set:
  @DF-RHF Final Energy:  -305.96897673726687
    Total Energy =                       -305.9689767372670417
  Basis Set: CC-PVTZ
  Basis Set:
  @DF-RHF Final Energy:  -305.97071225913919
    Total Energy =                       -305.9707122591391908
  Basis Set: CC-PVTZ
  Basis Set:
  @DF-RHF Final Energy:  -305.97097417909652
    Total Energy =                       -305.9709741790963449
  Basis Set: CC-PVTZ
  Basis Set:
  Basis Set: CC-PVTZ
  Basis Set:
  @DF-RHF Final Energy:  -305.97099761493109
    Total Energy =                       -305.9709976149309227
  Basis Set: CC-PVTZ
  Basis Set:
  Basis Set: CC-PVTZ
  Basis Set:
  @DF-RHF Final Energy:  -305.97099930917830
    Total Energy =                       -305.9709993091782962
  Basis Set: CC-PVTZ
  Basis Set:
  Charge       = 0
  Multiplicity = 1
  Basis Set: CC-PVTZ
  Basis Set:

    Orbital Energies (a.u.)
    -----------------------

    Doubly Occupied:

       1A    -20.590137     2A    -20.535212     3A    -11.367189
       4A    -11.293474     5A    -11.245688     6A    -11.218984
       7A     -1.464994     8A     -1.370262     9A     -1.063815
      10A     -0.984119    11A     -0.899253    12A     -0.769047
      13A     -0.705756    14A     -0.686692    15A     -0.676390
      16A     -0.628071    17A     -0.610280    18A     -0.560866
      19A     -0.550311    20A     -0.526475    21A     -0.513524
      22A     -0.498178    23A     -0.456506    24A     -0.437551

  @DF-RHF Final Energy:  -305.97099952752887

   => Energetics <=

    Nuclear Repulsion Energy =            247.7878344028802076
    One-Electron Energy =                -908.2121194672729416
    Two-Electron Energy =                 354.4532855368638025
    DFT Exchange-Correlation Energy =       0.0000000000000000
    Empirical Dispersion Energy =           0.0000000000000000
    PCM Polarization Energy =               0.0000000000000000
    EFP Energy =                            0.0000000000000000
    Total Energy =                       -305.9709995275289316
    Molecular point group: c1
  Basis Set: CC-PVTZ
  Basis Set:

  -Total Gradient:
     Atom            X                  Y                   Z
    ------   -----------------  -----------------  -----------------
       1       -0.000012409320     0.000001261059     0.000020285927
       2        0.000707796209     0.000503356065     0.005534257500
       3       -0.000054194254     0.000194358005    -0.002814051505
       4       -0.001811058523    -0.002191069470    -0.005295672462
       5        0.000011684192     0.000010139520     0.000012448956
       6       -0.000001688282     0.000009400821     0.000008907809
       7        0.000006591854    -0.000003278384     0.000027284423
       8        0.000000462194     0.000006761694    -0.000013452218
       9       -0.000000707641    -0.000004799076    -0.000000686126
      10       -0.000001734857     0.000001500565     0.000002635532
      11        0.001156976927     0.001466294989     0.002554810503
      12       -0.000020987033     0.000014629145    -0.000001285923
      13        0.000024678714    -0.000001137831    -0.000029460925
      14       -0.000005410181    -0.000007417100    -0.000006021491

  **** Optimization is complete! (in 9 steps) ****
    Final optimized geometry and variables:
    Molecular point group: c1

    Geometry (in Angstrom), charge = 0, multiplicity = 1:

    O            0.299671271006     1.538761651798    -0.056862396120
    C            0.221464097464     0.364111892697    -0.064947247332
    C           -1.091686839770    -0.387398223605    -0.103366020321
    O            1.336009783929    -0.371052151676    -0.144528121648
    C           -2.298238519677     0.533751035192    -0.197251795304
    H           -1.050621342551    -1.064822123833    -0.950008600002
    H           -1.164233895513    -1.013558165622     0.779596295701
    H           -2.251789096734     1.144266524572    -1.088477803251
    H           -3.209481590246    -0.051208019048    -0.227555779306
    H           -2.344964292586     1.199027120773     0.653795422032
    C            1.450610531449    -1.601054748650     0.527758518221
    H            1.233277623240    -1.491272041977     1.582998348000
    H            2.476615782822    -1.910481134795     0.412966670049
    H            0.805905837881    -2.358880490494     0.101689423810

  Mulliken Charges: (a.u.)
   Center  Symbol    Alpha    Beta     Spin     Total
       1     O     4.17334  4.17334  0.00000 -0.34667
       2     C     2.80534  2.80534  0.00000  0.38933
       3     C     3.11951  3.11951  0.00000 -0.23903
       4     O     4.13825  4.13825  0.00000 -0.27650
       5     C     3.13916  3.13916  0.00000 -0.27833
       6     H     0.43748  0.43748  0.00000  0.12505
       7     H     0.44466  0.44466  0.00000  0.11069
       8     H     0.44548  0.44548  0.00000  0.10904
       9     H     0.45130  0.45130  0.00000  0.09741
      10     H     0.44623  0.44623  0.00000  0.10755
      11     C     3.04599  3.04599  0.00000 -0.09198
      12     H     0.45787  0.45787  0.00000  0.08426
      13     H     0.43489  0.43489  0.00000  0.13022
      14     H     0.46051  0.46051  0.00000  0.07897

   Total alpha = 24.00000, Total beta = 24.00000, Total charge = -0.00000

*** Psi4 exiting successfully. Buy a developer a beer!
