  ==> Input File <==

--------------------------------------------------------------------------
set {
	reference rhf
	basis 6-31G*
}

set_num_threads( 4 )
memory 2 gb

molecule MOL {
0 1

H	 3.337359	 1.200689	 -2.002882
N	 2.565097	 0.562704	 -1.991375
C	 1.604255	 0.934092	 -0.962600
H	 2.943798	 -0.346755	 -1.806170
C	 0.384567	 0.019944	 -1.012092
H	 1.293981	 1.956600	 -1.155126
H	 2.027301	 0.919806	 0.044985
C	 -0.679275	 0.379305	 0.025956
H	 -0.036742	 0.064075	 -2.012285
H	 0.705283	 -1.009933	 -0.857722
C	 -1.903357	 -0.536963	 -0.023547
H	 -0.998074	 1.409426	 -0.125921
H	 -0.243563	 0.339668	 1.023167
C	 -3.225172	 0.228290	 0.028445
H	 -1.867824	 -1.134999	 -0.931459
H	 -1.860449	 -1.239604	 0.805977
H	 -3.313397	 0.915643	 -0.808262
H	 -4.073500	 -0.448134	 -0.008893
H	 -3.306061	 0.809945	 0.942516

	symmetry c1
}
set optking {
	frozen_dihedral = ("
		12 8 11 15
	")
}

ee = optimize('scf')
oeprop('DIPOLE', 'QUADRUPOLE', 'MULLIKEN_CHARGES')
f=open( 'psi4out.xyz', 'w' )
f.write( "19  " )
f.write( str(ee) + "\n" )
f.write( MOL.save_string_xyz() )
f.close()
--------------------------------------------------------------------------

    Molecular point group: c1
  Charge       = 0
  Multiplicity = 1
  Basis Set: 6-31G*
  Basis Set:
  @DF-RHF Final Energy:  -251.34663945672585
    Total Energy =                       -251.3466394567257680
    Molecular point group: c1
  Basis Set: 6-31G*
  Basis Set:
  Basis Set: 6-31G*
  Basis Set:
  @DF-RHF Final Energy:  -251.34690126532823
    Total Energy =                       -251.3469012653282562
  Basis Set: 6-31G*
  Basis Set:
  Basis Set: 6-31G*
  Basis Set:
  @DF-RHF Final Energy:  -251.34697460456502
    Total Energy =                       -251.3469746045649913
  Basis Set: 6-31G*
  Basis Set:
  Basis Set: 6-31G*
  Basis Set:
  @DF-RHF Final Energy:  -251.34697352497858
    Total Energy =                       -251.3469735249784662
  Basis Set: 6-31G*
  Basis Set:
  Basis Set: 6-31G*
  Basis Set:
  @DF-RHF Final Energy:  -251.34697639503199
    Total Energy =                       -251.3469763950320157
  Basis Set: 6-31G*
  Basis Set:
  Charge       = 0
  Multiplicity = 1
  Basis Set: 6-31G*
  Basis Set:

    Orbital Energies (a.u.)
    -----------------------

    Doubly Occupied:

       1A    -15.532520     2A    -11.239599     3A    -11.213588
       4A    -11.212372     5A    -11.209943     6A    -11.207626
       7A     -1.176595     8A     -1.070427     9A     -0.998216
      10A     -0.899789    11A     -0.814592    12A     -0.789290
      13A     -0.664678    14A     -0.635661    15A     -0.615021
      16A     -0.590204    17A     -0.574204    18A     -0.537605
      19A     -0.533075    20A     -0.496408    21A     -0.487651
      22A     -0.464896    23A     -0.453613    24A     -0.448456
      25A     -0.380974

  @DF-RHF Final Energy:  -251.34697640569274

   => Energetics <=

    Nuclear Repulsion Energy =            245.7549347767665324
    One-Electron Energy =                -825.7098165629978439
    Two-Electron Energy =                 328.6079053805388526
    DFT Exchange-Correlation Energy =       0.0000000000000000
    Empirical Dispersion Energy =           0.0000000000000000
    PCM Polarization Energy =               0.0000000000000000
    EFP Energy =                            0.0000000000000000
    Total Energy =                       -251.3469764056924873
    Molecular point group: c1
  Basis Set: 6-31G*
  Basis Set:

  -Total Gradient:
     Atom            X                  Y                   Z
    ------   -----------------  -----------------  -----------------
       1       -0.000002635094     0.000000354274     0.000002267981
       2        0.000000043672    -0.000002667408    -0.000000488925
       3        0.000005375674    -0.000001084431     0.000003768133
       4        0.000000545603    -0.000000428224    -0.000000467539
       5       -0.000003928017     0.000007698668     0.000003178202
       6       -0.000003091052    -0.000003524786    -0.000000952008
       7        0.000000605417     0.000000247446     0.000000956504
       8        0.000859945232    -0.001019311937    -0.003672637567
       9        0.000000359317     0.000005309822     0.000003653553
      10       -0.000004357950    -0.000000198945    -0.000001535644
      11       -0.002207016201     0.002968026194    -0.001188445984
      12       -0.000370267424     0.000377061568     0.003247563945
      13        0.000001993971    -0.000000662892     0.000002361980
      14        0.000005193180    -0.000005442579    -0.000007645131
      15        0.001714231924    -0.002322157882     0.001598722643
      16       -0.000000978923    -0.000002360442     0.000007969526
      17        0.000004892215     0.000003727140     0.000006790516
      18       -0.000002061959     0.000003490788    -0.000007251499
      19        0.000001150417    -0.000008076373     0.000002191314

  **** Optimization is complete! (in 6 steps) ****
    Final optimized geometry and variables:
    Molecular point group: c1

    Geometry (in Angstrom), charge = 0, multiplicity = 1:

    H            3.546337741107     0.908034112471    -1.302912050953
    N            2.766053418401     0.279807456476    -1.305473525531
    C            1.795613059225     0.658303729045    -0.288248944874
    H            3.130697696742    -0.635247097528    -1.119524081286
    C            0.565291667763    -0.239221480480    -0.359938224426
    H            1.501102470949     1.685856205967    -0.479282997444
    H            2.204160731922     0.633082481493     0.725056317155
    C           -0.511207069285     0.129843422658     0.660623030681
    H            0.159164058404    -0.187782748391    -1.366030455458
    H            0.868744207964    -1.274144352938    -0.202827912210
    C           -1.740900217236    -0.802195458037     0.629112203675
    H           -0.827216712199     1.159992629717     0.507841269321
    H           -0.077142568536     0.114878717164     1.658380771658
    C           -3.073715215037    -0.062307506407     0.726377102218
    H           -1.719744595241    -1.408591963690    -0.273001566626
    H           -1.671883824483    -1.514185339007     1.447890123408
    H           -3.205143077953     0.616995865956    -0.111108289267
    H           -3.910312228368    -0.754373677723     0.727858245416
    H           -3.128510953462     0.525267125387     1.638716437212

  Mulliken Charges: (a.u.)
   Center  Symbol    Alpha    Beta     Spin     Total
       1     H     0.33248  0.33248  0.00000  0.33503
       2     N     3.92184  3.92184  0.00000 -0.84367
       3     C     3.06082  3.06082  0.00000 -0.12164
       4     H     0.33537  0.33537  0.00000  0.32927
       5     C     3.15310  3.15310  0.00000 -0.30619
       6     H     0.42074  0.42074  0.00000  0.15852
       7     H     0.43472  0.43472  0.00000  0.13056
       8     C     3.15871  3.15871  0.00000 -0.31741
       9     H     0.41277  0.41277  0.00000  0.17446
      10     H     0.42723  0.42723  0.00000  0.14553
      11     C     3.15382  3.15382  0.00000 -0.30765
      12     H     0.42120  0.42120  0.00000  0.15760
      13     H     0.42278  0.42278  0.00000  0.15444
      14     C     3.23975  3.23975  0.00000 -0.47949
      15     H     0.41959  0.41959  0.00000  0.16082
      16     H     0.42161  0.42161  0.00000  0.15677
      17     H     0.42112  0.42112  0.00000  0.15776
      18     H     0.42044  0.42044  0.00000  0.15913
      19     H     0.42191  0.42191  0.00000  0.15618

   Total alpha = 25.00000, Total beta = 25.00000, Total charge = -0.00000
