  ==> Input File <==

--------------------------------------------------------------------------
set {
	reference rhf
	basis 6-31G*
}

set_num_threads( 4 )
memory 2 gb

molecule MOL {
0 1

O	 2.862325	 1.357334	 0.000267
C	 2.843464	 0.164689	 -0.000222
C	 1.546494	 -0.624492	 -0.000609
C	 4.124123	 -0.644674	 -0.000428
C	 0.291004	 0.242674	 0.000989
H	 1.557904	 -1.283758	 -0.867573
H	 1.558622	 -1.285963	 0.864672
C	 0.541614	 1.638195	 -0.573012
H	 -0.084578	 0.322968	 1.016184
H	 -0.486851	 -0.256470	 -0.568173
C	 -0.710219	 2.517196	 -0.575184
H	 1.325104	 2.131727	 0.000239
H	 0.919621	 1.550266	 -1.590581
C	 -0.467586	 3.914802	 -1.147755
H	 -1.088560	 2.606369	 0.441637
H	 -1.493839	 2.025225	 -1.148683
C	 -1.722599	 4.786941	 -1.146355
H	 0.314708	 4.408024	 -0.574544
H	 -0.090797	 3.827003	 -2.164701
H	 -2.104930	 4.921978	 -0.138517
H	 -1.518788	 5.770984	 -1.557233
H	 -2.512929	 4.337433	 -1.740883
H	 4.165367	 -1.288615	 -0.874074
H	 4.976217	 0.020734	 -0.001915
H	 4.166763	 -1.286207	 0.874930

	symmetry c1
}
set optking {
	frozen_dihedral = ("
		9 5 3 6
	")
}

ee = optimize('scf')
oeprop('DIPOLE', 'QUADRUPOLE', 'MULLIKEN_CHARGES')
f=open( 'psi4out.xyz', 'w' )
f.write( "25  " )
f.write( str(ee) + "\n" )
f.write( MOL.save_string_xyz() )
f.close()
--------------------------------------------------------------------------

    Molecular point group: c1
  Charge       = 0
  Multiplicity = 1
  Basis Set: 6-31G*
  Basis Set:
  @DF-RHF Final Energy:  -387.10098322477103
    Total Energy =                       -387.1009832247707436
    Molecular point group: c1
  Basis Set: 6-31G*
  Basis Set:
  Basis Set: 6-31G*
  Basis Set:
  @DF-RHF Final Energy:  -387.12073901441227
    Total Energy =                       -387.1207390144114697
  Basis Set: 6-31G*
  Basis Set:
  Basis Set: 6-31G*
  Basis Set:
  @DF-RHF Final Energy:  -387.12534612511433
    Total Energy =                       -387.1253461251136514
  Basis Set: 6-31G*
  Basis Set:
  Basis Set: 6-31G*
  Basis Set:
  @DF-RHF Final Energy:  -387.12669905087540
    Total Energy =                       -387.1266990508760273
  Basis Set: 6-31G*
  Basis Set:
  @DF-RHF Final Energy:  -387.12751282572685
    Total Energy =                       -387.1275128257270808
  @DF-RHF Final Energy:  -387.12828898257493
    Total Energy =                       -387.1282889825743041
  @DF-RHF Final Energy:  -387.12881830883356
    Total Energy =                       -387.1288183088342976
  @DF-RHF Final Energy:  -387.12916586073817
    Total Energy =                       -387.1291658607384534
  @DF-RHF Final Energy:  -387.12928818439048
    Total Energy =                       -387.1292881843903615
  Basis Set: 6-31G*
  Basis Set:
  @DF-RHF Final Energy:  -387.12929505021089
    Total Energy =                       -387.1292950502106578
  Basis Set: 6-31G*
  Basis Set:
  Basis Set: 6-31G*
  Basis Set:
  @DF-RHF Final Energy:  -387.12929816219128
    Total Energy =                       -387.1292981621913896
  Basis Set: 6-31G*
  Basis Set:
  Basis Set: 6-31G*
  Basis Set:
  @DF-RHF Final Energy:  -387.12930050363229
    Total Energy =                       -387.1293005036321802
  Basis Set: 6-31G*
  Basis Set:
  Charge       = 0
  Multiplicity = 1
  Basis Set: 6-31G*
  Basis Set:

    Orbital Energies (a.u.)
    -----------------------

    Doubly Occupied:

       1A    -20.548655     2A    -11.327362     3A    -11.232515
       4A    -11.228669     5A    -11.222629     6A    -11.211781
       7A    -11.210601     8A    -11.209196     9A    -11.205918
      10A     -1.395075    11A     -1.089497    12A     -1.053959
      13A     -1.013263    14A     -0.967971    15A     -0.890461
      16A     -0.817666    17A     -0.788603    18A     -0.725118
      19A     -0.663062    20A     -0.640649    21A     -0.630546
      22A     -0.620447    23A     -0.596838    24A     -0.584436
      25A     -0.565297    26A     -0.561360    27A     -0.536305
      28A     -0.530028    29A     -0.512217    30A     -0.495169
      31A     -0.482591    32A     -0.469858    33A     -0.461388
      34A     -0.458072    35A     -0.440649    36A     -0.397934

  @DF-RHF Final Energy:  -387.12930051805881

   => Energetics <=

    Nuclear Repulsion Energy =            448.9116743005062062
    One-Electron Energy =               -1414.5103816424852994
    Two-Electron Energy =                 578.4694068239202807
    DFT Exchange-Correlation Energy =       0.0000000000000000
    Empirical Dispersion Energy =           0.0000000000000000
    PCM Polarization Energy =               0.0000000000000000
    EFP Energy =                            0.0000000000000000
    Total Energy =                       -387.1293005180588125
    Molecular point group: c1
  Basis Set: 6-31G*
  Basis Set:

  -Total Gradient:
     Atom            X                  Y                   Z
    ------   -----------------  -----------------  -----------------
       1        0.000002388807    -0.000022782552     0.000001982513
       2       -0.000009262728     0.000020110266    -0.000008273777
       3        0.003751357142     0.004686533784    -0.005063516086
       4        0.000003555949     0.000018195942    -0.000008778291
       5        0.004641923484     0.005676300232     0.002228492359
       6       -0.003868770198    -0.004810292995     0.003841962822
       7        0.000005629152    -0.000008477037     0.000016928359
       8        0.000015425978     0.000005579095     0.000002787300
       9       -0.004517258011    -0.005552726982    -0.001027060620
      10       -0.000004173080    -0.000001268706     0.000002257104
      11       -0.000002603287    -0.000006052296    -0.000010592815
      12       -0.000006429606     0.000001065606    -0.000003874228
      13       -0.000007682629    -0.000005901583    -0.000009123921
      14        0.000002676169     0.000009570533     0.000021670707
      15        0.000006361012    -0.000000599630     0.000002008908
      16       -0.000012790778     0.000004622395     0.000002377902
      17       -0.000002485795    -0.000006290970    -0.000015422279
      18       -0.000002199021     0.000004578889     0.000005997571
      19        0.000004053764     0.000001908484     0.000004053501
      20        0.000006637511     0.000003276144    -0.000000177084
      21       -0.000001061008    -0.000003374813    -0.000006225816
      22       -0.000005397460    -0.000001797171     0.000003789840
      23       -0.000000266408    -0.000002531172     0.000005447906
      24        0.000005236941    -0.000005292339     0.000006369518
      25       -0.000004865904    -0.000004353124     0.000006918605

  **** Optimization is complete! (in 13 steps) ****
    Final optimized geometry and variables:
    Molecular point group: c1

    Geometry (in Angstrom), charge = 0, multiplicity = 1:

    O            2.078490047685    -0.489436910708     1.289649410885
    C            1.883740643026    -1.449057061429     0.607520014056
    C            0.497756222398    -2.039208301702     0.429548137173
    C            3.021113519880    -2.176610752033    -0.075289492941
    C           -0.700425455388    -1.068619948556     0.439965296537
    H            0.454078557690    -2.694483356934    -0.435178787942
    H            0.388118004067    -2.722598214645     1.273011196748
    C           -0.491110837409     0.289145567896    -0.233005966352
    H           -1.071310085956    -0.953304028058     1.453321202413
    H           -1.506708047171    -1.582143479375    -0.080617723018
    C           -1.790466383492     1.090144221206    -0.337651627156
    H            0.245658910795     0.862166761724     0.315048203332
    H           -0.086401869725     0.134436116200    -1.233400772937
    C           -1.601833075994     2.459248938739    -0.993477254949
    H           -2.209065913219     1.225871665909     0.658366699720
    H           -2.527036526876     0.520505264867    -0.902504152942
    C           -2.901400188826     3.257001804091    -1.095561612099
    H           -0.870529912945     3.031057360884    -0.426854795866
    H           -1.181089047557     2.327007649409    -1.988185756125
    H           -3.328701247986     3.437239756032    -0.113129994003
    H           -2.735552643776     4.221522919751    -1.565590146571
    H           -3.643247440279     2.725198311263    -1.684954348051
    H            2.925130781955    -2.075923739941    -1.153025454586
    H            3.967433633863    -1.761384276273     0.242200594230
    H            2.989543172559    -3.238251221140     0.152046987293

  Mulliken Charges: (a.u.)
   Center  Symbol    Alpha    Beta     Spin     Total
       1     O     4.26513  4.26513  0.00000 -0.53027
       2     C     2.73116  2.73116  0.00000  0.53768
       3     C     3.21597  3.21597  0.00000 -0.43195
       4     C     3.28864  3.28864  0.00000 -0.57728
       5     C     3.14628  3.14628  0.00000 -0.29256
       6     H     0.41201  0.41201  0.00000  0.17599
       7     H     0.40190  0.40190  0.00000  0.19621
       8     C     3.16166  3.16166  0.00000 -0.32331
       9     H     0.41362  0.41362  0.00000  0.17276
      10     H     0.42127  0.42127  0.00000  0.15745
      11     C     3.15213  3.15213  0.00000 -0.30426
      12     H     0.39889  0.39889  0.00000  0.20222
      13     H     0.42932  0.42932  0.00000  0.14136
      14     C     3.15140  3.15140  0.00000 -0.30280
      15     H     0.42295  0.42295  0.00000  0.15409
      16     H     0.42632  0.42632  0.00000  0.14736
      17     C     3.23926  3.23926  0.00000 -0.47851
      18     H     0.42058  0.42058  0.00000  0.15884
      19     H     0.42416  0.42416  0.00000  0.15169
      20     H     0.42164  0.42164  0.00000  0.15672
      21     H     0.41959  0.41959  0.00000  0.16081
      22     H     0.42277  0.42277  0.00000  0.15445
      23     H     0.40681  0.40681  0.00000  0.18637
      24     H     0.39710  0.39710  0.00000  0.20581
      25     H     0.40944  0.40944  0.00000  0.18112

   Total alpha = 36.00000, Total beta = 36.00000, Total charge = -0.00000
