  ==> Input File <==

--------------------------------------------------------------------------
set {
	reference rhf
	basis 6-31G*
}

set_num_threads( 4 )
memory 2 gb

molecule MOL {
0 1

O	 0.749854	 1.307668	 -0.000040
C	 0.576249	 0.131685	 -0.000108
C	 -0.766779	 -0.556801	 -0.000461
O	 1.568443	 -0.749345	 -0.000005
C	 -1.945214	 0.412366	 0.000161
H	 -0.796911	 -1.211249	 -0.867467
H	 -0.796854	 -1.212390	 0.865687
C	 -3.287791	 -0.317055	 0.000105
H	 -1.876087	 1.060580	 -0.866812
H	 -1.875822	 1.059691	 0.867761
H	 -3.394745	 -0.949193	 -0.877058
H	 -4.111778	 0.388953	 0.000015
H	 -3.394954	 -0.949187	 0.877259
C	 1.510335	 -1.782589	 0.966555
H	 1.514558	 -1.369527	 1.965006
H	 2.390877	 -2.385242	 0.807432
H	 0.619183	 -2.378732	 0.832494

	symmetry c1
}
set optking {
	frozen_dihedral = ("
		14 4 2 1
	")
}

ee = optimize('scf')
oeprop('DIPOLE', 'QUADRUPOLE', 'MULLIKEN_CHARGES')
f=open( 'psi4out.xyz', 'w' )
f.write( "17  " )
f.write( str(ee) + "\n" )
f.write( MOL.save_string_xyz() )
f.close()
--------------------------------------------------------------------------

    Molecular point group: c1
  Charge       = 0
  Multiplicity = 1
  Basis Set: 6-31G*
  Basis Set:
  @DF-RHF Final Energy:  -344.88079364873829
    Total Energy =                       -344.8807936487385746
    Molecular point group: c1
  Basis Set: 6-31G*
  Basis Set:
  Basis Set: 6-31G*
  Basis Set:
  @DF-RHF Final Energy:  -344.88119000885365
    Total Energy =                       -344.8811900088541051
  Basis Set: 6-31G*
  Basis Set:
  Basis Set: 6-31G*
  Basis Set:
  @DF-RHF Final Energy:  -344.88579366169853
    Total Energy =                       -344.8857936616989264
  Basis Set: 6-31G*
  Basis Set:
  Basis Set: 6-31G*
  Basis Set:
  @DF-RHF Final Energy:  -344.88638333848041
    Total Energy =                       -344.8863833384803002
  Basis Set: 6-31G*
  Basis Set:
  @DF-RHF Final Energy:  -344.88727105013180
    Total Energy =                       -344.8872710501315737
  Basis Set: 6-31G*
  Basis Set:
  @DF-RHF Final Energy:  -344.88748982565471
    Total Energy =                       -344.8874898256548249
  Basis Set: 6-31G*
  Basis Set:
  Basis Set: 6-31G*
  Basis Set:
  @DF-RHF Final Energy:  -344.88751485049613
    Total Energy =                       -344.8875148504961317
  Basis Set: 6-31G*
  Basis Set:
  Basis Set: 6-31G*
  Basis Set:
  @DF-RHF Final Energy:  -344.88752518878835
    Total Energy =                       -344.8875251887884588
  Basis Set: 6-31G*
  Basis Set:
  Charge       = 0
  Multiplicity = 1
  Basis Set: 6-31G*
  Basis Set:

    Orbital Energies (a.u.)
    -----------------------

    Doubly Occupied:

       1A    -20.592573     2A    -20.550471     3A    -11.374933
       4A    -11.295499     5A    -11.243773     6A    -11.226379
       7A    -11.218396     8A     -1.460341     9A     -1.367795
      10A     -1.082192    11A     -0.988525    12A     -0.963948
      13A     -0.837705    14A     -0.766111    15A     -0.701297
      16A     -0.682701    17A     -0.674124    18A     -0.640373
      19A     -0.611806    20A     -0.581044    21A     -0.567109
      22A     -0.547702    23A     -0.519962    24A     -0.494835
      25A     -0.490910    26A     -0.483077    27A     -0.453254
      28A     -0.434081

  @DF-RHF Final Energy:  -344.88752591847992

   => Energetics <=

    Nuclear Repulsion Energy =            313.3461302990101558
    One-Electron Energy =               -1090.7654773275066873
    Two-Electron Energy =                 432.5318211100166081
    DFT Exchange-Correlation Energy =       0.0000000000000000
    Empirical Dispersion Energy =           0.0000000000000000
    PCM Polarization Energy =               0.0000000000000000
    EFP Energy =                            0.0000000000000000
    Total Energy =                       -344.8875259184799233
    Molecular point group: c1
  Basis Set: 6-31G*
  Basis Set:

  -Total Gradient:
     Atom            X                  Y                   Z
    ------   -----------------  -----------------  -----------------
       1        0.000228369579    -0.000286729803     0.003850335245
       2        0.000419935377     0.001406642349    -0.004460684785
       3       -0.000023216653     0.000017619907     0.000023507607
       4       -0.002259320625    -0.002954467632    -0.001560376883
       5        0.000015824174    -0.000028745830     0.000031941028
       6        0.000005526528    -0.000009408021    -0.000003444950
       7       -0.000000746502    -0.000001458978    -0.000003958078
       8       -0.000007887125     0.000002562949    -0.000025567308
       9       -0.000008686531     0.000010166730    -0.000004514960
      10        0.000010623045    -0.000004751501     0.000001758020
      11       -0.000005130456    -0.000006362692     0.000001011839
      12        0.000001968006    -0.000002128301    -0.000002282205
      13        0.000003859662     0.000005329256     0.000001693045
      14        0.001610598240     0.001864320258     0.002167029513
      15        0.000010873233    -0.000033596872     0.000021469633
      16       -0.000003506787     0.000008286511    -0.000016163895
      17        0.000000916835     0.000012721669    -0.000021752866

  **** Optimization is complete! (in 9 steps) ****
    Final optimized geometry and variables:
    Molecular point group: c1

    Geometry (in Angstrom), charge = 0, multiplicity = 1:

    O            0.920114369951     1.506484786815    -0.013538297524
    C            0.748176596866     0.338352920388    -0.066364346530
    C           -0.618543092991    -0.315132512846    -0.065136127738
    O            1.800655579943    -0.494982552378    -0.161905072769
    C           -1.760976257318     0.682902747522    -0.239474487825
    H           -0.631991430269    -1.066249725898    -0.850635923505
    H           -0.738717519430    -0.856887831502     0.870647321496
    C           -3.126623299263    -0.002063752849    -0.234558199004
    H           -1.622399193993     1.224966481131    -1.168825453586
    H           -1.711880232876     1.421543398519     0.552161083355
    H           -3.210019023511    -0.726928874530    -1.039550599457
    H           -3.922959351234     0.723811730806    -0.361381889754
    H           -3.304076400588    -0.525441928145     0.701065359336
    C            1.909155863600    -1.594802265653     0.713091042671
    H            1.816340954204    -1.279832940068     1.746038327187
    H            2.894692927301    -2.004675813850     0.557207670157
    H            1.170710625514    -2.357656309896     0.497014437968

  Mulliken Charges: (a.u.)
   Center  Symbol    Alpha    Beta     Spin     Total
       1     O     4.25544  4.25544  0.00000 -0.51089
       2     C     2.60777  2.60777  0.00000  0.78446
       3     C     3.22405  3.22405  0.00000 -0.44811
       4     O     4.30908  4.30908  0.00000 -0.61816
       5     C     3.15031  3.15031  0.00000 -0.30062
       6     H     0.40223  0.40223  0.00000  0.19554
       7     H     0.40562  0.40562  0.00000  0.18876
       8     C     3.24313  3.24313  0.00000 -0.48627
       9     H     0.41020  0.41020  0.00000  0.17961
      10     H     0.40741  0.40741  0.00000  0.18519
      11     H     0.42123  0.42123  0.00000  0.15755
      12     H     0.41384  0.41384  0.00000  0.17232
      13     H     0.42218  0.42218  0.00000  0.15564
      14     C     3.09402  3.09402  0.00000 -0.18804
      15     H     0.41530  0.41530  0.00000  0.16940
      16     H     0.39952  0.39952  0.00000  0.20096
      17     H     0.41867  0.41867  0.00000  0.16266

   Total alpha = 28.00000, Total beta = 28.00000, Total charge = -0.00000
