                              Psi4 1.0.54 Driver

  ==> Input File <==

--------------------------------------------------------------------------
set {
	reference rhf
	basis cc-pvtz
}

set_num_threads( 4 )
memory 2 gb

molecule MOL {
0 1

H	 2.379142	 0.528684	 -2.040993
O	 1.531182	 0.800783	 -1.742698
C	 1.408604	 0.573696	 -0.362327
C	 0.027642	 1.012027	 0.090274
H	 2.157653	 1.142734	 0.182548
H	 1.570253	 -0.476373	 -0.134981
C	 -1.138737	 0.285728	 -0.581921
H	 -0.064334	 2.076636	 -0.098553
H	 -0.028872	 0.877782	 1.167770
C	 -1.933983	 -0.631436	 0.343653
H	 -0.763151	 -0.285569	 -1.422081
H	 -1.808359	 1.035291	 -0.992333
H	 -2.789188	 -1.049673	 -0.174718
H	 -1.335629	 -1.461368	 0.700418
H	 -2.305435	 -0.092167	 1.209725

	symmetry c1
}
set optking {
	frozen_dihedral = ("
		8 4 7 11
	")
}

ee,wfn = optimize('scf', return_wfn=True)
oeprop( wfn, 'DIPOLE', 'QUADRUPOLE', 'MULLIKEN_CHARGES')
f=open( 'psi4out.xyz', 'w' )
f.write( "15  " )
f.write( str(ee) + "\n" )
f.write( MOL.save_string_xyz() )
f.close()
--------------------------------------------------------------------------

    Molecular point group: c1
  Charge       = 0
  Multiplicity = 1
  Basis Set: CC-PVTZ
  Basis Set:
  @DF-RHF Final Energy:  -232.23344676136517
    Total Energy =                       -232.2334467613649736
    Molecular point group: c1
  Basis Set: CC-PVTZ
  Basis Set:
  Basis Set: CC-PVTZ
  Basis Set:
  @DF-RHF Final Energy:  -232.23410140583698
    Total Energy =                       -232.2341014058370092
  Basis Set: CC-PVTZ
  Basis Set:
  Basis Set: CC-PVTZ
  Basis Set:
  @DF-RHF Final Energy:  -232.23415469364809
    Total Energy =                       -232.2341546936480654
  Basis Set: CC-PVTZ
  Basis Set:
  Basis Set: CC-PVTZ
  Basis Set:
  @DF-RHF Final Energy:  -232.23415875898183
    Total Energy =                       -232.2341587589816072
  Basis Set: CC-PVTZ
  Basis Set:
  Charge       = 0
  Multiplicity = 1
  Basis Set: CC-PVTZ
  Basis Set:

    Orbital Energies (a.u.)
    -----------------------

    Doubly Occupied:

       1A    -20.546477     2A    -11.266521     3A    -11.210357
       4A    -11.207822     5A    -11.204601     6A     -1.364572
       7A     -1.064459     8A     -0.974425     9A     -0.860718
      10A     -0.785586    11A     -0.706296    12A     -0.650296
      13A     -0.603832    14A     -0.583603    15A     -0.560394
      16A     -0.536997    17A     -0.503793    18A     -0.476246
      19A     -0.470547    20A     -0.454341    21A     -0.432591

  @DF-RHF Final Energy:  -232.23415950728923

   => Energetics <=

    Nuclear Repulsion Energy =            189.4189153706706179
    One-Electron Energy =                -690.3772106855167294
    Two-Electron Energy =                 268.7241358075566495
    DFT Exchange-Correlation Energy =       0.0000000000000000
    Empirical Dispersion Energy =           0.0000000000000000
    PCM Polarization Energy =               0.0000000000000000
    EFP Energy =                            0.0000000000000000
    Total Energy =                       -232.2341595072894620
    Molecular point group: c1
  Basis Set: CC-PVTZ
  Basis Set:

  -Total Gradient:
     Atom            X                  Y                   Z
    ------   -----------------  -----------------  -----------------
       1       -0.000034379084     0.000019198054     0.000032979421
       2        0.000002194630     0.000016803093     0.000011735231
       3        0.000039537954    -0.000043194570    -0.000003105138
       4        0.001411815788    -0.000710515464    -0.001736618660
       5        0.000015613574    -0.000009304432    -0.000042984443
       6       -0.000001758516     0.000013279508     0.000032103300
       7       -0.000508663388     0.001934622001    -0.001097880787
       8       -0.001118061986     0.000268847837     0.001582776674
       9       -0.000007238155    -0.000001191760    -0.000016702659
      10       -0.000018528370    -0.000010378183    -0.000034718637
      11        0.000233927258    -0.001486178718     0.001229928597
      12        0.000002020416     0.000019736815     0.000022623228
      13       -0.000003965242    -0.000023140013     0.000028627593
      14       -0.000002376536     0.000007785663    -0.000002012555
      15       -0.000010138342     0.000003630169    -0.000006751164

  **** Optimization is complete! (in 5 steps) ****
    Final optimized geometry and variables:
    Molecular point group: c1

    Geometry (in Angstrom), charge = 0, multiplicity = 1:

    H            2.381690922284     0.047494833131    -1.507244604940
    O            1.557416840651     0.397517830334    -1.224449361672
    C            1.357404850815     0.124350898029     0.137864405195
    C           -0.012883922452     0.628942634083     0.544260380790
    H            2.120438568308     0.614665219182     0.737079182586
    H            1.428772255511    -0.945686310604     0.325191943353
    C           -1.180474658060    -0.110841207006    -0.136594068974
    H           -0.063150646147     1.691831319932     0.337685133064
    H           -0.094480042010     0.529634847061     1.622942427160
    C           -1.958197326287    -1.012417163587     0.819411564196
    H           -0.795821756626    -0.712951400832    -0.950880378824
    H           -1.861118056697     0.604708319653    -0.582164136778
    H           -2.752732323087    -1.539895524506     0.303607419842
    H           -1.309661743565    -1.755922513129     1.272491160721
    H           -2.408623372376    -0.437667278092     1.622057879106

  Mulliken Charges: (a.u.)
   Center  Symbol    Alpha    Beta     Spin     Total
       1     H     0.39536  0.39536  0.00000  0.20928
       2     O     4.19928  4.19928  0.00000 -0.39855
       3     C     2.97330  2.97330  0.00000  0.05340
       4     C     3.09341  3.09341  0.00000 -0.18682
       5     H     0.46470  0.46470  0.00000  0.07060
       6     H     0.47342  0.47342  0.00000  0.05316
       7     C     3.08888  3.08888  0.00000 -0.17776
       8     H     0.44736  0.44736  0.00000  0.10529
       9     H     0.45589  0.45589  0.00000  0.08822
      10     C     3.14805  3.14805  0.00000 -0.29610
      11     H     0.44768  0.44768  0.00000  0.10464
      12     H     0.44956  0.44956  0.00000  0.10088
      13     H     0.44952  0.44952  0.00000  0.10095
      14     H     0.45755  0.45755  0.00000  0.08489
      15     H     0.45604  0.45604  0.00000  0.08792

   Total alpha = 21.00000, Total beta = 21.00000, Total charge = -0.00000

*** Psi4 exiting successfully. Buy a developer a beer!
