  ==> Input File <==

--------------------------------------------------------------------------
set {
	reference rhf
	basis 6-31G*
}

set_num_threads( 4 )
memory 2 gb

molecule MOL {
0 1

O	 1.214711	 1.306902	 -0.000018
C	 1.122059	 0.121804	 -0.000188
C	 -0.170150	 -0.657997	 -0.000612
O	 2.172624	 -0.688929	 0.000216
C	 -1.412532	 0.227344	 -0.000452
H	 -0.153702	 -1.313099	 -0.867402
H	 -0.153924	 -1.313811	 0.865644
C	 -2.074960	 0.299830	 -1.377151
H	 -1.141557	 1.225078	 0.330613
H	 -2.121587	 -0.150305	 0.729703
C	 -3.321329	 1.183852	 -1.385711
H	 -1.359990	 0.678049	 -2.105056
H	 -2.342072	 -0.702718	 -1.705205
H	 -3.080862	 2.202351	 -1.095042
H	 -3.771294	 1.218383	 -2.372937
H	 -4.070186	 0.811374	 -0.692808
C	 3.452279	 -0.082609	 0.000533
H	 3.583069	 0.529321	 -0.880332
H	 4.163299	 -0.894027	 0.001117
H	 3.582335	 0.529955	 0.881077

	symmetry c1
}
set optking {
	frozen_dihedral = ("
		9 5 3 6
	")
}

ee = optimize('scf')
oeprop('DIPOLE', 'QUADRUPOLE', 'MULLIKEN_CHARGES')
f=open( 'psi4out.xyz', 'w' )
f.write( "20  " )
f.write( str(ee) + "\n" )
f.write( MOL.save_string_xyz() )
f.close()
--------------------------------------------------------------------------

    Molecular point group: c1
  Charge       = 0
  Multiplicity = 1
  Basis Set: 6-31G*
  Basis Set:
  @DF-RHF Final Energy:  -383.93784700090566
    Total Energy =                       -383.9378470009058901
    Molecular point group: c1
  Basis Set: 6-31G*
  Basis Set:
  Basis Set: 6-31G*
  Basis Set:
  @DF-RHF Final Energy:  -383.93820767881510
    Total Energy =                       -383.9382076788155018
  Basis Set: 6-31G*
  Basis Set:
  Basis Set: 6-31G*
  Basis Set:
  @DF-RHF Final Energy:  -383.93804221267385
    Total Energy =                       -383.9380422126739631
  Basis Set: 6-31G*
  Basis Set:
  Basis Set: 6-31G*
  Basis Set:
  @DF-RHF Final Energy:  -383.93830622602860
    Total Energy =                       -383.9383062260283168
  Basis Set: 6-31G*
  Basis Set:
  Basis Set: 6-31G*
  Basis Set:
  @DF-RHF Final Energy:  -383.93830520194575
    Total Energy =                       -383.9383052019456954
  Basis Set: 6-31G*
  Basis Set:
  Basis Set: 6-31G*
  Basis Set:
  @DF-RHF Final Energy:  -383.93831699031870
    Total Energy =                       -383.9383169903190947
  Basis Set: 6-31G*
  Basis Set:
  Basis Set: 6-31G*
  Basis Set:
  @DF-RHF Final Energy:  -383.93832021631215
    Total Energy =                       -383.9383202163118085
  Basis Set: 6-31G*
  Basis Set:
  Charge       = 0
  Multiplicity = 1
  Basis Set: 6-31G*
  Basis Set:

    Orbital Energies (a.u.)
    -----------------------

    Doubly Occupied:

       1A    -20.604328     2A    -20.546456     3A    -11.373108
       4A    -11.281339     5A    -11.235702     6A    -11.218009
       7A    -11.216584     8A    -11.207828     9A     -1.470221
      10A     -1.363539    11A     -1.085951    12A     -1.022809
      13A     -0.968069    14A     -0.884903    15A     -0.804176
      16A     -0.766629    17A     -0.702037    18A     -0.680979
      19A     -0.672635    20A     -0.631384    21A     -0.606558
      22A     -0.588611    23A     -0.578416    24A     -0.545959
      25A     -0.529978    26A     -0.514760    27A     -0.512803
      28A     -0.476405    29A     -0.469324    30A     -0.461496
      31A     -0.456588    32A     -0.439057

  @DF-RHF Final Energy:  -383.93832073104153

   => Energetics <=

    Nuclear Repulsion Energy =            385.4875260545130118
    One-Electron Energy =               -1287.0184088555317885
    Two-Electron Energy =                 517.5925620699767933
    DFT Exchange-Correlation Energy =       0.0000000000000000
    Empirical Dispersion Energy =           0.0000000000000000
    PCM Polarization Energy =               0.0000000000000000
    EFP Energy =                            0.0000000000000000
    Total Energy =                       -383.9383207310420403
    Molecular point group: c1
  Basis Set: 6-31G*
  Basis Set:

  -Total Gradient:
     Atom            X                  Y                   Z
    ------   -----------------  -----------------  -----------------
       1        0.000026418301    -0.000073133468     0.000001676165
       2       -0.000007809790     0.000109091208    -0.000002135540
       3       -0.002067048857    -0.002959182121     0.001481211229
       4        0.000015571690     0.000001451429    -0.000000832808
       5       -0.000338751473    -0.000530701771     0.003626584256
       6        0.001720971997     0.002517945454    -0.001784386435
       7        0.000002592057     0.000001096610     0.000002373427
       8       -0.000030201112    -0.000012313785    -0.000043708975
       9        0.000663345291     0.000950806855    -0.003291801104
      10       -0.000010582537     0.000002199042    -0.000004827010
      11        0.000016227247     0.000002143947     0.000003747547
      12       -0.000004133103     0.000002860813     0.000004772408
      13        0.000002340838    -0.000004227022     0.000005455072
      14       -0.000000318294     0.000002111683     0.000005233345
      15        0.000005793162     0.000002715439     0.000000551257
      16       -0.000002261754    -0.000007994072    -0.000003019761
      17       -0.000009651218    -0.000015562996    -0.000000214849
      18        0.000002550437     0.000002277169    -0.000000366219
      19        0.000013921919     0.000006868593    -0.000000472424
      20        0.000001025194     0.000001546997     0.000000160418

  **** Optimization is complete! (in 8 steps) ****
    Final optimized geometry and variables:
    Molecular point group: c1

    Geometry (in Angstrom), charge = 0, multiplicity = 1:

    O            1.047127409448     1.078196240622     0.228065793599
    C            0.959506872102    -0.103094245114     0.329658228672
    C           -0.325803729134    -0.899765757101     0.374447326139
    O            2.015258585802    -0.903457109124     0.402951796856
    C           -1.590761786111    -0.030718658078     0.370222656185
    H           -0.290486783877    -1.548167157460    -0.497021194599
    H           -0.272279761408    -1.549036674770     1.241286083577
    C           -2.225058732401     0.089363801632    -1.018676003087
    H           -1.336222144739     0.965469262300     0.710629086434
    H           -2.317554394039    -0.442404090261     1.064044270951
    C           -3.461473970082     0.986009402517    -1.027499291542
    H           -1.486478161624     0.485765534441    -1.711571199821
    H           -2.492798091431    -0.900500268449    -1.383322608366
    H           -3.215763210508     1.993040343225    -0.703657941508
    H           -3.890655028878     1.053310205037    -2.022302946093
    H           -4.229328169315     0.602128732903    -0.361337059223
    C            3.291382857738    -0.291655129109     0.352478221228
    H            3.420944152224     0.240746120083    -0.578800226913
    H            4.007102930373    -1.095536653590     0.426317238650
    H            3.415402777167     0.396995008029     1.175748354886

  Mulliken Charges: (a.u.)
   Center  Symbol    Alpha    Beta     Spin     Total
       1     O     4.28585  4.28585  0.00000 -0.57171
       2     C     2.61127  2.61127  0.00000  0.77745
       3     C     3.20885  3.20885  0.00000 -0.41770
       4     O     4.30594  4.30594  0.00000 -0.61189
       5     C     3.15908  3.15908  0.00000 -0.31817
       6     H     0.39876  0.39876  0.00000  0.20249
       7     H     0.39699  0.39699  0.00000  0.20601
       8     C     3.15526  3.15526  0.00000 -0.31053
       9     H     0.39872  0.39872  0.00000  0.20255
      10     H     0.41913  0.41913  0.00000  0.16175
      11     C     3.24062  3.24062  0.00000 -0.48125
      12     H     0.41708  0.41708  0.00000  0.16583
      13     H     0.42453  0.42453  0.00000  0.15094
      14     H     0.41794  0.41794  0.00000  0.16411
      15     H     0.41885  0.41885  0.00000  0.16230
      16     H     0.42250  0.42250  0.00000  0.15499
      17     C     3.09218  3.09218  0.00000 -0.18435
      18     H     0.40915  0.40915  0.00000  0.18171
      19     H     0.40840  0.40840  0.00000  0.18320
      20     H     0.40887  0.40887  0.00000  0.18226

   Total alpha = 32.00000, Total beta = 32.00000, Total charge = -0.00000
