                              Psi4 1.0.54 Driver

  ==> Input File <==

--------------------------------------------------------------------------
set {
	reference rhf
	basis cc-pvtz
}

set_num_threads( 4 )
memory 2 gb

molecule MOL {
0 1

O	 -2.591817	 -0.871297	 0.238456
C	 -1.922978	 0.063265	 -0.045005
C	 -2.418590	 1.283783	 -0.768302
O	 -0.637375	 0.157174	 0.243149
H	 -1.863204	 1.411423	 -1.688613
H	 -3.469571	 1.175575	 -0.981302
H	 -2.249832	 2.161780	 -0.158211
C	 0.162530	 -1.009518	 0.097799
C	 1.587210	 -0.664190	 0.477086
H	 0.096803	 -1.356267	 -0.924704
H	 -0.233803	 -1.785900	 0.736810
C	 2.256770	 0.342732	 -0.454344
H	 2.154716	 -1.590834	 0.479041
H	 1.598751	 -0.289614	 1.496104
C	 3.698146	 0.643205	 -0.057145
H	 2.235038	 -0.042575	 -1.470299
H	 1.683491	 1.262594	 -0.461300
H	 4.150202	 1.356548	 -0.736242
H	 4.305463	 -0.255904	 -0.069842
H	 3.749130	 1.061068	 0.942759

	symmetry c1
}
set optking {
	frozen_dihedral = ("
		1 2 4 8
	")
}

ee,wfn = optimize('scf', return_wfn=True)
oeprop( wfn, 'DIPOLE', 'QUADRUPOLE', 'MULLIKEN_CHARGES')
f=open( 'psi4out.xyz', 'w' )
f.write( "20  " )
f.write( str(ee) + "\n" )
f.write( MOL.save_string_xyz() )
f.close()
--------------------------------------------------------------------------

    Molecular point group: c1
  Charge       = 0
  Multiplicity = 1
  Basis Set: CC-PVTZ
  Basis Set:
  @DF-RHF Final Energy:  -384.07954004954212
    Total Energy =                       -384.0795400495420608
    Molecular point group: c1
  Basis Set: CC-PVTZ
  Basis Set:
  Basis Set: CC-PVTZ
  Basis Set:
  @DF-RHF Final Energy:  -384.07576124485917
    Total Energy =                       -384.0757612448599048
  Basis Set: CC-PVTZ
  Basis Set:
  Basis Set: CC-PVTZ
  Basis Set:
  @DF-RHF Final Energy:  -384.07998413669685
    Total Energy =                       -384.0799841366970213
  Basis Set: CC-PVTZ
  Basis Set:
  Basis Set: CC-PVTZ
  Basis Set:
  @DF-RHF Final Energy:  -384.08014709338158
    Total Energy =                       -384.0801470933812425
  Basis Set: CC-PVTZ
  Basis Set:
  @DF-RHF Final Energy:  -384.08017579645161
    Total Energy =                       -384.0801757964520675
  @DF-RHF Final Energy:  -384.08018463515003
    Total Energy =                       -384.0801846351499762
  @DF-RHF Final Energy:  -384.08018698662369
    Total Energy =                       -384.0801869866235165
  @DF-RHF Final Energy:  -384.08018759869032
    Total Energy =                       -384.0801875986902587
  @DF-RHF Final Energy:  -384.08018872178843
    Total Energy =                       -384.0801887217888861
  @DF-RHF Final Energy:  -384.07269868557262
    Total Energy =                       -384.0726986855727318
  @DF-RHF Final Energy:  -384.07004146055073
    Total Energy =                       -384.0700414605507831
  @DF-RHF Final Energy:  -384.04148702924925
    Total Energy =                       -384.0414870292491401
  @DF-RHF Final Energy:  -384.07115395535976
    Total Energy =                       -384.0711539553600460
  Basis Set: CC-PVTZ
  Basis Set:
  @DF-RHF Final Energy:  -384.08012084245394
    Total Energy =                       -384.0801208424534252
  Basis Set: CC-PVTZ
  Basis Set:
  Basis Set: CC-PVTZ
  Basis Set:
  @DF-RHF Final Energy:  -384.08018443457468
    Total Energy =                       -384.0801844345744485
  Basis Set: CC-PVTZ
  Basis Set:
  Basis Set: CC-PVTZ
  Basis Set:
  @DF-RHF Final Energy:  -384.08018705857580
    Total Energy =                       -384.0801870585755751
  Basis Set: CC-PVTZ
  Basis Set:
  Charge       = 0
  Multiplicity = 1
  Basis Set: CC-PVTZ
  Basis Set:

    Orbital Energies (a.u.)
    -----------------------

    Doubly Occupied:

       1A    -20.586648     2A    -20.536866     3A    -11.368035
       4A    -11.283422     5A    -11.232534     6A    -11.224391
       7A    -11.219808     8A    -11.212293     9A     -1.466109
      10A     -1.366393    11A     -1.086946    12A     -1.028010
      13A     -0.984199    14A     -0.881473    15A     -0.811998
      16A     -0.777272    17A     -0.695014    18A     -0.685364
      19A     -0.662447    20A     -0.634746    21A     -0.607034
      22A     -0.595192    23A     -0.572508    24A     -0.560591
      25A     -0.545992    26A     -0.523482    27A     -0.516275
      28A     -0.484391    29A     -0.478528    30A     -0.475861
      31A     -0.450068    32A     -0.439635

  @DF-RHF Final Energy:  -384.08018770890720

   => Energetics <=

    Nuclear Repulsion Energy =            385.4029609231561722
    One-Electron Energy =               -1286.9792377954127005
    Two-Electron Energy =                 517.4960891633494384
    DFT Exchange-Correlation Energy =       0.0000000000000000
    Empirical Dispersion Energy =           0.0000000000000000
    PCM Polarization Energy =               0.0000000000000000
    EFP Energy =                            0.0000000000000000
    Total Energy =                       -384.0801877089071468
    Molecular point group: c1
  Basis Set: CC-PVTZ
  Basis Set:

  -Total Gradient:
     Atom            X                  Y                   Z
    ------   -----------------  -----------------  -----------------
       1        0.000563251818     0.003015170446     0.008772384326
       2       -0.000982678428    -0.003069155547    -0.016513315997
       3       -0.000025019648    -0.000062666753     0.000026702254
       4        0.000805157209    -0.002586933422     0.014533351354
       5       -0.000030646157    -0.000022380643    -0.000004075165
       6        0.000030752697     0.000010052111     0.000011128822
       7        0.000017351029     0.000002146766    -0.000025788195
       8       -0.000343510322     0.002691608091    -0.006788909304
       9       -0.000018173767     0.000036099422    -0.000036240281
      10       -0.000003253428     0.000010458590    -0.000008559492
      11       -0.000008380915     0.000004453473     0.000003133876
      12        0.000008028232    -0.000025654664     0.000034918084
      13        0.000005685344    -0.000001792021     0.000009655014
      14       -0.000006351201    -0.000006186299     0.000005758374
      15       -0.000013326908    -0.000011399100    -0.000059195113
      16       -0.000001062406     0.000008104284    -0.000004901549
      17        0.000001848641     0.000000111577    -0.000002750656
      18       -0.000003870936    -0.000001223860     0.000014183268
      19       -0.000003517316     0.000004226620     0.000016397480
      20        0.000007716461     0.000004960927     0.000016122903

  **** Optimization is complete! (in 17 steps) ****
    Final optimized geometry and variables:
    Molecular point group: c1

    Geometry (in Angstrom), charge = 0, multiplicity = 1:

    O           -2.479691938331    -0.755378912411     0.927088519427
    C           -1.834362326772     0.169895812236     0.577306006660
    C           -2.391360511742     1.528627834421     0.263998522903
    O           -0.505657841262     0.147555958121     0.501555071890
    H           -2.239017990174     1.741337645749    -0.787544311961
    H           -3.443661206751     1.557326946344     0.495760941791
    H           -1.857557516065     2.280683553327     0.829707569276
    C            0.108756576029    -1.034986413773     0.003235181096
    C            1.603542361412    -0.808073928419    -0.075521850913
    H           -0.304764178718    -1.253527484596    -0.974985495805
    H           -0.122884000117    -1.861525733857     0.658720977606
    C            2.025697681028     0.267491070202    -1.072458150843
    H            2.060667956521    -1.755696378496    -0.347165878523
    H            1.969031078938    -0.558144119389     0.915613594380
    C            3.538511384109     0.448001093769    -1.136386504933
    H            1.652001796809     0.005994981771    -2.059221826737
    H            1.559343284091     1.208308231918    -0.804902818011
    H            3.810904962647     1.214089105847    -1.852799168566
    H            4.032486248676    -0.471792865246    -1.431703836969
    H            3.937940681977     0.741268538791    -0.171319287266

  Mulliken Charges: (a.u.)
   Center  Symbol    Alpha    Beta     Spin     Total
       1     O     4.18815  4.18815  0.00000 -0.37629
       2     C     2.80746  2.80746  0.00000  0.38507
       3     C     3.13877  3.13877  0.00000 -0.27754
       4     O     4.16170  4.16170  0.00000 -0.32340
       5     H     0.44935  0.44935  0.00000  0.10131
       6     H     0.43714  0.43714  0.00000  0.12572
       7     H     0.44397  0.44397  0.00000  0.11205
       8     C     2.99096  2.99096  0.00000  0.01809
       9     C     3.08627  3.08627  0.00000 -0.17254
      10     H     0.46053  0.46053  0.00000  0.07894
      11     H     0.43812  0.43812  0.00000  0.12376
      12     C     3.08610  3.08610  0.00000 -0.17220
      13     H     0.45176  0.45176  0.00000  0.09649
      14     H     0.44966  0.44966  0.00000  0.10067
      15     C     3.14994  3.14994  0.00000 -0.29988
      16     H     0.45667  0.45667  0.00000  0.08667
      17     H     0.44673  0.44673  0.00000  0.10653
      18     H     0.44756  0.44756  0.00000  0.10488
      19     H     0.45544  0.45544  0.00000  0.08912
      20     H     0.45372  0.45372  0.00000  0.09256

   Total alpha = 32.00000, Total beta = 32.00000, Total charge = -0.00000

*** Psi4 exiting successfully. Buy a developer a beer!
