  ==> Input File <==

--------------------------------------------------------------------------
set {
	reference rhf
	basis 6-31G*
}

set_num_threads( 4 )
memory 2 gb

molecule MOL {
0 1

H	 -3.420663	 1.227371	 -1.044276
O	 -3.452007	 0.283848	 -0.965577
C	 -3.181085	 -0.079926	 0.364119
C	 -1.765924	 0.277073	 0.805136
H	 -3.327791	 -1.152017	 0.410903
H	 -3.905698	 0.375695	 1.036898
C	 -0.677594	 -0.417312	 -0.014550
H	 -1.637766	 1.358238	 0.744969
H	 -1.659588	 0.017670	 1.857098
C	 0.738335	 -0.034840	 0.421385
H	 -0.814977	 -0.178223	 -1.064632
H	 -0.802730	 -1.495410	 0.071702
C	 0.752527	 1.000545	 1.549154
H	 1.266539	 -0.932326	 0.734335
H	 1.286360	 0.359491	 -0.433469
C	 2.148619	 1.482084	 1.960498
H	 0.243825	 0.590460	 2.420216
H	 0.168416	 1.863559	 1.236363
C	 3.030259	 0.406300	 2.597526
H	 2.035964	 2.302132	 2.665566
H	 2.656158	 1.897284	 1.092042
H	 2.542459	 -0.036068	 3.462107
H	 3.973098	 0.828587	 2.931541
H	 3.261255	 -0.394104	 1.902431

	symmetry c1
}
set optking {
	frozen_dihedral = ("
		13 10 7 11
	")
}

ee = optimize('scf')
oeprop('DIPOLE', 'QUADRUPOLE', 'MULLIKEN_CHARGES')
f=open( 'psi4out.xyz', 'w' )
f.write( "24  " )
f.write( str(ee) + "\n" )
f.write( MOL.save_string_xyz() )
f.close()
--------------------------------------------------------------------------

    Molecular point group: c1
  Charge       = 0
  Multiplicity = 1
  Basis Set: 6-31G*
  Basis Set:
  @DF-RHF Final Energy:  -349.23167970902995
    Total Energy =                       -349.2316797090298905
    Molecular point group: c1
  Basis Set: 6-31G*
  Basis Set:
  Basis Set: 6-31G*
  Basis Set:
  @DF-RHF Final Energy:  -349.23116991268154
    Total Energy =                       -349.2311699126813096
  Basis Set: 6-31G*
  Basis Set:
  Basis Set: 6-31G*
  Basis Set:
  @DF-RHF Final Energy:  -349.23623108886943
    Total Energy =                       -349.2362310888694310
  Basis Set: 6-31G*
  Basis Set:
  Basis Set: 6-31G*
  Basis Set:
  @DF-RHF Final Energy:  -349.23712566540411
    Total Energy =                       -349.2371256654041076
  Basis Set: 6-31G*
  Basis Set:
  @DF-RHF Final Energy:  -349.23717197883616
    Total Energy =                       -349.2371719788361588
  @DF-RHF Final Energy:  -349.23727382686531
    Total Energy =                       -349.2372738268651347
  Basis Set: 6-31G*
  Basis Set:
  @DF-RHF Final Energy:  -349.23726250009219
    Total Energy =                       -349.2372625000921857
  Basis Set: 6-31G*
  Basis Set:
  Basis Set: 6-31G*
  Basis Set:
  @DF-RHF Final Energy:  -349.23729585026990
    Total Energy =                       -349.2372958502703568
  Basis Set: 6-31G*
  Basis Set:
  Basis Set: 6-31G*
  Basis Set:
  @DF-RHF Final Energy:  -349.23729961057683
    Total Energy =                       -349.2372996105769971
  Basis Set: 6-31G*
  Basis Set:
  Charge       = 0
  Multiplicity = 1
  Basis Set: 6-31G*
  Basis Set:

    Orbital Energies (a.u.)
    -----------------------

    Doubly Occupied:

       1A    -20.553478     2A    -11.267450     3A    -11.216930
       4A    -11.215165     5A    -11.213425     6A    -11.212528
       7A    -11.211442     8A    -11.207904     9A     -1.360057
      10A     -1.086032    11A     -1.046201    12A     -0.982570
      13A     -0.916904    14A     -0.855512    15A     -0.810612
      16A     -0.761840    17A     -0.675806    18A     -0.651641
      19A     -0.626575    20A     -0.621140    21A     -0.599718
      22A     -0.579165    23A     -0.558628    24A     -0.542412
      25A     -0.520578    26A     -0.512218    27A     -0.497425
      28A     -0.480591    29A     -0.473636    30A     -0.454581
      31A     -0.442663    32A     -0.437987    33A     -0.424390

  @DF-RHF Final Energy:  -349.23729963859745

   => Energetics <=

    Nuclear Repulsion Energy =            388.6074289981289098
    One-Electron Energy =               -1243.6550526004966741
    Two-Electron Energy =                 505.8103239637701449
    DFT Exchange-Correlation Energy =       0.0000000000000000
    Empirical Dispersion Energy =           0.0000000000000000
    PCM Polarization Energy =               0.0000000000000000
    EFP Energy =                            0.0000000000000000
    Total Energy =                       -349.2372996385976762
    Molecular point group: c1
  Basis Set: 6-31G*
  Basis Set:

  -Total Gradient:
     Atom            X                  Y                   Z
    ------   -----------------  -----------------  -----------------
       1        0.000001059007    -0.000002866311    -0.000001444805
       2        0.000023478185    -0.000006309711     0.000002517774
       3       -0.000023490533     0.000022633346    -0.000000544832
       4        0.000068359859    -0.000024109742     0.000014277209
       5        0.000002347307     0.000004539040     0.000010969558
       6       -0.000008422846     0.000004791980    -0.000007207355
       7       -0.000361233894     0.000869592759     0.000566166409
       8       -0.000012206418     0.000008429772     0.000002443486
       9        0.000027463536     0.000000716071     0.000013660223
      10        0.000057447790     0.000568254464    -0.000797148508
      11        0.000312811083    -0.000893413091    -0.000256513534
      12        0.000006025322    -0.000011591393    -0.000002308089
      13       -0.000062661012    -0.000517851210     0.000431402161
      14        0.000004656610    -0.000017999676    -0.000014403625
      15       -0.000006690325    -0.000000283339    -0.000013138327
      16        0.000005115949    -0.000011956293     0.000019835628
      17       -0.000048389083    -0.000016569136     0.000005951878
      18        0.000029379133     0.000017017100     0.000023117397
      19       -0.000008460344     0.000006522406     0.000003552180
      20        0.000014348669     0.000002248464     0.000006645828
      21       -0.000015315683    -0.000009334704    -0.000004368667
      22       -0.000004353533    -0.000006253507    -0.000004249860
      23       -0.000003824931     0.000006702607     0.000005600976
      24        0.000002556157     0.000007090107    -0.000004813102

  **** Optimization is complete! (in 10 steps) ****
    Final optimized geometry and variables:
    Molecular point group: c1

    Geometry (in Angstrom), charge = 0, multiplicity = 1:

    H           -3.154142615100     0.759975173655    -1.945363942852
    O           -3.114215227801    -0.184244605925    -1.880553542630
    C           -2.898877778687    -0.548239099753    -0.540697161079
    C           -1.548444653883    -0.086219167710    -0.001767892941
    H           -2.962294484700    -1.629122045275    -0.516390684729
    H           -3.698861334486    -0.162690414465     0.089141521594
    C           -0.372391312871    -0.697482964063    -0.770527767140
    H           -1.511798058905     1.000731363219    -0.043886182650
    H           -1.498978268433    -0.353135749641     1.051082671842
    C            1.063206138842    -0.301257673483    -0.320821034098
    H           -0.497419984460    -0.460636758648    -1.820652074137
    H           -0.468542942031    -1.778639298112    -0.708531654792
    C            1.186057349804     0.736259765805     0.802520716100
    H            1.585149031010    -1.202135197605    -0.015571720211
    H            1.608296227008     0.073891162720    -1.183366392366
    C            2.635335837862     1.105416868103     1.144948502284
    H            0.694224960192     0.374840495917     1.702672726585
    H            0.666959596048     1.646641808546     0.514990695897
    C            3.454236141230    -0.025038818215     1.771420302119
    H            2.619723931704     1.945000405152     1.835802274092
    H            3.137824977622     1.461317358511     0.247765487603
    H            2.965214735155    -0.414335193374     2.660535345914
    H            4.437051761340     0.330417290201     2.065592498492
    H            3.600868599072    -0.852200485175     1.085290096717

  Mulliken Charges: (a.u.)
   Center  Symbol    Alpha    Beta     Spin     Total
       1     H     0.28338  0.28338  0.00000  0.43324
       2     O     4.36827  4.36827  0.00000 -0.73654
       3     C     2.99657  2.99657  0.00000  0.00685
       4     C     3.17110  3.17110  0.00000 -0.34219
       5     H     0.41651  0.41651  0.00000  0.16698
       6     H     0.42788  0.42788  0.00000  0.14424
       7     C     3.15753  3.15753  0.00000 -0.31505
       8     H     0.42693  0.42693  0.00000  0.14614
       9     H     0.42136  0.42136  0.00000  0.15729
      10     C     3.15786  3.15786  0.00000 -0.31571
      11     H     0.40896  0.40896  0.00000  0.18209
      12     H     0.42163  0.42163  0.00000  0.15674
      13     C     3.15501  3.15501  0.00000 -0.31002
      14     H     0.41907  0.41907  0.00000  0.16186
      15     H     0.42138  0.42138  0.00000  0.15724
      16     C     3.15212  3.15212  0.00000 -0.30425
      17     H     0.42406  0.42406  0.00000  0.15188
      18     H     0.42278  0.42278  0.00000  0.15444
      19     C     3.24125  3.24125  0.00000 -0.48249
      20     H     0.42146  0.42146  0.00000  0.15708
      21     H     0.42332  0.42332  0.00000  0.15336
      22     H     0.42270  0.42270  0.00000  0.15460
      23     H     0.41934  0.41934  0.00000  0.16133
      24     H     0.41955  0.41955  0.00000  0.16091

   Total alpha = 33.00000, Total beta = 33.00000, Total charge = -0.00000
