  ==> Input File <==

--------------------------------------------------------------------------
set {
	reference rhf
	basis cc-pvtz
}

set_num_threads( 4 )
memory 2 gb

molecule MOL {
0 1

O	 -1.278239	 1.034789	 -0.784693
C	 -1.204115	 0.062668	 -0.112312
C	 -2.386398	 -0.667698	 0.460323
O	 -0.068058	 -0.518372	 0.226882
H	 -2.382952	 -1.693172	 0.114333
H	 -3.296656	 -0.175702	 0.158400
H	 -2.312537	 -0.685191	 1.540100
C	 1.169086	 0.037484	 -0.230612
C	 2.151627	 -0.115912	 0.913152
C	 0.962525	 1.482919	 -0.646133
H	 1.497399	 -0.539991	 -1.081389
H	 2.266156	 -1.158207	 1.181956
H	 3.121069	 0.271737	 0.623978
H	 1.811856	 0.427330	 1.786868
H	 1.900899	 1.909061	 -0.981328
H	 0.251600	 1.551350	 -1.457645
H	 0.599911	 2.070368	 0.189749

	symmetry c1
}
set optking {
	frozen_dihedral = ("
		11 8 4 2
	")
}

ee = optimize('scf')
oeprop('DIPOLE', 'QUADRUPOLE', 'MULLIKEN_CHARGES')
f=open( 'psi4out.xyz', 'w' )
f.write( "17  " )
f.write( str(ee) + "\n" )
f.write( MOL.save_string_xyz() )
f.close()
--------------------------------------------------------------------------

    Molecular point group: c1
  Charge       = 0
  Multiplicity = 1
  Basis Set: CC-PVTZ
  Basis Set:
  @DF-RHF Final Energy:  -345.00355456420999
    Total Energy =                       -345.0035545642098214
    Molecular point group: c1
  Basis Set: CC-PVTZ
  Basis Set:
  Basis Set: CC-PVTZ
  Basis Set:
  @DF-RHF Final Energy:  -345.02633257603918
    Total Energy =                       -345.0263325760394650
  Basis Set: CC-PVTZ
  Basis Set:
  Basis Set: CC-PVTZ
  Basis Set:
  @DF-RHF Final Energy:  -345.03086149312395
    Total Energy =                       -345.0308614931243483
  Basis Set: CC-PVTZ
  Basis Set:
  Basis Set: CC-PVTZ
  Basis Set:
  @DF-RHF Final Energy:  -345.02664140482915
    Total Energy =                       -345.0266414048290358
  Basis Set: CC-PVTZ
  Basis Set:
  @DF-RHF Final Energy:  -345.03291456364462
    Total Energy =                       -345.0329145636445105
  @DF-RHF Final Energy:  -345.03314131929574
    Total Energy =                       -345.0331413192953960
  Basis Set: CC-PVTZ
  Basis Set:
  @DF-RHF Final Energy:  -345.03315974567755
    Total Energy =                       -345.0331597456778354
  Basis Set: CC-PVTZ
  Basis Set:
  Basis Set: CC-PVTZ
  Basis Set:
  @DF-RHF Final Energy:  -345.03316416926015
    Total Energy =                       -345.0331641692595213
  Basis Set: CC-PVTZ
  Basis Set:
  Basis Set: CC-PVTZ
  Basis Set:
  @DF-RHF Final Energy:  -345.03316557629120
    Total Energy =                       -345.0331655762907417
  Basis Set: CC-PVTZ
  Basis Set:
  Charge       = 0
  Multiplicity = 1
  Basis Set: CC-PVTZ
  Basis Set:

    Orbital Energies (a.u.)
    -----------------------

    Doubly Occupied:

       1A    -20.588674     2A    -20.528366     3A    -11.366926
       4A    -11.295321     5A    -11.228203     6A    -11.217816
       7A    -11.211342     8A     -1.462354     9A     -1.364196
      10A     -1.081235    11A     -1.003379    12A     -0.946759
      13A     -0.861909    14A     -0.747467    15A     -0.690971
      16A     -0.681897    17A     -0.659369    18A     -0.614837
      19A     -0.586926    20A     -0.579843    21A     -0.555935
      22A     -0.547150    23A     -0.543293    24A     -0.517371
      25A     -0.504677    26A     -0.486826    27A     -0.444784
      28A     -0.431318

  @DF-RHF Final Energy:  -345.03316640008052

   => Energetics <=

    Nuclear Repulsion Energy =            324.0162889320702106
    One-Electron Energy =               -1112.6006291878654793
    Two-Electron Energy =                 443.5511738557146941
    DFT Exchange-Correlation Energy =       0.0000000000000000
    Empirical Dispersion Energy =           0.0000000000000000
    PCM Polarization Energy =               0.0000000000000000
    EFP Energy =                            0.0000000000000000
    Total Energy =                       -345.0331664000805745
    Molecular point group: c1
  Basis Set: CC-PVTZ
  Basis Set:

  -Total Gradient:
     Atom            X                  Y                   Z
    ------   -----------------  -----------------  -----------------
       1       -0.000030587787    -0.000027906540     0.000017954502
       2       -0.000102891381     0.002611024178     0.003844818503
       3        0.000032809821     0.000051094121     0.000053828507
       4        0.000435529938    -0.004718830361    -0.005374067637
       5       -0.000001159134    -0.000011463010    -0.000026045885
       6        0.000016649850     0.000007361514    -0.000020211488
       7        0.000008239077    -0.000024957667    -0.000001407658
       8       -0.002718441076     0.005033260010    -0.001445019149
       9        0.000022491505    -0.000026901971    -0.000037939605
      10       -0.000023699287     0.000065493593    -0.000046001352
      11        0.002278709107    -0.002942500100     0.002988980128
      12        0.000009938247     0.000000019225     0.000021752238
      13        0.000006770427    -0.000006414073     0.000013259341
      14       -0.000006960867    -0.000001107581     0.000001454082
      15        0.000004916389    -0.000007546777    -0.000000435447
      16        0.000057237841     0.000005862110     0.000037940706
      17        0.000010447327    -0.000006486674    -0.000028859787

  **** Optimization is complete! (in 10 steps) ****
    Final optimized geometry and variables:
    Molecular point group: c1

    Geometry (in Angstrom), charge = 0, multiplicity = 1:

    O           -1.409735198429     0.671223096750    -0.914529161966
    C           -1.171450755422    -0.180054341938    -0.128516183329
    C           -2.225412522673    -0.924550907299     0.646656843408
    O            0.030748054653    -0.629958154666     0.177179832998
    H           -2.130252021063    -1.986850655804     0.463607497130
    H           -3.202576459125    -0.580966096033     0.348356715117
    H           -2.080289907839    -0.759993696773     1.706703045072
    C            1.288509796947    -0.053061891099    -0.211106143506
    C            2.214523636023    -0.338245377258     0.960994768978
    C            1.275079079568     1.424955636697    -0.562593583883
    H            1.635501717610    -0.640561797247    -1.052443956602
    H            2.192311098349    -1.389629650229     1.215479846505
    H            3.232022092947    -0.066900530032     0.707074945998
    H            1.914054379098     0.231526972330     1.832714993887
    H            2.305047633187     1.740714683901    -0.684055724216
    H            0.736653291718     1.631478063135    -1.470594329674
    H            0.836756849160     2.011149555416     0.235923851606

  Mulliken Charges: (a.u.)
   Center  Symbol    Alpha    Beta     Spin     Total
       1     O     4.19828  4.19828  0.00000 -0.39656
       2     C     2.80860  2.80860  0.00000  0.38281
       3     C     3.13696  3.13696  0.00000 -0.27391
       4     O     4.16140  4.16140  0.00000 -0.32281
       5     H     0.44528  0.44528  0.00000  0.10943
       6     H     0.43883  0.43883  0.00000  0.12233
       7     H     0.44765  0.44765  0.00000  0.10470
       8     C     2.93416  2.93416  0.00000  0.13168
       9     C     3.13780  3.13780  0.00000 -0.27559
      10     C     3.15853  3.15853  0.00000 -0.31706
      11     H     0.44847  0.44847  0.00000  0.10306
      12     H     0.44568  0.44568  0.00000  0.10863
      13     H     0.45499  0.45499  0.00000  0.09003
      14     H     0.45407  0.45407  0.00000  0.09186
      15     H     0.45146  0.45146  0.00000  0.09707
      16     H     0.42850  0.42850  0.00000  0.14300
      17     H     0.44934  0.44934  0.00000  0.10132

   Total alpha = 28.00000, Total beta = 28.00000, Total charge = -0.00000
