  ==> Input File <==

--------------------------------------------------------------------------
set {
	reference rhf
	basis cc-pvtz
}

set_num_threads( 4 )
memory 2 gb

molecule MOL {
0 1

H	 1.260270	 1.131559	 1.589715
C	 0.347629	 1.246253	 1.023464
O	 -0.000000	 0.000000	 0.518769
H	 -0.425083	 1.639769	 1.680668
H	 0.518779	 1.965805	 0.225461
C	 -1.165153	 0.000000	 -0.236961
H	 -1.229451	 0.882440	 -0.870223
H	 -2.002557	 0.000000	 0.445289
H	 -1.229451	 -0.882440	 -0.870223

	symmetry c1
}
set optking {
	frozen_dihedral = ("
		2 3 6 7
	")
}

ee = optimize('scf')
oeprop('DIPOLE', 'QUADRUPOLE', 'MULLIKEN_CHARGES')
f=open( 'psi4out.xyz', 'w' )
f.write( "9  " )
f.write( str(ee) + "\n" )
f.write( MOL.save_string_xyz() )
f.close()
--------------------------------------------------------------------------

    Molecular point group: c1
  Charge       = 0
  Multiplicity = 1
  Basis Set: CC-PVTZ
  Basis Set:
  @DF-RHF Final Energy:  -154.12537038309566
    Total Energy =                       -154.1253703830957420
    Molecular point group: c1
  Basis Set: CC-PVTZ
  Basis Set:
  Basis Set: CC-PVTZ
  Basis Set:
  @DF-RHF Final Energy:  -154.12607000634642
    Total Energy =                       -154.1260700063464242
  Basis Set: CC-PVTZ
  Basis Set:
  Basis Set: CC-PVTZ
  Basis Set:
  @DF-RHF Final Energy:  -154.12622758460600
    Total Energy =                       -154.1262275846059993
  Basis Set: CC-PVTZ
  Basis Set:
  Charge       = 0
  Multiplicity = 1
  Basis Set: CC-PVTZ
  Basis Set:

    Orbital Energies (a.u.)
    -----------------------

    Doubly Occupied:

       1A    -20.549467     2A    -11.263397     3A    -11.263108
       4A     -1.381674     5A     -0.975841     6A     -0.872837
       7A     -0.662666     8A     -0.655870     9A     -0.646697
      10A     -0.552867    11A     -0.529757    12A     -0.477072
      13A     -0.418642

  @DF-RHF Final Energy:  -154.12622886700183

   => Energetics <=

    Nuclear Repulsion Energy =             84.8004130329093897
    One-Electron Energy =                -377.3534913979449357
    Two-Electron Energy =                 138.4268494980337039
    DFT Exchange-Correlation Energy =       0.0000000000000000
    Empirical Dispersion Energy =           0.0000000000000000
    PCM Polarization Energy =               0.0000000000000000
    EFP Energy =                            0.0000000000000000
    Total Energy =                       -154.1262288670018563
    Molecular point group: c1
  Basis Set: CC-PVTZ
  Basis Set:

  -Total Gradient:
     Atom            X                  Y                   Z
    ------   -----------------  -----------------  -----------------
       1       -0.000024601828    -0.000082702455    -0.000021425548
       2        0.000961227640     0.000480038197    -0.001789644430
       3       -0.001869529121    -0.000272541808     0.002930160255
       4        0.000007909990    -0.000032775559     0.000001987825
       5        0.000013633008     0.000018688157    -0.000000132403
       6        0.001947576747    -0.001369342911    -0.003074021448
       7       -0.001141737219     0.001260284680     0.001890426969
       8        0.000028559102    -0.000003194430     0.000028931319
       9        0.000076961682     0.000001546127     0.000033717464

  **** Optimization is complete! (in 4 steps) ****
    Final optimized geometry and variables:
    Molecular point group: c1

    Geometry (in Angstrom), charge = 0, multiplicity = 1:

    H            1.552518039069     0.691183949183     1.151132704200
    C            0.638364634811     0.815917309801     0.589015070395
    O            0.279828751668    -0.426075875821     0.081373602628
    H           -0.126190930415     1.215593030298     1.252632874313
    H            0.811807976502     1.535399791945    -0.208042685601
    C           -0.893817903065    -0.427579363709    -0.663834458173
    H           -0.968091958304     0.454273661164    -1.295555268229
    H           -1.768974713435    -0.445598003404    -0.017334445530
    H           -0.900515467311    -1.312592479768    -1.283429671736

  Mulliken Charges: (a.u.)
   Center  Symbol    Alpha    Beta     Spin     Total
       1     H     0.44874  0.44874  0.00000  0.10252
       2     C     3.02193  3.02193  0.00000 -0.04386
       3     O     4.16864  4.16864  0.00000 -0.33727
       4     H     0.47378  0.47378  0.00000  0.05244
       5     H     0.47205  0.47205  0.00000  0.05590
       6     C     3.02050  3.02050  0.00000 -0.04099
       7     H     0.47554  0.47554  0.00000  0.04891
       8     H     0.46903  0.46903  0.00000  0.06194
       9     H     0.44979  0.44979  0.00000  0.10041

   Total alpha = 13.00000, Total beta = 13.00000, Total charge =  0.00000
