                              Psi4 1.0.54 Driver

  ==> Input File <==

--------------------------------------------------------------------------
set {
	reference rhf
	basis cc-pvtz
}

set_num_threads( 4 )
memory 2 gb

molecule MOL {
0 1

H	 2.572025	 -1.388308	 2.528336
O	 2.132332	 -1.428266	 1.692412
C	 1.364271	 -0.349183	 1.569550
C	 0.626018	 -0.337582	 0.258241
O	 1.300169	 0.475604	 2.414216
C	 -0.267326	 0.883135	 0.076490
H	 1.373951	 -0.415694	 -0.521729
H	 0.049764	 -1.256305	 0.210163
C	 -1.726822	 0.642622	 0.463839
H	 -0.210803	 1.217591	 -0.953497
H	 0.129920	 1.693110	 0.675679
C	 -2.480891	 -0.340606	 -0.429852
H	 -2.243098	 1.597649	 0.438609
H	 -1.776542	 0.301208	 1.495542
C	 -3.955933	 -0.460128	 -0.060472
H	 -2.393755	 -0.020485	 -1.464726
H	 -2.024244	 -1.323637	 -0.374360
H	 -4.467673	 -1.160944	 -0.709827
H	 -4.458917	 0.497287	 -0.144505
H	 -4.076458	 -0.806900	 0.960497

	symmetry c1
}
set optking {
	frozen_dihedral = ("
		7 4 6 10
	")
}

ee,wfn = optimize('scf', return_wfn=True)
oeprop( wfn, 'DIPOLE', 'QUADRUPOLE', 'MULLIKEN_CHARGES')
f=open( 'psi4out.xyz', 'w' )
f.write( "20  " )
f.write( str(ee) + "\n" )
f.write( MOL.save_string_xyz() )
f.close()
--------------------------------------------------------------------------

    Molecular point group: c1
  Charge       = 0
  Multiplicity = 1
  Basis Set: CC-PVTZ
  Basis Set:
  @DF-RHF Final Energy:  -384.09174097439927
    Total Energy =                       -384.0917409743992721
    Molecular point group: c1
  Basis Set: CC-PVTZ
  Basis Set:
  Basis Set: CC-PVTZ
  Basis Set:
  @DF-RHF Final Energy:  -384.09165207590064
    Total Energy =                       -384.0916520759004698
  Basis Set: CC-PVTZ
  Basis Set:
  Basis Set: CC-PVTZ
  Basis Set:
  @DF-RHF Final Energy:  -384.09221906936864
    Total Energy =                       -384.0922190693685252
  Basis Set: CC-PVTZ
  Basis Set:
  Basis Set: CC-PVTZ
  Basis Set:
  @DF-RHF Final Energy:  -384.09187512046361
    Total Energy =                       -384.0918751204637829
  Basis Set: CC-PVTZ
  Basis Set:
  Basis Set: CC-PVTZ
  Basis Set:
  @DF-RHF Final Energy:  -384.09221907016035
    Total Energy =                       -384.0922190701601266
  Basis Set: CC-PVTZ
  Basis Set:
  Basis Set: CC-PVTZ
  Basis Set:
  @DF-RHF Final Energy:  -384.09226088624365
    Total Energy =                       -384.0922608862434799
  Basis Set: CC-PVTZ
  Basis Set:
  Basis Set: CC-PVTZ
  Basis Set:
  @DF-RHF Final Energy:  -384.09226205458555
    Total Energy =                       -384.0922620545856034
  Basis Set: CC-PVTZ
  Basis Set:
  Charge       = 0
  Multiplicity = 1
  Basis Set: CC-PVTZ
  Basis Set:

    Orbital Energies (a.u.)
    -----------------------

    Doubly Occupied:

       1A    -20.604490     2A    -20.541368     3A    -11.374304
       4A    -11.238636     5A    -11.220047     6A    -11.216823
       7A    -11.215023     8A    -11.208820     9A     -1.478321
      10A     -1.369725    11A     -1.095110    12A     -1.040630
      13A     -0.960856    14A     -0.871323    15A     -0.817014
      16A     -0.776964    17A     -0.705590    18A     -0.693872
      19A     -0.663850    20A     -0.636603    21A     -0.602968
      22A     -0.594497    23A     -0.574801    24A     -0.558915
      25A     -0.537321    26A     -0.509195    27A     -0.501230
      28A     -0.485823    29A     -0.466799    30A     -0.465881
      31A     -0.455398    32A     -0.448001

  @DF-RHF Final Energy:  -384.09226287109055

   => Energetics <=

    Nuclear Repulsion Energy =            380.9254626737386502
    One-Electron Energy =               -1278.1750539512149771
    Two-Electron Energy =                 513.1573284063858864
    DFT Exchange-Correlation Energy =       0.0000000000000000
    Empirical Dispersion Energy =           0.0000000000000000
    PCM Polarization Energy =               0.0000000000000000
    EFP Energy =                            0.0000000000000000
    Total Energy =                       -384.0922628710904974
    Molecular point group: c1
  Basis Set: CC-PVTZ
  Basis Set:

  -Total Gradient:
     Atom            X                  Y                   Z
    ------   -----------------  -----------------  -----------------
       1       -0.000004672738     0.000004009022    -0.000013612997
       2       -0.000004768325    -0.000002444156     0.000023960225
       3       -0.000005031666     0.000032590406     0.000026472882
       4        0.002819246293     0.002698098492     0.002380986421
       5        0.000027971486    -0.000033837293    -0.000025465267
       6       -0.003225304304    -0.002872958533    -0.001374723385
       7       -0.001835947769    -0.001793470064    -0.001736809654
       8        0.000017752205     0.000016707872    -0.000012495566
       9       -0.000005006244     0.000023415901    -0.000027923090
      10        0.002218988221     0.001946995668     0.000747722342
      11       -0.000005611551    -0.000009657469    -0.000008458147
      12        0.000007366070    -0.000003756852     0.000014072050
      13       -0.000006793720    -0.000003346585     0.000005497883
      14       -0.000001779819    -0.000010124086    -0.000016049991
      15       -0.000003973100     0.000001744274     0.000007534219
      16        0.000006593639     0.000004913382     0.000011733420
      17       -0.000007360900     0.000006228480     0.000003216572
      18        0.000000247873     0.000001978378     0.000003305422
      19        0.000009035944    -0.000008764397    -0.000002470950
      20       -0.000000951585     0.000001677566    -0.000006492388

  **** Optimization is complete! (in 8 steps) ****
    Final optimized geometry and variables:
    Molecular point group: c1

    Geometry (in Angstrom), charge = 0, multiplicity = 1:

    H            2.956695789073    -1.175182980412     1.773705757279
    O            2.540792553091    -1.208912895641     0.925447017514
    C            1.715087870698    -0.171607359723     0.820571520591
    C            1.008408759910    -0.161158720403    -0.509046195744
    O            1.582779413408     0.615502456033     1.692998157673
    C            0.046921334183     1.014381492221    -0.704600856721
    H            1.766195247713    -0.195245858260    -1.282961586333
    H            0.498952615824    -1.115147164734    -0.587117851541
    C           -1.404166117581     0.724787353853    -0.318836995692
    H            0.100494961638     1.345659540676    -1.736232001609
    H            0.405773444425     1.843014467925    -0.109022920049
    C           -2.151156854608    -0.189456303292    -1.288127363491
    H           -1.936902104657     1.668859157466    -0.256063208193
    H           -1.429884560513     0.299505053999     0.681059045006
    C           -3.593797916388    -0.447218026465    -0.865047602414
    H           -2.140886848031     0.259683772341    -2.277644282532
    H           -1.636218906943    -1.140770494789    -1.382418039555
    H           -4.102744665140    -1.089071439736    -1.574876624454
    H           -4.152730890537     0.480015292339    -0.797212045904
    H           -3.636358023318    -0.928489665590     0.106264617386

  Mulliken Charges: (a.u.)
   Center  Symbol    Alpha    Beta     Spin     Total
       1     H     0.38259  0.38259  0.00000  0.23482
       2     O     4.15971  4.15971  0.00000 -0.31942
       3     C     2.80073  2.80073  0.00000  0.39854
       4     C     3.11971  3.11971  0.00000 -0.23942
       5     O     4.19212  4.19212  0.00000 -0.38423
       6     C     3.10608  3.10608  0.00000 -0.21215
       7     H     0.42864  0.42864  0.00000  0.14272
       8     H     0.43733  0.43733  0.00000  0.12534
       9     C     3.09633  3.09633  0.00000 -0.19266
      10     H     0.44445  0.44445  0.00000  0.11110
      11     H     0.43572  0.43572  0.00000  0.12855
      12     C     3.08516  3.08516  0.00000 -0.17033
      13     H     0.44701  0.44701  0.00000  0.10599
      14     H     0.44881  0.44881  0.00000  0.10238
      15     C     3.14981  3.14981  0.00000 -0.29961
      16     H     0.45412  0.45412  0.00000  0.09176
      17     H     0.45544  0.45544  0.00000  0.08912
      18     H     0.44818  0.44818  0.00000  0.10364
      19     H     0.45375  0.45375  0.00000  0.09250
      20     H     0.45432  0.45432  0.00000  0.09136

   Total alpha = 32.00000, Total beta = 32.00000, Total charge =  0.00000

*** Psi4 exiting successfully. Buy a developer a beer!
