                              Psi4 1.0.54 Driver

  ==> Input File <==

--------------------------------------------------------------------------
set {
	reference rhf
	basis cc-pvtz
}

set_num_threads( 4 )
memory 2 gb

molecule MOL {
0 1

H	 -2.644180	 -0.653737	 1.272255
C	 -2.092774	 -0.380414	 0.391915
O	 -0.808934	 -0.154049	 0.752536
F	 -2.163230	 -1.351640	 -0.507133
F	 -2.627232	 0.691260	 -0.169301
C	 0.085006	 0.250800	 -0.215074
C	 1.279022	 0.879101	 0.499657
Cl	 -0.652724	 1.427691	 -1.317897
H	 0.445743	 -0.567608	 -0.813174
F	 2.176386	 1.273667	 -0.367568
F	 1.834872	 -0.021545	 1.275017
F	 0.933805	 1.897856	 1.238043

	symmetry c1
}
set optking {
	frozen_dihedral = ("
		9 6 3 2
	")
}

ee,wfn = optimize('scf', return_wfn=True)
oeprop( wfn, 'DIPOLE', 'QUADRUPOLE', 'MULLIKEN_CHARGES')
f=open( 'psi4out.xyz', 'w' )
f.write( "12  " )
f.write( str(ee) + "\n" )
f.write( MOL.save_string_xyz() )
f.close()
--------------------------------------------------------------------------

    Molecular point group: c1
  Charge       = 0
  Multiplicity = 1
  Basis Set: CC-PVTZ
  Basis Set:
  @DF-RHF Final Energy: -1146.59623663221328
    Total Energy =                      -1146.5962366322114576
    Molecular point group: c1
  Basis Set: CC-PVTZ
  Basis Set:
  Basis Set: CC-PVTZ
  Basis Set:
  @DF-RHF Final Energy: -1146.56990076707552
    Total Energy =                      -1146.5699007670757510
  Basis Set: CC-PVTZ
  Basis Set:
  Basis Set: CC-PVTZ
  Basis Set:
  @DF-RHF Final Energy: -1146.61017128942103
    Total Energy =                      -1146.6101712894214870
  Basis Set: CC-PVTZ
  Basis Set:
  Basis Set: CC-PVTZ
  Basis Set:
  @DF-RHF Final Energy: -1146.61299440862831
    Total Energy =                      -1146.6129944086280830
  Basis Set: CC-PVTZ
  Basis Set:
  @DF-RHF Final Energy: -1146.61367317080317
    Total Energy =                      -1146.6136731708031675
  @DF-RHF Final Energy: -1146.61429819746104
    Total Energy =                      -1146.6142981974608119
  @DF-RHF Final Energy: -1146.61443421511058
    Total Energy =                      -1146.6144342151110322
  Basis Set: CC-PVTZ
  Basis Set:
  @DF-RHF Final Energy: -1146.61438775212036
    Total Energy =                      -1146.6143877521203649
  Basis Set: CC-PVTZ
  Basis Set:
  Basis Set: CC-PVTZ
  Basis Set:
  @DF-RHF Final Energy: -1146.61444426991852
    Total Energy =                      -1146.6144442699189767
  Basis Set: CC-PVTZ
  Basis Set:
  Basis Set: CC-PVTZ
  Basis Set:
  @DF-RHF Final Energy: -1146.61444664850069
    Total Energy =                      -1146.6144466485006888
  Basis Set: CC-PVTZ
  Basis Set:
  Charge       = 0
  Multiplicity = 1
  Basis Set: CC-PVTZ
  Basis Set:

    Orbital Energies (a.u.)
    -----------------------

    Doubly Occupied:

       1A   -104.859764     2A    -26.353978     3A    -26.352679
       4A    -26.352205     5A    -26.341310     6A    -26.334585
       7A    -20.637446     8A    -11.519074     9A    -11.481222
      10A    -11.401710    11A    -10.585312    12A     -8.052133
      13A     -8.050107    14A     -8.050018    15A     -1.766919
      16A     -1.719340    17A     -1.661900    18A     -1.660151
      19A     -1.641152    20A     -1.481156    21A     -1.180215
      22A     -1.059253    23A     -0.987385    24A     -0.921044
      25A     -0.859615    26A     -0.854822    27A     -0.849767
      28A     -0.824190    29A     -0.813856    30A     -0.790653
      31A     -0.736570    32A     -0.730554    33A     -0.712216
      34A     -0.699006    35A     -0.685492    36A     -0.679844
      37A     -0.664482    38A     -0.662977    39A     -0.651940
      40A     -0.638217    41A     -0.597536    42A     -0.562020
      43A     -0.532509    44A     -0.479115    45A     -0.469496

  @DF-RHF Final Energy: -1146.61444686292953

   => Energetics <=

    Nuclear Repulsion Energy =            741.4946921287328223
    One-Electron Energy =               -3066.3284089803310053
    Two-Electron Energy =                1178.2192699886684295
    DFT Exchange-Correlation Energy =       0.0000000000000000
    Empirical Dispersion Energy =           0.0000000000000000
    PCM Polarization Energy =               0.0000000000000000
    EFP Energy =                            0.0000000000000000
    Total Energy =                      -1146.6144468629297535
    Molecular point group: c1
  Basis Set: CC-PVTZ
  Basis Set:

  -Total Gradient:
     Atom            X                  Y                   Z
    ------   -----------------  -----------------  -----------------
       1        0.000001166003    -0.000004734231    -0.000006761793
       2        0.000357703559     0.004534261235    -0.000353563068
       3        0.000532534341    -0.007207042459     0.001370548092
       4       -0.000030220823    -0.000015273569     0.000023171050
       5       -0.000016051813    -0.000023821488     0.000034739062
       6       -0.004319606045     0.003637352168    -0.004506033933
       7        0.000044918454     0.000083268540     0.000031256368
       8        0.000020378021     0.000020495278    -0.000030300866
       9        0.003504999680    -0.000980861805     0.003464268039
      10       -0.000050234632    -0.000000872890    -0.000000368766
      11       -0.000026740637    -0.000026962911    -0.000002769150
      12       -0.000018846116    -0.000015807815    -0.000024185120

  **** Optimization is complete! (in 11 steps) ****
    Final optimized geometry and variables:
    Molecular point group: c1

    Geometry (in Angstrom), charge = 0, multiplicity = 1:

    H           -2.578071312398    -0.426294266789     1.484004124099
    C           -2.071664704772    -0.205680608189     0.561591323467
    O           -0.741433551696    -0.303591704662     0.794439020703
    F           -2.451097042130    -1.062372020825    -0.375185563631
    F           -2.409806764838     1.001542241035     0.156087555338
    C            0.198643247610    -0.443832903884    -0.207802873516
    C            1.540976192440    -0.133196831560     0.456718343701
    CL          -0.015645200986     0.593924136091    -1.624287309068
    H            0.249857862206    -1.465415234572    -0.546393756864
    F            2.520560634784    -0.330231538886    -0.389579953115
    F            1.719240586869    -0.944959755264     1.472215496395
    F            1.607355789584     1.093164563469     0.895634022809

  Mulliken Charges: (a.u.)
   Center  Symbol    Alpha    Beta     Spin     Total
       1     H     0.45124  0.45124  0.00000  0.09752
       2     C     2.74042  2.74042  0.00000  0.51917
       3     O     4.15977  4.15977  0.00000 -0.31954
       4     F     4.61935  4.61935  0.00000 -0.23870
       5     F     4.61000  4.61000  0.00000 -0.22000
       6     C     2.94423  2.94423  0.00000  0.11154
       7     C     2.67065  2.67065  0.00000  0.65871
       8    CL     8.56891  8.56891  0.00000 -0.13782
       9     H     0.42705  0.42705  0.00000  0.14589
      10     F     4.60283  4.60283  0.00000 -0.20565
      11     F     4.60506  4.60506  0.00000 -0.21012
      12     F     4.60050  4.60050  0.00000 -0.20099

   Total alpha = 45.00000, Total beta = 45.00000, Total charge = -0.00000

*** Psi4 exiting successfully. Buy a developer a beer!
