  ==> Input File <==

--------------------------------------------------------------------------
set {
	reference rhf
	basis 6-31G*
}

set_num_threads( 1 )
memory 2 gb

molecule MOL {
0 1

H	 2.415009	 -2.868509	 2.173515
C	 2.466884	 -2.185494	 1.331761
C	 1.186125	 -1.360576	 1.212901
H	 3.333077	 -1.546513	 1.478866
H	 2.640955	 -2.776988	 0.437288
C	 1.217350	 -0.386724	 0.039429
H	 1.017075	 -0.797214	 2.125279
H	 0.335505	 -2.030780	 1.100368
N	 0.000003	 0.397874	 -0.023260
H	 2.050942	 0.299097	 0.164880
H	 1.406678	 -0.937037	 -0.888304
C	 -1.217365	 -0.386708	 0.039277
H	 -0.000031	 1.072115	 0.718656
C	 -2.452633	 0.504241	 -0.042481
H	 -1.215291	 -1.074557	 -0.802042
H	 -1.269739	 -1.003477	 0.942735
C	 -3.758029	 -0.289423	 -0.010781
H	 -2.394220	 1.093569	 -0.952170
H	 -2.440793	 1.210787	 0.785871
H	 -3.816659	 -0.981993	 -0.845726
H	 -4.617837	 0.370165	 -0.069296
H	 -3.847478	 -0.867502	 0.904682

	symmetry c1
}
set optking {
	frozen_dihedral = ("
		15 12 14 18
	")
}

ee = energy('scf')
oeprop('DIPOLE', 'QUADRUPOLE', 'MULLIKEN_CHARGES')
f=open( 'psi4out.xyz', 'w' )
f.write( "22  " )
f.write( str(ee) + "\n" )
f.write( MOL.save_string_xyz() )
f.close()
--------------------------------------------------------------------------

    Molecular point group: c1

    Geometry (in Angstrom), charge = 0, multiplicity = 1:

       Center              X                  Y                   Z               Mass
    ------------   -----------------  -----------------  -----------------  -----------------
           H          2.782342050335    -2.328475797436     1.799237722901     1.007825032070
           C          2.834217050335    -1.645460797436     0.957483722901    12.000000000000
           C          1.553458050335    -0.820542797436     0.838623722901    12.000000000000
           H          3.700410050335    -1.006479797436     1.104588722901     1.007825032070
           H          3.008288050335    -2.236954797436     0.063010722901     1.007825032070
           C          1.584683050335     0.153309202564    -0.334848277099    12.000000000000
           H          1.384408050335    -0.257180797436     1.751001722901     1.007825032070
           H          0.702838050335    -1.490746797436     0.726090722901     1.007825032070
           N          0.367336050335     0.937907202564    -0.397537277099    14.003074004780
           H          2.418275050335     0.839130202564    -0.209397277099     1.007825032070
           H          1.774011050335    -0.397003797436    -1.262581277099     1.007825032070
           C         -0.850031949665     0.153325202564    -0.335000277099    12.000000000000
           H          0.367302050335     1.612148202564     0.344378722901     1.007825032070
           C         -2.085299949665     1.044274202564    -0.416758277099    12.000000000000
           H         -0.847957949665    -0.534523797436    -1.176319277099     1.007825032070
           H         -0.902405949665    -0.463443797436     0.568457722901     1.007825032070
           C         -3.390695949665     0.250610202564    -0.385058277099    12.000000000000
           H         -2.026886949665     1.633602202564    -1.326447277099     1.007825032070
           H         -2.073459949665     1.750820202564     0.411593722901     1.007825032070
           H         -3.449325949665    -0.441959797436    -1.220003277099     1.007825032070
           H         -4.250503949665     0.910198202564    -0.443573277099     1.007825032070
           H         -3.480144949665    -0.327468797436     0.530404722901     1.007825032070

  Charge       = 0
  Multiplicity = 1
  Basis Set: 6-31G*
  Basis Set:

    Orbital Energies (a.u.)
    -----------------------

    Doubly Occupied:

       1A    -15.532722     2A    -11.239106     3A    -11.236212
       4A    -11.212712     5A    -11.211035     6A    -11.209547
       7A    -11.209359     8A     -1.207619     9A     -1.056385
      10A     -1.026153    11A     -0.928866    12A     -0.874144
      13A     -0.813997    14A     -0.791420    15A     -0.664642
      16A     -0.634496    17A     -0.617773    18A     -0.601037
      19A     -0.580292    20A     -0.559198    21A     -0.543275
      22A     -0.524332    23A     -0.500308    24A     -0.496906
      25A     -0.484130    26A     -0.470602    27A     -0.464934
      28A     -0.461324    29A     -0.351776

  @DF-RHF Final Energy:  -290.37484659490326

   => Energetics <=

    Nuclear Repulsion Energy =            320.6073653923771190
    One-Electron Energy =               -1026.9558688833715223
    Two-Electron Energy =                 415.9736568960905174
    DFT Exchange-Correlation Energy =       0.0000000000000000
    Empirical Dispersion Energy =           0.0000000000000000
    PCM Polarization Energy =               0.0000000000000000
    EFP Energy =                            0.0000000000000000
    Total Energy =                       -290.3748465949038859

  Mulliken Charges: (a.u.)
   Center  Symbol    Alpha    Beta     Spin     Total
       1     H     0.41883  0.41883  0.00000  0.16234
       2     C     3.24181  3.24181  0.00000 -0.48361
       3     C     3.16390  3.16390  0.00000 -0.32781
       4     H     0.42238  0.42238  0.00000  0.15524
       5     H     0.42123  0.42123  0.00000  0.15753
       6     C     3.05561  3.05561  0.00000 -0.11121
       7     H     0.42616  0.42616  0.00000  0.14767
       8     H     0.41728  0.41728  0.00000  0.16544
       9     N     3.84920  3.84920  0.00000 -0.69839
      10     H     0.41950  0.41950  0.00000  0.16100
      11     H     0.42038  0.42038  0.00000  0.15924
      12     C     3.05743  3.05743  0.00000 -0.11486
      13     H     0.33484  0.33484  0.00000  0.33032
      14     C     3.15319  3.15319  0.00000 -0.30638
      15     H     0.42187  0.42187  0.00000  0.15625
      16     H     0.43210  0.43210  0.00000  0.13581
      17     C     3.24323  3.24323  0.00000 -0.48646
      18     H     0.41317  0.41317  0.00000  0.17367
      19     H     0.42719  0.42719  0.00000  0.14563
      20     H     0.42089  0.42089  0.00000  0.15823
      21     H     0.41779  0.41779  0.00000  0.16442
      22     H     0.42203  0.42203  0.00000  0.15594

   Total alpha = 29.00000, Total beta = 29.00000, Total charge =  0.00000
