                              Psi4 1.0.54 Driver

  ==> Input File <==

--------------------------------------------------------------------------
set {
	reference rhf
	basis cc-pvtz
}

set_num_threads( 4 )
memory 2 gb

molecule MOL {
0 1

H	 5.269878	 0.195679	 1.068175
C	 4.673900	 -0.208485	 0.258034
C	 3.190199	 -0.204714	 0.610086
H	 4.865136	 0.391893	 -0.624684
H	 5.027838	 -1.214511	 0.056939
C	 2.319208	 -0.778154	 -0.505491
H	 2.876954	 0.809861	 0.827925
H	 3.035335	 -0.782733	 1.518235
C	 1.992602	 0.222961	 -1.609115
H	 2.811011	 -1.637839	 -0.943556
H	 1.384967	 -1.131712	 -0.078908
C	 3.161403	 0.572744	 -2.514674
H	 1.219316	 -0.181948	 -2.257069
H	 1.579275	 1.137712	 -1.194497
C	 3.038615	 1.823460	 -3.363205
O	 4.129900	 -0.113844	 -2.577012
C	 1.907127	 1.760775	 -4.394791
H	 3.988930	 1.963716	 -3.860264
H	 2.877606	 2.671545	 -2.702884
C	 1.871275	 2.992857	 -5.294989
H	 2.031952	 0.872189	 -5.007515
H	 0.949902	 1.660211	 -3.893186
C	 0.754086	 2.939909	 -6.331430
H	 2.827538	 3.094899	 -5.799191
H	 1.753167	 3.881564	 -4.681128
H	 0.863359	 2.077833	 -6.980711
H	 -0.219051	 2.874084	 -5.856316
H	 0.757636	 3.825922	 -6.955354

	symmetry c1
}
set optking {
	frozen_dihedral = ("
		10 6 3 2
	")
}

ee,wfn = optimize('scf', return_wfn=True)
oeprop( wfn, 'DIPOLE', 'QUADRUPOLE', 'MULLIKEN_CHARGES')
f=open( 'psi4out.xyz', 'w' )
f.write( "28  " )
f.write( str(ee) + "\n" )
f.write( MOL.save_string_xyz() )
f.close()
--------------------------------------------------------------------------

    Molecular point group: c1
  Charge       = 0
  Multiplicity = 1
  Basis Set: CC-PVTZ
  Basis Set:
  @DF-RHF Final Energy:  -426.30983945218588
    Total Energy =                       -426.3098394521852015
    Molecular point group: c1
  Basis Set: CC-PVTZ
  Basis Set:
  Basis Set: CC-PVTZ
  Basis Set:
  @DF-RHF Final Energy:  -426.31011362338256
    Total Energy =                       -426.3101136233824491
  Basis Set: CC-PVTZ
  Basis Set:
  Basis Set: CC-PVTZ
  Basis Set:
  @DF-RHF Final Energy:  -426.31394298106443
    Total Energy =                       -426.3139429810635193
  Basis Set: CC-PVTZ
  Basis Set:
  Basis Set: CC-PVTZ
  Basis Set:
  @DF-RHF Final Energy:  -426.31446502949188
    Total Energy =                       -426.3144650294919984
  Basis Set: CC-PVTZ
  Basis Set:
  @DF-RHF Final Energy:  -426.31471283948599
    Total Energy =                       -426.3147128394858782
  @DF-RHF Final Energy:  -426.31476550041737
    Total Energy =                       -426.3147655004172520
  @DF-RHF Final Energy:  -426.31511835509627
    Total Energy =                       -426.3151183550960468
  @DF-RHF Final Energy:  -426.31525558161036
    Total Energy =                       -426.3152555816105860
  @DF-RHF Final Energy:  -426.31526905861585
    Total Energy =                       -426.3152690586161953
  Basis Set: CC-PVTZ
  Basis Set:
  @DF-RHF Final Energy:  -426.31529051227574
    Total Energy =                       -426.3152905122760785
  Basis Set: CC-PVTZ
  Basis Set:
  Basis Set: CC-PVTZ
  Basis Set:
  @DF-RHF Final Energy:  -426.31529955257940
    Total Energy =                       -426.3152995525795177
  Basis Set: CC-PVTZ
  Basis Set:
  Basis Set: CC-PVTZ
  Basis Set:
  @DF-RHF Final Energy:  -426.31530199527617
    Total Energy =                       -426.3153019952762861
  Basis Set: CC-PVTZ
  Basis Set:
  Charge       = 0
  Multiplicity = 1
  Basis Set: CC-PVTZ
  Basis Set:

    Orbital Energies (a.u.)
    -----------------------

    Doubly Occupied:

       1A    -20.535667     2A    -11.316397     3A    -11.229894
       4A    -11.227866     5A    -11.227012     6A    -11.223847
       7A    -11.215680     8A    -11.214358     9A    -11.214231
      10A    -11.201496    11A     -1.396124    12A     -1.096110
      13A     -1.077480    14A     -1.022569    15A     -0.989970
      16A     -0.910052    17A     -0.878974    18A     -0.809031
      19A     -0.794946    20A     -0.724430    21A     -0.668959
      22A     -0.649607    23A     -0.638838    24A     -0.627252
      25A     -0.600032    26A     -0.590236    27A     -0.582442
      28A     -0.561626    29A     -0.552141    30A     -0.537927
      31A     -0.519436    32A     -0.507585    33A     -0.504103
      34A     -0.485122    35A     -0.479176    36A     -0.476429
      37A     -0.469872    38A     -0.466218    39A     -0.452786
      40A     -0.393466

  @DF-RHF Final Energy:  -426.31530282053859

   => Energetics <=

    Nuclear Repulsion Energy =            539.6660696578181842
    One-Electron Energy =               -1647.8239796343093531
    Two-Electron Energy =                 681.8426071559522370
    DFT Exchange-Correlation Energy =       0.0000000000000000
    Empirical Dispersion Energy =           0.0000000000000000
    PCM Polarization Energy =               0.0000000000000000
    EFP Energy =                            0.0000000000000000
    Total Energy =                       -426.3153028205390456
    Molecular point group: c1
  Basis Set: CC-PVTZ
  Basis Set:

  -Total Gradient:
     Atom            X                  Y                   Z
    ------   -----------------  -----------------  -----------------
       1       -0.000007853327     0.000003386696     0.000018869127
       2        0.000587814910    -0.001907580298     0.000696908898
       3       -0.000567872904     0.003275119462    -0.001383708580
       4        0.000011721680     0.000009316663     0.000004579576
       5       -0.000000325090    -0.000007833436    -0.000004410129
       6       -0.001076141833    -0.003582121802     0.002190501271
       7       -0.000001095956     0.000002543263    -0.000000889744
       8       -0.000008393852    -0.000012840857    -0.000002692224
       9        0.000002901202     0.000005947480     0.000011296338
      10        0.001069503975     0.002202286090    -0.001534333986
      11        0.000005682599     0.000014590234     0.000008099606
      12        0.000037624167    -0.000037627342     0.000019662023
      13       -0.000007425566     0.000003854432    -0.000000235543
      14       -0.000006313156     0.000014703568    -0.000006092715
      15       -0.000055746312    -0.000000510388    -0.000064880873
      16       -0.000021736135     0.000021296527     0.000004566959
      17        0.000019604429     0.000001685114     0.000018990125
      18        0.000016102894    -0.000003707890    -0.000001163489
      19        0.000009612125    -0.000000975267     0.000020134320
      20       -0.000005679814     0.000010657427     0.000010974177
      21       -0.000006872950    -0.000005421101    -0.000010716862
      22       -0.000003367048    -0.000001629947    -0.000001394762
      23        0.000010019756    -0.000007246647     0.000007791281
      24        0.000002372662     0.000000460699     0.000003318971
      25       -0.000003999088     0.000003885917     0.000002502548
      26       -0.000002412695    -0.000004619431    -0.000005542946
      27       -0.000001651922     0.000002430605     0.000001002382
      28        0.000003927250    -0.000000049769    -0.000003135749

  **** Optimization is complete! (in 13 steps) ****
    Final optimized geometry and variables:
    Molecular point group: c1

    Geometry (in Angstrom), charge = 0, multiplicity = 1:

    H            2.167139746625    -0.514077786240     4.078005890297
    C            1.852003389573    -0.885329300026     3.109070774434
    C            0.385248073233    -1.307516261451     3.152277884597
    H            2.035664969188    -0.103716426749     2.382496654601
    H            2.487054408048    -1.723389218051     2.847548432687
    C           -0.156933636322    -1.940029080754     1.863720064914
    H           -0.235782372642    -0.459982462200     3.430647975951
    H            0.271419123564    -2.032902237372     3.952045995637
    C           -0.581927747010    -0.939392959865     0.784630533513
    H            0.587062922416    -2.598092336876     1.433438376673
    H           -1.022186370738    -2.542779564944     2.114318698652
    C            0.539069827205    -0.409513025030    -0.094861583054
    H           -1.272225221742    -1.423450766003     0.097559604669
    H           -1.130716556235    -0.109779116223     1.217914466564
    C            0.327519883309     0.934950177171    -0.761891241919
    O            1.529229565094    -1.038024051620    -0.287967278112
    C           -0.831172409011     0.942509627939    -1.764912758303
    H            1.252505530314     1.194588351397    -1.258732539054
    H            0.140541024275     1.676216636840     0.010725682018
    C           -0.979234534163     2.285940952317    -2.473922376059
    H           -0.667031781820     0.162788731825    -2.503449424931
    H           -1.762241069758     0.702131301301    -1.261397337265
    C           -2.123685647151     2.303529500957    -3.481331060279
    H           -0.049045682653     2.527658448578    -2.979310841488
    H           -1.136763772556     3.065906285779    -1.734082185537
    H           -1.977467065434     1.554909331986    -4.252591243358
    H           -3.073921392880     2.099523639556    -2.999164754585
    H           -2.200832071566     3.268634274906    -3.968081056501

  Mulliken Charges: (a.u.)
   Center  Symbol    Alpha    Beta     Spin     Total
       1     H     0.45007  0.45007  0.00000  0.09986
       2     C     3.14296  3.14296  0.00000 -0.28593
       3     C     3.09337  3.09337  0.00000 -0.18674
       4     H     0.45550  0.45550  0.00000  0.08900
       5     H     0.45037  0.45037  0.00000  0.09926
       6     C     3.09951  3.09951  0.00000 -0.19901
       7     H     0.45747  0.45747  0.00000  0.08506
       8     H     0.44884  0.44884  0.00000  0.10233
       9     C     3.11839  3.11839  0.00000 -0.23678
      10     H     0.44135  0.44135  0.00000  0.11730
      11     H     0.44264  0.44264  0.00000  0.11473
      12     C     2.87013  2.87013  0.00000  0.25975
      13     H     0.43528  0.43528  0.00000  0.12944
      14     H     0.44371  0.44371  0.00000  0.11257
      15     C     3.09178  3.09178  0.00000 -0.18357
      16     O     4.17931  4.17931  0.00000 -0.35863
      17     C     3.10021  3.10021  0.00000 -0.20042
      18     H     0.43804  0.43804  0.00000  0.12391
      19     H     0.45019  0.45019  0.00000  0.09962
      20     C     3.08742  3.08742  0.00000 -0.17483
      21     H     0.44542  0.44542  0.00000  0.10917
      22     H     0.44994  0.44994  0.00000  0.10012
      23     C     3.14932  3.14932  0.00000 -0.29864
      24     H     0.44977  0.44977  0.00000  0.10045
      25     H     0.45362  0.45362  0.00000  0.09275
      26     H     0.45340  0.45340  0.00000  0.09319
      27     H     0.45516  0.45516  0.00000  0.08967
      28     H     0.44681  0.44681  0.00000  0.10638

   Total alpha = 40.00000, Total beta = 40.00000, Total charge = -0.00000

*** Psi4 exiting successfully. Buy a developer a beer!
