                              Psi4 1.0.54 Driver

  ==> Input File <==

--------------------------------------------------------------------------
set {
	reference rhf
	basis cc-pvtz
}

set_num_threads( 4 )
memory 2 gb

molecule MOL {
0 1

H	 2.614283	 2.028610	 0.296620
O	 3.358864	 1.662087	 -0.142800
C	 3.565468	 0.338079	 0.273842
C	 2.646814	 -0.663332	 -0.410217
H	 4.594507	 0.109328	 0.031499
H	 3.464124	 0.260182	 1.354634
C	 1.168023	 -0.491974	 -0.070126
H	 2.786898	 -0.583058	 -1.484037
H	 2.968437	 -1.661730	 -0.123582
C	 0.280766	 -1.534674	 -0.748644
H	 0.845701	 0.501886	 -0.362281
H	 1.036387	 -0.559286	 1.008497
C	 -1.203009	 -1.456078	 -0.384652
H	 0.390653	 -1.449468	 -1.827018
H	 0.646838	 -2.523141	 -0.485218
C	 -1.924972	 -0.204402	 -0.880453
H	 -1.701865	 -2.328676	 -0.797258
H	 -1.311626	 -1.529857	 0.695123
C	 -3.421479	 -0.219299	 -0.579366
H	 -1.777424	 -0.107786	 -1.953935
H	 -1.486655	 0.682093	 -0.432114
C	 -4.144721	 1.030649	 -1.069717
H	 -3.870489	 -1.097122	 -1.035868
H	 -3.570686	 -0.324297	 0.491977
H	 -4.041415	 1.146657	 -2.143546
H	 -5.203793	 0.986515	 -0.842724
H	 -3.743749	 1.924042	 -0.602362

	symmetry c1
}
set optking {
	frozen_dihedral = ("
		4 3 2 1
	")
}

ee,wfn = optimize('scf', return_wfn=True)
oeprop( wfn, 'DIPOLE', 'QUADRUPOLE', 'MULLIKEN_CHARGES')
f=open( 'psi4out.xyz', 'w' )
f.write( "27  " )
f.write( str(ee) + "\n" )
f.write( MOL.save_string_xyz() )
f.close()
--------------------------------------------------------------------------

    Molecular point group: c1
  Charge       = 0
  Multiplicity = 1
  Basis Set: CC-PVTZ
  Basis Set:
  @DF-RHF Final Energy:  -388.42772605774428
    Total Energy =                       -388.4277260577438255
    Molecular point group: c1
  Basis Set: CC-PVTZ
  Basis Set:
  Basis Set: CC-PVTZ
  Basis Set:
  @DF-RHF Final Energy:  -388.42773161939931
    Total Energy =                       -388.4277316193997649
  Basis Set: CC-PVTZ
  Basis Set:
  Basis Set: CC-PVTZ
  Basis Set:
  @DF-RHF Final Energy:  -388.42773415008190
    Total Energy =                       -388.4277341500818466
  Basis Set: CC-PVTZ
  Basis Set:
  Charge       = 0
  Multiplicity = 1
  Basis Set: CC-PVTZ
  Basis Set:

    Orbital Energies (a.u.)
    -----------------------

    Doubly Occupied:

       1A    -20.545548     2A    -11.265214     3A    -11.215334
       4A    -11.213799     5A    -11.213431     6A    -11.212576
       7A    -11.212371     8A    -11.211221     9A    -11.206884
      10A     -1.363274    11A     -1.095463    12A     -1.061985
      13A     -1.012148    14A     -0.948919    15A     -0.887895
      16A     -0.819575    17A     -0.801067    18A     -0.777516
      19A     -0.698771    20A     -0.651812    21A     -0.638030
      22A     -0.616688    23A     -0.599622    24A     -0.583221
      25A     -0.580924    26A     -0.552025    27A     -0.541313
      28A     -0.532119    29A     -0.505998    30A     -0.493569
      31A     -0.484582    32A     -0.473322    33A     -0.469299
      34A     -0.460897    35A     -0.453073    36A     -0.442696
      37A     -0.424467

  @DF-RHF Final Energy:  -388.42773420508860

   => Energetics <=

    Nuclear Repulsion Energy =            460.2524527931601028
    One-Electron Energy =               -1438.8270887430321636
    Two-Electron Energy =                 590.1469017447832357
    DFT Exchange-Correlation Energy =       0.0000000000000000
    Empirical Dispersion Energy =           0.0000000000000000
    PCM Polarization Energy =               0.0000000000000000
    EFP Energy =                            0.0000000000000000
    Total Energy =                       -388.4277342050888819
    Molecular point group: c1
  Basis Set: CC-PVTZ
  Basis Set:

  -Total Gradient:
     Atom            X                  Y                   Z
    ------   -----------------  -----------------  -----------------
       1        0.000318390310     0.000137480095     0.000341097592
       2       -0.000291923079    -0.000213784304    -0.000521732152
       3       -0.000242725600     0.000110805407     0.000418247372
       4        0.000185327785    -0.000016906992    -0.000234916799
       5        0.000012874246     0.000009679743     0.000003439919
       6        0.000010771733     0.000004806042    -0.000023149226
       7       -0.000024342084    -0.000003458339    -0.000004262560
       8        0.000005861070     0.000000050187     0.000011092277
       9       -0.000000624148    -0.000007117146    -0.000004225901
      10       -0.000005442616    -0.000004679958     0.000015779724
      11        0.000011085479    -0.000008280970     0.000005960380
      12        0.000001312357    -0.000006400903     0.000006386116
      13       -0.000002154207    -0.000006314277    -0.000019652353
      14        0.000000699932    -0.000010294504    -0.000000690039
      15       -0.000002698305     0.000009953774     0.000011274305
      16        0.000003684299    -0.000003689735    -0.000006225528
      17       -0.000002917058     0.000005260967    -0.000005500044
      18        0.000003374481    -0.000007561825    -0.000004806067
      19        0.000000350139     0.000004744764     0.000004071973
      20       -0.000001962648    -0.000002895791     0.000003325846
      21        0.000018313086     0.000006643634     0.000000645286
      22        0.000000352521     0.000001384210     0.000004680059
      23        0.000003418860     0.000003187891    -0.000001338793
      24       -0.000002058275    -0.000001340381    -0.000000804461
      25        0.000000177468    -0.000001511829     0.000002885763
      26        0.000001556491     0.000000551630    -0.000000035001
      27       -0.000000702229    -0.000000311394    -0.000001547687

  **** Optimization is complete! (in 4 steps) ****
    Final optimized geometry and variables:
    Molecular point group: c1

    Geometry (in Angstrom), charge = 0, multiplicity = 1:

    H            2.523857278942     2.152294370719     0.721993251347
    O            3.270483602657     1.786935020506     0.285933858262
    C            3.486232294667     0.466779850054     0.712256176450
    C            2.571820886134    -0.540722213067     0.032078179612
    H            4.516271271000     0.239588022022     0.471507884951
    H            3.385549332034     0.395231176660     1.793131341670
    C            1.092195039477    -0.367399394624     0.365916571696
    H            2.715602629225    -0.465174695292    -1.041490303881
    H            2.894318586282    -1.537255793596     0.324533272905
    C            0.206192050650    -1.411459394037    -0.311867400655
    H            0.774563719894     0.626368972427     0.069788592418
    H            0.956754669915    -0.431390455412     1.444360270507
    C           -1.277943075378    -1.332939080001     0.050549839370
    H            0.316961231020    -1.327620222081    -1.390246021738
    H            0.572313102722    -2.399511303657    -0.046919834391
    C           -1.997757517422    -0.078317896090    -0.440738543669
    H           -1.777474011072    -2.203100592951    -0.366297378534
    H           -1.387996753285    -1.411131060268     1.129849779005
    C           -3.494140066144    -0.091289857283    -0.139322475027
    H           -1.850317970144     0.021562838068    -1.513873759162
    H           -1.557453611446     0.805747978784     0.010287750149
    C           -4.214926806012     1.162192176320    -0.624074467629
    H           -3.945181142259    -0.966193551398    -0.599370117203
    H           -3.643274594075    -0.200506365863     0.931577365400
    H           -4.112264677529     1.282186616852    -1.697487889293
    H           -5.273880493845     1.119688648832    -0.396357378236
    H           -3.811426365320     2.052790385100    -0.153633864466

  Mulliken Charges: (a.u.)
   Center  Symbol    Alpha    Beta     Spin     Total
       1     H     0.39203  0.39203  0.00000  0.21594
       2     O     4.20594  4.20594  0.00000 -0.41189
       3     C     2.98227  2.98227  0.00000  0.03545
       4     C     3.08624  3.08624  0.00000 -0.17248
       5     H     0.44863  0.44863  0.00000  0.10274
       6     H     0.46892  0.46892  0.00000  0.06217
       7     C     3.10319  3.10319  0.00000 -0.20637
       8     H     0.45135  0.45135  0.00000  0.09730
       9     H     0.45521  0.45521  0.00000  0.08958
      10     C     3.09838  3.09838  0.00000 -0.19677
      11     H     0.45416  0.45416  0.00000  0.09169
      12     H     0.45486  0.45486  0.00000  0.09029
      13     C     3.09805  3.09805  0.00000 -0.19609
      14     H     0.45177  0.45177  0.00000  0.09645
      15     H     0.44833  0.44833  0.00000  0.10334
      16     C     3.08779  3.08779  0.00000 -0.17558
      17     H     0.44810  0.44810  0.00000  0.10379
      18     H     0.45404  0.45404  0.00000  0.09192
      19     C     3.08404  3.08404  0.00000 -0.16808
      20     H     0.45409  0.45409  0.00000  0.09181
      21     H     0.45533  0.45533  0.00000  0.08935
      22     C     3.14959  3.14959  0.00000 -0.29919
      23     H     0.45382  0.45382  0.00000  0.09237
      24     H     0.45482  0.45482  0.00000  0.09036
      25     H     0.45484  0.45484  0.00000  0.09032
      26     H     0.44838  0.44838  0.00000  0.10324
      27     H     0.45582  0.45582  0.00000  0.08836

   Total alpha = 37.00000, Total beta = 37.00000, Total charge = -0.00000

*** Psi4 exiting successfully. Buy a developer a beer!
