  ==> Input File <==

--------------------------------------------------------------------------
set {
	reference rhf
	basis 6-31G*
}

set_num_threads( 4 )
memory 2 gb

molecule MOL {
0 1

H	 -4.372233	 0.491658	 -1.051670
O	 -3.452007	 0.283848	 -0.965577
C	 -3.181085	 -0.079926	 0.364119
C	 -1.765924	 0.277073	 0.805136
H	 -3.327791	 -1.152017	 0.410903
H	 -3.905698	 0.375695	 1.036898
C	 -0.677594	 -0.417312	 -0.014550
H	 -1.637766	 1.358238	 0.744969
H	 -1.659588	 0.017670	 1.857098
C	 0.738335	 -0.034840	 0.421385
H	 -0.814977	 -0.178223	 -1.064632
H	 -0.802730	 -1.495410	 0.071702
C	 1.822265	 -0.738362	 -0.399735
H	 0.853533	 1.043532	 0.342250
H	 0.871597	 -0.279636	 1.474438
C	 3.258060	 -0.455774	 0.057203
H	 1.718003	 -0.459167	 -1.447053
H	 1.651028	 -1.811884	 -0.354513
C	 3.709143	 0.994797	 -0.123830
H	 3.930637	 -1.101717	 -0.501982
H	 3.365259	 -0.739518	 1.102287
H	 3.601178	 1.310569	 -1.158127
H	 4.753787	 1.110486	 0.148516
H	 3.135362	 1.678896	 0.492569

	symmetry c1
}
set optking {
	frozen_dihedral = ("
		1 2 3 5
	")
}

ee = optimize('scf')
oeprop('DIPOLE', 'QUADRUPOLE', 'MULLIKEN_CHARGES')
f=open( 'psi4out.xyz', 'w' )
f.write( "24  " )
f.write( str(ee) + "\n" )
f.write( MOL.save_string_xyz() )
f.close()
--------------------------------------------------------------------------

    Molecular point group: c1
  Charge       = 0
  Multiplicity = 1
  Basis Set: 6-31G*
  Basis Set:
  @DF-RHF Final Energy:  -349.24509131674330
    Total Energy =                       -349.2450913167429576
    Molecular point group: c1
  Basis Set: 6-31G*
  Basis Set:
  Basis Set: 6-31G*
  Basis Set:
  @DF-RHF Final Energy:  -349.24630004174446
    Total Energy =                       -349.2463000417446892
  Basis Set: 6-31G*
  Basis Set:
  Basis Set: 6-31G*
  Basis Set:
  @DF-RHF Final Energy:  -349.24654047103860
    Total Energy =                       -349.2465404710388839
  Basis Set: 6-31G*
  Basis Set:
  Basis Set: 6-31G*
  Basis Set:
  @DF-RHF Final Energy:  -349.24654534980777
    Total Energy =                       -349.2465453498080024
  Basis Set: 6-31G*
  Basis Set:
  Basis Set: 6-31G*
  Basis Set:
  @DF-RHF Final Energy:  -349.24655449302912
    Total Energy =                       -349.2465544930292367
  Basis Set: 6-31G*
  Basis Set:
  Charge       = 0
  Multiplicity = 1
  Basis Set: 6-31G*
  Basis Set:

    Orbital Energies (a.u.)
    -----------------------

    Doubly Occupied:

       1A    -20.551973     2A    -11.267952     3A    -11.211255
       4A    -11.211120     5A    -11.208251     6A    -11.207530
       7A    -11.205555     8A    -11.204391     9A     -1.358560
      10A     -1.084507    11A     -1.045402    12A     -0.983439
      13A     -0.911540    14A     -0.843213    15A     -0.789000
      16A     -0.772566    17A     -0.702120    18A     -0.648184
      19A     -0.628281    20A     -0.610008    21A     -0.584221
      22A     -0.574927    23A     -0.555780    24A     -0.528865
      25A     -0.524916    26A     -0.502884    27A     -0.487639
      28A     -0.483431    29A     -0.465943    30A     -0.453673
      31A     -0.449429    32A     -0.431010    33A     -0.428019

  @DF-RHF Final Energy:  -349.24655518860914

   => Energetics <=

    Nuclear Repulsion Energy =            384.7093850210301298
    One-Electron Energy =               -1236.0807056964827098
    Two-Electron Energy =                 502.1247654868436712
    DFT Exchange-Correlation Energy =       0.0000000000000000
    Empirical Dispersion Energy =           0.0000000000000000
    PCM Polarization Energy =               0.0000000000000000
    EFP Energy =                            0.0000000000000000
    Total Energy =                       -349.2465551886089088
    Molecular point group: c1
  Basis Set: 6-31G*
  Basis Set:

  -Total Gradient:
     Atom            X                  Y                   Z
    ------   -----------------  -----------------  -----------------
       1        0.000340208086     0.001783435053     0.000489133751
       2       -0.000014633401    -0.002255495303    -0.000660540363
       3       -0.001870540310     0.000630388826     0.000469612898
       4       -0.000023793126     0.000001527207     0.000084472552
       5        0.001558388288    -0.000204094495    -0.000309213456
       6        0.000037385987     0.000002257835    -0.000011016765
       7       -0.000031202611     0.000008533879    -0.000052392754
       8       -0.000009714475     0.000014223422    -0.000003158749
       9       -0.000006163991     0.000024006286    -0.000004321359
      10       -0.000002580240    -0.000004146946     0.000013253058
      11        0.000015133762     0.000009188629    -0.000012349836
      12        0.000003995620     0.000006749280    -0.000008625005
      13        0.000004935607    -0.000015007216     0.000009253238
      14        0.000004068919    -0.000003904374    -0.000008788432
      15       -0.000004780450     0.000009332522     0.000005158053
      16        0.000002661046    -0.000003868641    -0.000003958883
      17       -0.000002630453    -0.000000182537     0.000004603522
      18        0.000003564543    -0.000003688176    -0.000001140490
      19       -0.000001557927    -0.000000643827     0.000000259897
      20        0.000001736634     0.000000866894    -0.000000244020
      21       -0.000000615926    -0.000000652590    -0.000001624816
      22       -0.000000003425    -0.000000138977    -0.000000126779
      23       -0.000000822213     0.000000099856     0.000000238957
      24       -0.000003039943     0.000001213392     0.000001515785

  **** Optimization is complete! (in 6 steps) ****
    Final optimized geometry and variables:
    Molecular point group: c1

    Geometry (in Angstrom), charge = 0, multiplicity = 1:

    H           -4.288331142189     0.521800287527    -1.097676357200
    O           -3.378675217370     0.305855198277    -0.957520897646
    C           -3.178419755328    -0.090325970284     0.378223214046
    C           -1.767019910511     0.280293808161     0.805326500945
    H           -3.316359902715    -1.166160004265     0.470195586922
    H           -3.897648912293     0.394675267474     1.033824274324
    C           -0.681685326600    -0.414633924154    -0.018540849924
    H           -1.655723778673     1.358684237408     0.726558348693
    H           -1.650803829998     0.023813019684     1.857100838254
    C            0.733905271372    -0.032646530275     0.418977989349
    H           -0.819348398783    -0.168453272930    -1.066507895692
    H           -0.805819172833    -1.493455461175     0.064736246645
    C            1.818687540823    -0.731758643599    -0.404761419453
    H            0.847101920356     1.045904202430     0.343168625328
    H            0.867738724803    -0.281216561219     1.471273002680
    C            3.254365623855    -0.447320058953     0.051448903046
    H            1.712790435283    -0.449946201707    -1.451129517355
    H            1.650026728504    -1.805955498801    -0.362323152778
    C            3.702079085619     1.004643603346    -0.126706691327
    H            3.928021618958    -1.090569452189    -0.509656124074
    H            3.363037262831    -0.733049193973     1.095908032488
    H            3.592531603966     1.322405495607    -1.160183263560
    H            4.746714729463     1.122183521150     0.145214267062
    H            3.126832206569     1.685941750782     0.491294948329

  Mulliken Charges: (a.u.)
   Center  Symbol    Alpha    Beta     Spin     Total
       1     H     0.27978  0.27978  0.00000  0.44044
       2     O     4.37137  4.37137  0.00000 -0.74273
       3     C     2.99803  2.99803  0.00000  0.00393
       4     C     3.15783  3.15783  0.00000 -0.31566
       5     H     0.42935  0.42935  0.00000  0.14129
       6     H     0.42986  0.42986  0.00000  0.14028
       7     C     3.15448  3.15448  0.00000 -0.30896
       8     H     0.41831  0.41831  0.00000  0.16337
       9     H     0.42538  0.42538  0.00000  0.14923
      10     C     3.15390  3.15390  0.00000 -0.30779
      11     H     0.40712  0.40712  0.00000  0.18576
      12     H     0.42635  0.42635  0.00000  0.14730
      13     C     3.15211  3.15211  0.00000 -0.30422
      14     H     0.42157  0.42157  0.00000  0.15685
      15     H     0.42665  0.42665  0.00000  0.14670
      16     C     3.15210  3.15210  0.00000 -0.30420
      17     H     0.42338  0.42338  0.00000  0.15324
      18     H     0.42301  0.42301  0.00000  0.15398
      19     C     3.24090  3.24090  0.00000 -0.48180
      20     H     0.42174  0.42174  0.00000  0.15652
      21     H     0.42425  0.42425  0.00000  0.15151
      22     H     0.42213  0.42213  0.00000  0.15574
      23     H     0.42022  0.42022  0.00000  0.15956
      24     H     0.42018  0.42018  0.00000  0.15964

   Total alpha = 33.00000, Total beta = 33.00000, Total charge = -0.00000
