  ==> Input File <==

--------------------------------------------------------------------------
set {
	reference rhf
	basis cc-pvtz
}

set_num_threads( 4 )
memory 2 gb

molecule MOL {
0 1

H	 3.273419	 0.176595	 -0.102789
N	 2.433987	 -0.362316	 -0.080024
C	 1.263552	 0.494993	 0.021953
H	 2.497638	 -0.973615	 0.707122
C	 -0.016533	 -0.325589	 -0.026925
H	 1.280915	 1.180773	 -0.818522
H	 1.263064	 1.106893	 0.925038
C	 -1.280353	 0.525521	 0.047747
H	 -0.016686	 -0.912532	 -0.939714
H	 -0.014099	 -1.037598	 0.796369
C	 -1.134001	 1.731389	 0.969948
H	 -2.107661	 -0.089909	 0.390926
H	 -1.547879	 0.866338	 -0.948821
H	 -0.899389	 1.422327	 1.982947
H	 -2.048103	 2.312906	 1.004646
H	 -0.337660	 2.386887	 0.633279

	symmetry c1
}
set optking {
	frozen_dihedral = ("
		12 8 5 9
	")
}

ee = optimize('scf')
oeprop('DIPOLE', 'QUADRUPOLE', 'MULLIKEN_CHARGES')
f=open( 'psi4out.xyz', 'w' )
f.write( "16  " )
f.write( str(ee) + "\n" )
f.write( MOL.save_string_xyz() )
f.close()
--------------------------------------------------------------------------

    Molecular point group: c1
  Charge       = 0
  Multiplicity = 1
  Basis Set: CC-PVTZ
  Basis Set:
  @DF-RHF Final Energy:  -212.39308802682027
    Total Energy =                       -212.3930880268204078
    Molecular point group: c1
  Basis Set: CC-PVTZ
  Basis Set:
  Basis Set: CC-PVTZ
  Basis Set:
  @DF-RHF Final Energy:  -212.39406748996677
    Total Energy =                       -212.3940674899669148
  Basis Set: CC-PVTZ
  Basis Set:
  Basis Set: CC-PVTZ
  Basis Set:
  @DF-RHF Final Energy:  -212.39545593762898
    Total Energy =                       -212.3954559376289808
  Basis Set: CC-PVTZ
  Basis Set:
  Basis Set: CC-PVTZ
  Basis Set:
  @DF-RHF Final Energy:  -212.39559713696414
    Total Energy =                       -212.3955971369640565
  Basis Set: CC-PVTZ
  Basis Set:
  Basis Set: CC-PVTZ
  Basis Set:
  @DF-RHF Final Energy:  -212.39560825088029
    Total Energy =                       -212.3956082508804570
  Basis Set: CC-PVTZ
  Basis Set:
  Basis Set: CC-PVTZ
  Basis Set:
  @DF-RHF Final Energy:  -212.39561203595366
    Total Energy =                       -212.3956120359537181
  Basis Set: CC-PVTZ
  Basis Set:
  Charge       = 0
  Multiplicity = 1
  Basis Set: CC-PVTZ
  Basis Set:

    Orbital Energies (a.u.)
    -----------------------

    Doubly Occupied:

       1A    -15.526062     2A    -11.237101     3A    -11.213723
       4A    -11.208476     5A    -11.206473     6A     -1.177852
       7A     -1.058401     8A     -0.955057     9A     -0.862001
      10A     -0.776312    11A     -0.655819    12A     -0.642208
      13A     -0.622713    14A     -0.571114    15A     -0.553380
      16A     -0.535787    17A     -0.508862    18A     -0.467159
      19A     -0.463547    20A     -0.456472    21A     -0.383318

  @DF-RHF Final Energy:  -212.39561263573196

   => Energetics <=

    Nuclear Repulsion Energy =            189.4168019889715140
    One-Electron Energy =                -661.4611629364674172
    Two-Electron Energy =                 259.6487483117638817
    DFT Exchange-Correlation Energy =       0.0000000000000000
    Empirical Dispersion Energy =           0.0000000000000000
    PCM Polarization Energy =               0.0000000000000000
    EFP Energy =                            0.0000000000000000
    Total Energy =                       -212.3956126357319931
    Molecular point group: c1
  Basis Set: CC-PVTZ
  Basis Set:

  -Total Gradient:
     Atom            X                  Y                   Z
    ------   -----------------  -----------------  -----------------
       1        0.000001461680     0.000001967872    -0.000006103122
       2       -0.000000220226    -0.000019905584     0.000003843020
       3       -0.000001540101     0.000017527028     0.000002766467
       4        0.000005893089     0.000000329085     0.000001628396
       5       -0.003013452884    -0.004525324674     0.004273140460
       6       -0.000007034717     0.000006108104    -0.000001910806
       7       -0.000010627864    -0.000008356064    -0.000003029913
       8       -0.000568633703    -0.000803018161    -0.006787534554
       9        0.002629050570     0.003941337767    -0.002557141641
      10        0.000002460199    -0.000003621129    -0.000001377670
      11        0.000005147628    -0.000004306389     0.000004448636
      12        0.000962369842     0.001400975706     0.005073834439
      13       -0.000008472403     0.000000185576    -0.000001104421
      14       -0.000004367354    -0.000000735246     0.000003935853
      15       -0.000000085989    -0.000000471889    -0.000004944403
      16        0.000008052231    -0.000002692001    -0.000000450741

  **** Optimization is complete! (in 7 steps) ****
    Final optimized geometry and variables:
    Molecular point group: c1

    Geometry (in Angstrom), charge = 0, multiplicity = 1:

    H            3.012898289998    -0.333768703781    -0.379427081225
    N            2.151182195211    -0.836826012504    -0.361358822539
    C            1.025458018524     0.063478614490    -0.157145517139
    H            2.214835258233    -1.499588347254     0.383334979192
    C           -0.282444815172    -0.721405854620    -0.161114508830
    H            1.019453631475     0.775950239641    -0.976259943499
    H            1.114646336787     0.640011874153     0.761090168066
    C           -1.557724186043     0.133531873756    -0.155748656512
    H           -0.264741298467    -1.321434040817    -1.063680072856
    H           -0.288253409654    -1.400574591864     0.687509787124
    C           -1.531439143532     1.348730077584     0.773101288205
    H           -2.381206994950    -0.492554747374     0.172063054887
    H           -1.781215170759     0.462327482418    -1.165103527153
    H           -1.300241434450     1.060247855724     1.793631073581
    H           -2.499980068491     1.835587216737     0.782224671386
    H           -0.800266431824     2.085737309394     0.464218526490

  Mulliken Charges: (a.u.)
   Center  Symbol    Alpha    Beta     Spin     Total
       1     H     0.43009  0.43009  0.00000  0.13982
       2     N     3.69143  3.69143  0.00000 -0.38285
       3     C     3.02688  3.02688  0.00000 -0.05377
       4     H     0.43097  0.43097  0.00000  0.13806
       5     C     3.09128  3.09128  0.00000 -0.18256
       6     H     0.45628  0.45628  0.00000  0.08744
       7     H     0.46478  0.46478  0.00000  0.07044
       8     C     3.09217  3.09217  0.00000 -0.18434
       9     H     0.44546  0.44546  0.00000  0.10909
      10     H     0.45767  0.45767  0.00000  0.08466
      11     C     3.15815  3.15815  0.00000 -0.31630
      12     H     0.45074  0.45074  0.00000  0.09852
      13     H     0.45103  0.45103  0.00000  0.09794
      14     H     0.45443  0.45443  0.00000  0.09115
      15     H     0.44539  0.44539  0.00000  0.10922
      16     H     0.45325  0.45325  0.00000  0.09350

   Total alpha = 21.00000, Total beta = 21.00000, Total charge = -0.00000
