                              Psi4 1.0.54 Driver

  ==> Input File <==

--------------------------------------------------------------------------
set {
	reference rhf
	basis cc-pvtz
}

set_num_threads( 4 )
memory 2 gb

molecule MOL {
0 1

H	 -4.268579	 -1.921720	 0.027683
C	 -3.460025	 -1.290672	 0.334812
C	 -2.255551	 -1.513136	 -0.131126
H	 -3.659647	 -0.488405	 1.017686
O	 -1.189946	 -0.765863	 0.237511
H	 -2.045870	 -2.308953	 -0.822383
C	 0.026572	 -0.995256	 -0.379403
C	 1.057223	 0.049888	 -0.004615
H	 -0.054361	 -1.010670	 -1.459674
H	 0.397526	 -1.952058	 -0.044198
F	 2.203233	 -0.234060	 -0.590375
F	 0.698147	 1.254887	 -0.392621
F	 1.266440	 0.094219	 1.288722

	symmetry c1
}
set optking {
	frozen_dihedral = ("
		3 5 7 9
	")
}

ee,wfn = optimize('scf', return_wfn=True)
oeprop( wfn, 'DIPOLE', 'QUADRUPOLE', 'MULLIKEN_CHARGES')
f=open( 'psi4out.xyz', 'w' )
f.write( "13  " )
f.write( str(ee) + "\n" )
f.write( MOL.save_string_xyz() )
f.close()
--------------------------------------------------------------------------

    Molecular point group: c1
  Charge       = 0
  Multiplicity = 1
  Basis Set: CC-PVTZ
  Basis Set:
  @DF-RHF Final Energy:  -527.74019566118955
    Total Energy =                       -527.7401956611897731
    Molecular point group: c1
  Basis Set: CC-PVTZ
  Basis Set:
  Basis Set: CC-PVTZ
  Basis Set:
  @DF-RHF Final Energy:  -527.74133349631313
    Total Energy =                       -527.7413334963129046
  Basis Set: CC-PVTZ
  Basis Set:
  Basis Set: CC-PVTZ
  Basis Set:
  @DF-RHF Final Energy:  -527.74160775014866
    Total Energy =                       -527.7416077501491145
  Basis Set: CC-PVTZ
  Basis Set:
  Basis Set: CC-PVTZ
  Basis Set:
  @DF-RHF Final Energy:  -527.74162527090300
    Total Energy =                       -527.7416252709028868
  Basis Set: CC-PVTZ
  Basis Set:
  @DF-RHF Final Energy:  -527.74164140911171
    Total Energy =                       -527.7416414091118213
  @DF-RHF Final Energy:  -527.74163442676718
    Total Energy =                       -527.7416344267671775
  @DF-RHF Final Energy:  -527.74176101927765
    Total Energy =                       -527.7417610192774191
  @DF-RHF Final Energy:  -527.74178534165185
    Total Energy =                       -527.7417853416518483
  Basis Set: CC-PVTZ
  Basis Set:
  @DF-RHF Final Energy:  -527.74182595429556
    Total Energy =                       -527.7418259542955639
  Basis Set: CC-PVTZ
  Basis Set:
  Basis Set: CC-PVTZ
  Basis Set:
  @DF-RHF Final Energy:  -527.74187292434385
    Total Energy =                       -527.7418729243436246
  Basis Set: CC-PVTZ
  Basis Set:
  Basis Set: CC-PVTZ
  Basis Set:
  @DF-RHF Final Energy:  -527.74188055145703
    Total Energy =                       -527.7418805514571432
  Basis Set: CC-PVTZ
  Basis Set:
  Charge       = 0
  Multiplicity = 1
  Basis Set: CC-PVTZ
  Basis Set:

    Orbital Energies (a.u.)
    -----------------------

    Doubly Occupied:

       1A    -26.339621     2A    -26.336322     3A    -26.336080
       4A    -20.602631     5A    -11.498275     6A    -11.319215
       7A    -11.300708     8A    -11.219763     9A     -1.748468
      10A     -1.644431    11A     -1.642996    12A     -1.445340
      13A     -1.090939    14A     -1.020131    15A     -0.929557
      16A     -0.844691    17A     -0.838143    18A     -0.811912
      19A     -0.803201    20A     -0.729400    21A     -0.720314
      22A     -0.705545    23A     -0.685660    24A     -0.664753
      25A     -0.659121    26A     -0.648045    27A     -0.645612
      28A     -0.587732    29A     -0.562747    30A     -0.531489
      31A     -0.511990    32A     -0.363149

  @DF-RHF Final Energy:  -527.74188077030044

   => Energetics <=

    Nuclear Repulsion Energy =            407.7731149643631738
    One-Electron Energy =               -1539.4540350177949222
    Two-Electron Energy =                 603.9390392831313648
    DFT Exchange-Correlation Energy =       0.0000000000000000
    Empirical Dispersion Energy =           0.0000000000000000
    PCM Polarization Energy =               0.0000000000000000
    EFP Energy =                            0.0000000000000000
    Total Energy =                       -527.7418807703003267
    Molecular point group: c1
  Basis Set: CC-PVTZ
  Basis Set:

  -Total Gradient:
     Atom            X                  Y                   Z
    ------   -----------------  -----------------  -----------------
       1        0.000003946887    -0.000026484223     0.000014231336
       2       -0.000027673689    -0.000003651469     0.000011913978
       3       -0.000033102896     0.000196654114    -0.000154680003
       4        0.000003212495    -0.000018200521    -0.000023272357
       5        0.000013273370    -0.000225355527     0.000107148498
       6       -0.000019734167    -0.000021997784     0.000052374494
       7        0.000113736672     0.000167978261    -0.000026045221
       8       -0.000031669091     0.000075206211    -0.000010339030
       9       -0.000065357120    -0.000136342171     0.000037161318
      10       -0.000031528166     0.000027871028    -0.000015567516
      11       -0.000007823298     0.000052288818     0.000007830695
      12        0.000066711388    -0.000095874095     0.000055374357
      13        0.000016007601     0.000007907358    -0.000056130554

  **** Optimization is complete! (in 12 steps) ****
    Final optimized geometry and variables:
    Molecular point group: c1

    Geometry (in Angstrom), charge = 0, multiplicity = 1:

    H           -4.185077980929    -1.597148312181    -0.014959308744
    C           -3.343728389207    -1.069030378940     0.385117242099
    C           -2.237101284291    -0.989803540572    -0.312779885519
    H           -3.434998029070    -0.601822696744     1.345954324268
    O           -1.161211996985    -0.290614754000     0.109248486658
    H           -2.133477739698    -1.454608798915    -1.277985865972
    C            0.069016899144    -0.688478631433    -0.385830048030
    C            1.088709651878     0.368829740519    -0.034264946571
    H            0.058172509089    -0.787383611698    -1.465556185450
    H            0.395488217315    -1.624783206239     0.052430571644
    F            2.268796137076     0.000530463333    -0.493284795972
    F            0.797198065446     1.530830460848    -0.568463067357
    F            1.198753115757     0.537410999794     1.261576807598

  Mulliken Charges: (a.u.)
   Center  Symbol    Alpha    Beta     Spin     Total
       1     H     0.42494  0.42494  0.00000  0.15013
       2     C     3.18707  3.18707  0.00000 -0.37413
       3     C     2.97011  2.97011  0.00000  0.05978
       4     H     0.42280  0.42280  0.00000  0.15440
       5     O     4.14059  4.14059  0.00000 -0.28117
       6     H     0.43668  0.43668  0.00000  0.12663
       7     C     3.00098  3.00098  0.00000 -0.00195
       8     C     2.67297  2.67297  0.00000  0.65405
       9     H     0.45990  0.45990  0.00000  0.08019
      10     H     0.45733  0.45733  0.00000  0.08534
      11     F     4.61247  4.61247  0.00000 -0.22494
      12     F     4.60727  4.60727  0.00000 -0.21454
      13     F     4.60689  4.60689  0.00000 -0.21378

   Total alpha = 32.00000, Total beta = 32.00000, Total charge = -0.00000

*** Psi4 exiting successfully. Buy a developer a beer!
