  ==> Input File <==

--------------------------------------------------------------------------
set {
	reference rhf
	basis 6-31G*
}

set_num_threads( 4 )
memory 2 gb

molecule MOL {
0 1

H	 -3.261111	 -0.295142	 1.469456
C	 -3.306842	 -0.277400	 0.373456
C	 -2.660244	 0.921717	 -0.272021
O	 -3.838538	 -1.161155	 -0.216482
C	 -1.190137	 1.088988	 0.136708
H	 -2.767302	 0.831009	 -1.346740
H	 -3.222535	 1.798584	 0.046707
C	 -0.281181	 -0.027510	 -0.383418
H	 -0.836199	 2.045488	 -0.236281
H	 -1.120851	 1.143133	 1.222076
C	 1.182442	 0.158202	 0.021714
H	 -0.355185	 -0.070396	 -1.468099
H	 -0.634390	 -0.990548	 -0.019630
C	 2.091257	 -0.951493	 -0.513620
H	 1.526487	 1.125680	 -0.335149
H	 1.254710	 0.188763	 1.108097
C	 3.553643	 -0.852844	 -0.064436
H	 2.049790	 -0.957432	 -1.601709
H	 1.695139	 -1.911829	 -0.190267
C	 4.304071	 0.365159	 -0.605683
H	 4.072631	 -1.752364	 -0.386094
H	 3.597148	 -0.850635	 1.022773
H	 4.263324	 0.397846	 -1.691288
H	 3.891969	 1.296117	 -0.230901
H	 5.349993	 0.332968	 -0.315842

	symmetry c1
}
set optking {
	frozen_dihedral = ("
		6 3 2 4
	")
}

ee = optimize('scf')
oeprop('DIPOLE', 'QUADRUPOLE', 'MULLIKEN_CHARGES')
f=open( 'psi4out.xyz', 'w' )
f.write( "25  " )
f.write( str(ee) + "\n" )
f.write( MOL.save_string_xyz() )
f.close()
--------------------------------------------------------------------------

    Molecular point group: c1
  Charge       = 0
  Multiplicity = 1
  Basis Set: 6-31G*
  Basis Set:
  @DF-RHF Final Energy:  -387.12203786970622
    Total Energy =                       -387.1220378697065598
    Molecular point group: c1
  Basis Set: 6-31G*
  Basis Set:
  Basis Set: 6-31G*
  Basis Set:
  @DF-RHF Final Energy:  -387.12197546082012
    Total Energy =                       -387.1219754608202948
  Basis Set: 6-31G*
  Basis Set:
  Basis Set: 6-31G*
  Basis Set:
  @DF-RHF Final Energy:  -387.12203915951176
    Total Energy =                       -387.1220391595119281
  Basis Set: 6-31G*
  Basis Set:
  Basis Set: 6-31G*
  Basis Set:
  @DF-RHF Final Energy:  -387.12204212204921
    Total Energy =                       -387.1220421220492653
  Basis Set: 6-31G*
  Basis Set:
  Basis Set: 6-31G*
  Basis Set:
  @DF-RHF Final Energy:  -387.12203786875517
    Total Energy =                       -387.1220378687546599
  Basis Set: 6-31G*
  Basis Set:
  Basis Set: 6-31G*
  Basis Set:
  @DF-RHF Final Energy:  -387.12204260081381
    Total Energy =                       -387.1220426008140976
  Basis Set: 6-31G*
  Basis Set:
  Charge       = 0
  Multiplicity = 1
  Basis Set: 6-31G*
  Basis Set:

    Orbital Energies (a.u.)
    -----------------------

    Doubly Occupied:

       1A    -20.562145     2A    -11.326141     3A    -11.235507
       4A    -11.234683     5A    -11.223427     6A    -11.219571
       7A    -11.217821     8A    -11.216703     9A    -11.210535
      10A     -1.402017    11A     -1.103694    12A     -1.069496
      13A     -1.013232    14A     -0.942418    15A     -0.875192
      16A     -0.820244    17A     -0.787861    18A     -0.780984
      19A     -0.665207    20A     -0.662305    21A     -0.632737
      22A     -0.625058    23A     -0.600306    24A     -0.594173
      25A     -0.576321    26A     -0.549487    27A     -0.535886
      28A     -0.524272    29A     -0.508457    30A     -0.494841
      31A     -0.491605    32A     -0.479228    33A     -0.464404
      34A     -0.458705    35A     -0.441014    36A     -0.409561

  @DF-RHF Final Energy:  -387.12204236381541

   => Energetics <=

    Nuclear Repulsion Energy =            439.4107168036038615
    One-Electron Energy =               -1395.1550448757752747
    Two-Electron Energy =                 568.6222857083555482
    DFT Exchange-Correlation Energy =       0.0000000000000000
    Empirical Dispersion Energy =           0.0000000000000000
    PCM Polarization Energy =               0.0000000000000000
    EFP Energy =                            0.0000000000000000
    Total Energy =                       -387.1220423638158081
    Molecular point group: c1
  Basis Set: 6-31G*
  Basis Set:

  -Total Gradient:
     Atom            X                  Y                   Z
    ------   -----------------  -----------------  -----------------
       1       -0.000067382810     0.000038288858    -0.000000391101
       2       -0.000203171970     0.000082410132     0.000034917067
       3        0.000330497969    -0.000187698009    -0.000036860610
       4        0.000170571254    -0.000062397360    -0.000009784524
       5       -0.000007386981     0.000010796112     0.000008049993
       6       -0.000212584656     0.000131053676     0.000011420250
       7        0.000001671347    -0.000008923612    -0.000002044571
       8       -0.000001473611     0.000025023637    -0.000029486298
       9        0.000013565358    -0.000021936268     0.000003418039
      10       -0.000015180291     0.000006109451     0.000017257336
      11       -0.000007611908    -0.000023286675     0.000017861555
      12       -0.000005812455    -0.000011952376    -0.000000500521
      13        0.000007274321    -0.000007562589     0.000008593482
      14        0.000005404289     0.000035295975    -0.000045055341
      15       -0.000027943030    -0.000020209580    -0.000014650753
      16        0.000012593356     0.000011013006     0.000012710402
      17       -0.000017540024     0.000028932051     0.000061273743
      18        0.000002203050     0.000011064695    -0.000018752617
      19       -0.000005232206    -0.000001877752    -0.000004129311
      20       -0.000010187169    -0.000011440369    -0.000001302789
      21       -0.000004679068    -0.000001172642    -0.000001146219
      22        0.000014895993     0.000010412913     0.000000561314
      23       -0.000005178868     0.000003668733    -0.000018393093
      24        0.000016349295    -0.000027215393    -0.000003771909
      25        0.000016338823    -0.000008396617     0.000010206474

  **** Optimization is complete! (in 7 steps) ****
    Final optimized geometry and variables:
    Molecular point group: c1

    Geometry (in Angstrom), charge = 0, multiplicity = 1:

    H           -3.251339654708    -0.200903999564     1.646535109108
    C           -3.296326941063    -0.188877518509     0.550369346268
    C           -2.650945095049     1.007907280877    -0.100077938849
    O           -3.826311721452    -1.076772163855    -0.035065042466
    C           -1.180030872533     1.173376632553     0.309590895242
    H           -2.756379987050     0.912473930039    -1.174557220377
    H           -3.210561602084     1.887494531707     0.214966436072
    C           -0.270460858202     0.058627199295    -0.213153041696
    H           -0.826288049532     2.131277189211    -0.060438468695
    H           -1.111293885570     1.224444788838     1.395015906882
    C            1.194107174716     0.248352588597     0.186813414071
    H           -0.347722759585     0.016346624134    -1.297625550188
    H           -0.620377934272    -0.905249996866     0.151130146349
    C            2.103152468078    -0.861926675180    -0.347001734344
    H            1.535873916824     1.215317407431    -0.173592092956
    H            1.269277300055     0.282082129953     1.272834760429
    C            3.564103186179    -0.766438060742     0.107415839936
    H            2.065818907414    -0.865467512866    -1.435168754747
    H            1.704266258704    -1.822271531082    -0.027255443467
    C            4.318788153322     0.451125789995    -0.429402178926
    H            4.082615099171    -1.666618718517    -0.213009047786
    H            3.603233579069    -0.765518758887     1.194867320193
    H            4.285785281580     0.483033695200    -1.515200027934
    H            3.904646069171     1.382714223829    -0.058170422148
    H            5.362554576509     0.418786724645    -0.132465563938

  Mulliken Charges: (a.u.)
   Center  Symbol    Alpha    Beta     Spin     Total
       1     H     0.43260  0.43260  0.00000  0.13479
       2     C     2.83105  2.83105  0.00000  0.33789
       3     C     3.20767  3.20767  0.00000 -0.41533
       4     O     4.23751  4.23751  0.00000 -0.47502
       5     C     3.16661  3.16661  0.00000 -0.33323
       6     H     0.39982  0.39982  0.00000  0.20035
       7     H     0.40758  0.40758  0.00000  0.18484
       8     C     3.15471  3.15471  0.00000 -0.30943
       9     H     0.41283  0.41283  0.00000  0.17433
      10     H     0.41954  0.41954  0.00000  0.16091
      11     C     3.15426  3.15426  0.00000 -0.30853
      12     H     0.41804  0.41804  0.00000  0.16393
      13     H     0.41767  0.41767  0.00000  0.16466
      14     C     3.15309  3.15309  0.00000 -0.30618
      15     H     0.42094  0.42094  0.00000  0.15812
      16     H     0.42388  0.42388  0.00000  0.15225
      17     C     3.15276  3.15276  0.00000 -0.30552
      18     H     0.42300  0.42300  0.00000  0.15401
      19     H     0.42054  0.42054  0.00000  0.15891
      20     C     3.24133  3.24133  0.00000 -0.48267
      21     H     0.41997  0.41997  0.00000  0.16006
      22     H     0.42329  0.42329  0.00000  0.15342
      23     H     0.42189  0.42189  0.00000  0.15621
      24     H     0.42070  0.42070  0.00000  0.15861
      25     H     0.41870  0.41870  0.00000  0.16261

   Total alpha = 36.00000, Total beta = 36.00000, Total charge = -0.00000
