  ==> Input File <==

--------------------------------------------------------------------------
set {
	reference rhf
	basis cc-pvtz
}

set_num_threads( 4 )
memory 2 gb

molecule MOL {
0 1

O	 0.074770	 1.259872	 0.000487
C	 0.029490	 0.077183	 0.000078
C	 -1.232113	 -0.748027	 0.000015
O	 1.106773	 -0.690081	 -0.000204
C	 -2.501422	 0.088592	 -0.000052
H	 -1.188777	 -1.400384	 -0.865133
H	 -1.188857	 -1.400312	 0.865225
H	 -2.548170	 0.725504	 -0.873205
H	 -3.371613	 -0.556398	 -0.000040
H	 -2.548215	 0.725571	 0.873047
C	 1.270999	 -1.577640	 -1.087821
H	 0.447419	 -2.274294	 -1.139049
H	 2.193450	 -2.104592	 -0.905527
H	 1.330309	 -1.033072	 -2.018505

	symmetry c1
}
set optking {
	frozen_dihedral = ("
		11 4 2 3
	")
}

ee = optimize('scf')
oeprop('DIPOLE', 'QUADRUPOLE', 'MULLIKEN_CHARGES')
f=open( 'psi4out.xyz', 'w' )
f.write( "14  " )
f.write( str(ee) + "\n" )
f.write( MOL.save_string_xyz() )
f.close()
--------------------------------------------------------------------------

    Molecular point group: c1
  Charge       = 0
  Multiplicity = 1
  Basis Set: CC-PVTZ
  Basis Set:
  @DF-RHF Final Energy:  -305.96347735159361
    Total Energy =                       -305.9634773515936104
    Molecular point group: c1
  Basis Set: CC-PVTZ
  Basis Set:
  Basis Set: CC-PVTZ
  Basis Set:
  @DF-RHF Final Energy:  -305.96577267293856
    Total Energy =                       -305.9657726729384422
  Basis Set: CC-PVTZ
  Basis Set:
  Basis Set: CC-PVTZ
  Basis Set:
  @DF-RHF Final Energy:  -305.96812267143247
    Total Energy =                       -305.9681226714324112
  Basis Set: CC-PVTZ
  Basis Set:
  Basis Set: CC-PVTZ
  Basis Set:
  @DF-RHF Final Energy:  -305.96795189261394
    Total Energy =                       -305.9679518926142237
  Basis Set: CC-PVTZ
  Basis Set:
  Basis Set: CC-PVTZ
  Basis Set:
  @DF-RHF Final Energy:  -305.96839795414843
    Total Energy =                       -305.9683979541483154
  Basis Set: CC-PVTZ
  Basis Set:
  Basis Set: CC-PVTZ
  Basis Set:
  @DF-RHF Final Energy:  -305.96841483758072
    Total Energy =                       -305.9684148375807808
  Basis Set: CC-PVTZ
  Basis Set:
  Charge       = 0
  Multiplicity = 1
  Basis Set: CC-PVTZ
  Basis Set:

    Orbital Energies (a.u.)
    -----------------------

    Doubly Occupied:

       1A    -20.583951     2A    -20.541297     3A    -11.367728
       4A    -11.292592     5A    -11.244014     6A    -11.218750
       7A     -1.463135     8A     -1.371080     9A     -1.063467
      10A     -0.980665    11A     -0.897270    12A     -0.768409
      13A     -0.704123    14A     -0.682194    15A     -0.676706
      16A     -0.629325    17A     -0.612884    18A     -0.560216
      19A     -0.548159    20A     -0.525901    21A     -0.513244
      22A     -0.493274    23A     -0.459620    24A     -0.438987

  @DF-RHF Final Energy:  -305.96841574485063

   => Energetics <=

    Nuclear Repulsion Energy =            247.3408616264861166
    One-Electron Energy =                -907.3445726207982034
    Two-Electron Energy =                 354.0352952494612850
    DFT Exchange-Correlation Energy =       0.0000000000000000
    Empirical Dispersion Energy =           0.0000000000000000
    PCM Polarization Energy =               0.0000000000000000
    EFP Energy =                            0.0000000000000000
    Total Energy =                       -305.9684157448508017
    Molecular point group: c1
  Basis Set: CC-PVTZ
  Basis Set:

  -Total Gradient:
     Atom            X                  Y                   Z
    ------   -----------------  -----------------  -----------------
       1        0.000032630452     0.000073379218     0.000008912444
       2        0.000884164826     0.000762710340    -0.004430050380
       3       -0.000108497050     0.000125079309     0.002481245807
       4       -0.002196849697    -0.002928770368     0.003339157386
       5        0.000024693330    -0.000013793564     0.000008389419
       6       -0.000016508470    -0.000044515335    -0.000006063171
       7        0.000002714367    -0.000000450899     0.000005411619
       8       -0.000000800348     0.000003439834    -0.000001498292
       9        0.000010827946    -0.000006686998    -0.000001357834
      10        0.000000053191     0.000000750638    -0.000004151455
      11        0.001376487753     0.001989955613    -0.001435270373
      12       -0.000021033393     0.000007231205     0.000025655704
      13        0.000007470336     0.000019484954     0.000012905562
      14        0.000004646755     0.000012186053    -0.000003286437

  **** Optimization is complete! (in 7 steps) ****
    Final optimized geometry and variables:
    Molecular point group: c1

    Geometry (in Angstrom), charge = 0, multiplicity = 1:

    O            0.253633946481     1.500934641214     0.188405387455
    C            0.192411974327     0.327582588555     0.135953932233
    C           -1.102960444688    -0.452175456072     0.133270533319
    O            1.314568383304    -0.411042185544     0.181953462036
    C           -2.335056330640     0.428997958144     0.267697950926
    H           -1.154575100548    -1.036021078434    -0.779815520596
    H           -1.040116191367    -1.170419423938     0.943968877301
    H           -2.399236816961     1.133971199225    -0.549913635551
    H           -3.230139929395    -0.181060566093     0.266276422436
    H           -2.307861121094     0.996043906245     1.188116978960
    C            1.583901795225    -1.337814260007    -0.842601121999
    H            0.924380528895    -2.195399498251    -0.795929396952
    H            2.598791475152    -1.668576215238    -0.693602057713
    H            1.505861178202    -0.871296570501    -1.817301393210

  Mulliken Charges: (a.u.)
   Center  Symbol    Alpha    Beta     Spin     Total
       1     O     4.16788  4.16788  0.00000 -0.33576
       2     C     2.79984  2.79984  0.00000  0.40033
       3     C     3.11514  3.11514  0.00000 -0.23029
       4     O     4.15071  4.15071  0.00000 -0.30142
       5     C     3.13870  3.13870  0.00000 -0.27740
       6     H     0.44698  0.44698  0.00000  0.10605
       7     H     0.43680  0.43680  0.00000  0.12640
       8     H     0.44717  0.44717  0.00000  0.10566
       9     H     0.45108  0.45108  0.00000  0.09784
      10     H     0.44570  0.44570  0.00000  0.10860
      11     C     3.04429  3.04429  0.00000 -0.08858
      12     H     0.46105  0.46105  0.00000  0.07790
      13     H     0.43678  0.43678  0.00000  0.12644
      14     H     0.45788  0.45788  0.00000  0.08423

   Total alpha = 24.00000, Total beta = 24.00000, Total charge = -0.00000
