  ==> Input File <==

--------------------------------------------------------------------------
set {
	reference rhf
	basis cc-pvtz
}

set_num_threads( 4 )
memory 2 gb

molecule MOL {
0 1

H	 -2.801171	 2.360405	 -0.155368
O	 -2.113218	 1.767264	 -0.394324
C	 -2.302264	 0.528872	 0.237390
C	 -1.175688	 -0.398187	 -0.171891
H	 -2.308144	 0.650032	 1.318620
H	 -3.259277	 0.097626	 -0.048937
C	 0.196029	 0.106276	 0.266738
H	 -1.201873	 -0.515469	 -1.250677
H	 -1.365975	 -1.378728	 0.252664
C	 1.330220	 -0.826136	 -0.155230
H	 0.359542	 1.097229	 -0.145561
H	 0.212134	 0.218135	 1.348778
C	 2.719700	 -0.407669	 0.328325
H	 1.339388	 -0.911200	 -1.239363
H	 1.119001	 -1.821953	 0.224128
C	 3.241564	 0.893452	 -0.276737
H	 3.418299	 -1.204729	 0.093035
H	 2.711776	 -0.323368	 1.411960
H	 3.254204	 0.841071	 -1.360784
H	 2.634460	 1.745075	 0.005842
H	 4.254264	 1.092401	 0.054971

	symmetry c1
}
set optking {
	frozen_dihedral = ("
		2 3 4 8
	")
}

ee = optimize('scf')
oeprop('DIPOLE', 'QUADRUPOLE', 'MULLIKEN_CHARGES')
f=open( 'psi4out.xyz', 'w' )
f.write( "21  " )
f.write( str(ee) + "\n" )
f.write( MOL.save_string_xyz() )
f.close()
--------------------------------------------------------------------------

    Molecular point group: c1
  Charge       = 0
  Multiplicity = 1
  Basis Set: CC-PVTZ
  Basis Set:
  @DF-RHF Final Energy:  -310.33293585485086
    Total Energy =                       -310.3329358548508026
    Molecular point group: c1
  Basis Set: CC-PVTZ
  Basis Set:
  Basis Set: CC-PVTZ
  Basis Set:
  @DF-RHF Final Energy:  -310.33304000506968
    Total Energy =                       -310.3330400050698472
  Basis Set: CC-PVTZ
  Basis Set:
  Basis Set: CC-PVTZ
  Basis Set:
  @DF-RHF Final Energy:  -310.33305145827893
    Total Energy =                       -310.3330514582788169
  Basis Set: CC-PVTZ
  Basis Set:
  Basis Set: CC-PVTZ
  Basis Set:
  @DF-RHF Final Energy:  -310.33305284189129
    Total Energy =                       -310.3330528418914014
  Basis Set: CC-PVTZ
  Basis Set:
  Charge       = 0
  Multiplicity = 1
  Basis Set: CC-PVTZ
  Basis Set:

    Orbital Energies (a.u.)
    -----------------------

    Doubly Occupied:

       1A    -20.546358     2A    -11.265894     3A    -11.210371
       4A    -11.209125     5A    -11.206886     6A    -11.204135
       7A    -11.201285     8A     -1.364205     9A     -1.082321
      10A     -1.031134    11A     -0.954112    12A     -0.875748
      13A     -0.802057    14A     -0.773563    15A     -0.708222
      16A     -0.642559    17A     -0.627547    18A     -0.601529
      19A     -0.589401    20A     -0.563948    21A     -0.541157
      22A     -0.518724    23A     -0.501887    24A     -0.496214
      25A     -0.476577    26A     -0.456289    27A     -0.454188
      28A     -0.442506    29A     -0.429703

  @DF-RHF Final Energy:  -310.33305330233048

   => Energetics <=

    Nuclear Repulsion Energy =            317.8111671055143574
    One-Electron Energy =               -1050.7331484739424923
    Two-Electron Energy =                 422.5889280660978784
    DFT Exchange-Correlation Energy =       0.0000000000000000
    Empirical Dispersion Energy =           0.0000000000000000
    PCM Polarization Energy =               0.0000000000000000
    EFP Energy =                            0.0000000000000000
    Total Energy =                       -310.3330533023301996
    Molecular point group: c1
  Basis Set: CC-PVTZ
  Basis Set:

  -Total Gradient:
     Atom            X                  Y                   Z
    ------   -----------------  -----------------  -----------------
       1       -0.000011228587     0.000008571095    -0.000009120793
       2        0.000208631506     0.000109808654     0.000330947311
       3       -0.000314321485    -0.000256451142    -0.000394534204
       4        0.000409492704     0.000499363687     0.000018356316
       5       -0.000000174094     0.000016990544    -0.000001235262
       6        0.000001277520     0.000005911788    -0.000002434272
       7       -0.000024038719    -0.000020941262     0.000020292244
       8       -0.000296573567    -0.000393147392     0.000052289802
       9        0.000000164658    -0.000007139569    -0.000000458350
      10       -0.000010771187     0.000003549536    -0.000008326465
      11        0.000013986514     0.000024215007    -0.000011487196
      12        0.000008095821    -0.000001692266    -0.000001574068
      13        0.000012711882    -0.000005917041     0.000011162722
      14       -0.000003309137    -0.000006597504     0.000005286297
      15       -0.000009962476     0.000016238095    -0.000002659393
      16        0.000006797241     0.000002200099    -0.000004344532
      17        0.000006646157     0.000010151849    -0.000000367709
      18        0.000003531619    -0.000008090896     0.000001034561
      19        0.000003751039     0.000001009123    -0.000001767881
      20        0.000000048853    -0.000001817319     0.000000151314
      21       -0.000004756260     0.000003784915    -0.000001210439

  **** Optimization is complete! (in 5 steps) ****
    Final optimized geometry and variables:
    Molecular point group: c1

    Geometry (in Angstrom), charge = 0, multiplicity = 1:

    H           -3.060735071778     2.070612537505    -0.121138637554
    O           -2.368429807029     1.487330608917    -0.370932952070
    C           -2.530400617757     0.245057717409     0.263288709190
    C           -1.389552076322    -0.670446173272    -0.136516265302
    H           -2.541766134493     0.370814836762     1.344282364456
    H           -3.476319326007    -0.205981101984    -0.025578898167
    C           -0.014902679554    -0.173132769988     0.302161738674
    H           -1.411292390463    -0.795769285424    -1.214950329375
    H           -1.580456736062    -1.649656393143     0.295331318972
    C            1.112529366901    -1.110858150530    -0.124838239006
    H            0.144077985094     0.816932864499    -0.104151846484
    H           -0.002501932959    -0.070001243143     1.385581745020
    C            2.504811122991    -0.699458015870     0.357233023892
    H            1.120346183797    -1.191111676109    -1.209548104393
    H            0.899672324905    -2.108592751867     0.250421121687
    C            3.029472561488     0.600935505655    -0.246775527170
    H            3.200651716950    -1.498524630534     0.119812648900
    H            2.498583846789    -0.616536989381     1.441038252794
    H            3.043710148539     0.548175353624    -1.330730366095
    H            2.421929948988     1.452509428038     0.033845793345
    H            4.041983735027     0.798490999054     0.086743272027

  Mulliken Charges: (a.u.)
   Center  Symbol    Alpha    Beta     Spin     Total
       1     H     0.39595  0.39595  0.00000  0.20810
       2     O     4.19784  4.19784  0.00000 -0.39568
       3     C     2.97438  2.97438  0.00000  0.05125
       4     C     3.09137  3.09137  0.00000 -0.18275
       5     H     0.47352  0.47352  0.00000  0.05295
       6     H     0.46513  0.46513  0.00000  0.06975
       7     C     3.09262  3.09262  0.00000 -0.18523
       8     H     0.45221  0.45221  0.00000  0.09558
       9     H     0.45402  0.45402  0.00000  0.09197
      10     C     3.09448  3.09448  0.00000 -0.18897
      11     H     0.44129  0.44129  0.00000  0.11743
      12     H     0.45909  0.45909  0.00000  0.08182
      13     C     3.08969  3.08969  0.00000 -0.17939
      14     H     0.45397  0.45397  0.00000  0.09207
      15     H     0.45181  0.45181  0.00000  0.09639
      16     C     3.15182  3.15182  0.00000 -0.30364
      17     H     0.44954  0.44954  0.00000  0.10092
      18     H     0.45578  0.45578  0.00000  0.08844
      19     H     0.45505  0.45505  0.00000  0.08990
      20     H     0.45263  0.45263  0.00000  0.09474
      21     H     0.44781  0.44781  0.00000  0.10437

   Total alpha = 29.00000, Total beta = 29.00000, Total charge = -0.00000
