  ==> Input File <==

--------------------------------------------------------------------------
set {
	reference rhf
	basis 6-31G*
}

set_num_threads( 4 )
memory 2 gb

molecule MOL {
0 1

H	 2.845955	 -0.323208	 0.022310
C	 1.900140	 0.071967	 -0.330070
C	 0.778463	 -0.508087	 0.517968
H	 1.782469	 -0.206877	 -1.370777
H	 1.922247	 1.149867	 -0.254252
N	 -0.540928	 0.005139	 0.058438
H	 0.716718	 -1.581298	 0.454712
H	 0.859711	 -0.198647	 1.550086
O	 -0.608743	 1.151729	 -0.257801
O	 -1.445178	 -0.773570	 0.037339

	symmetry c1
}
set optking {
	frozen_dihedral = ("
		9 6 3 2
	")
}

ee = optimize('scf')
oeprop('DIPOLE', 'QUADRUPOLE', 'MULLIKEN_CHARGES')
f=open( 'psi4out.xyz', 'w' )
f.write( "10  " )
f.write( str(ee) + "\n" )
f.write( MOL.save_string_xyz() )
f.close()
--------------------------------------------------------------------------

    Molecular point group: c1
  Charge       = 0
  Multiplicity = 1
  Basis Set: 6-31G*
  Basis Set:
  @DF-RHF Final Energy:  -282.70022621881105
    Total Energy =                       -282.7002262188111104
    Molecular point group: c1
  Basis Set: 6-31G*
  Basis Set:
  Basis Set: 6-31G*
  Basis Set:
  @DF-RHF Final Energy:  -282.69576559031418
    Total Energy =                       -282.6957655903141813
  Basis Set: 6-31G*
  Basis Set:
  Basis Set: 6-31G*
  Basis Set:
  @DF-RHF Final Energy:  -282.70023898928429
    Total Energy =                       -282.7002389892842302
  Basis Set: 6-31G*
  Basis Set:
  Basis Set: 6-31G*
  Basis Set:
  @DF-RHF Final Energy:  -282.70045157233017
    Total Energy =                       -282.7004515723301665
  Basis Set: 6-31G*
  Basis Set:
  Basis Set: 6-31G*
  Basis Set:
  @DF-RHF Final Energy:  -282.70045341531761
    Total Energy =                       -282.7004534153176110
  Basis Set: 6-31G*
  Basis Set:
  Charge       = 0
  Multiplicity = 1
  Basis Set: 6-31G*
  Basis Set:

    Orbital Energies (a.u.)
    -----------------------

    Doubly Occupied:

       1A    -20.603324     2A    -20.602163     3A    -15.849559
       4A    -11.304623     5A    -11.248481     6A     -1.633078
       7A     -1.418510     8A     -1.126225     9A     -0.967421
      10A     -0.835188    11A     -0.761739    12A     -0.742757
      13A     -0.726641    14A     -0.647587    15A     -0.591830
      16A     -0.563976    17A     -0.541151    18A     -0.486451
      19A     -0.478305    20A     -0.450746

  @DF-RHF Final Energy:  -282.70045404715665

   => Energetics <=

    Nuclear Repulsion Energy =            186.0994844691409469
    One-Electron Energy =                -754.4403701997574672
    Two-Electron Energy =                 285.6404316834597239
    DFT Exchange-Correlation Energy =       0.0000000000000000
    Empirical Dispersion Energy =           0.0000000000000000
    PCM Polarization Energy =               0.0000000000000000
    EFP Energy =                            0.0000000000000000
    Total Energy =                       -282.7004540471567680
    Molecular point group: c1
  Basis Set: 6-31G*
  Basis Set:

  -Total Gradient:
     Atom            X                  Y                   Z
    ------   -----------------  -----------------  -----------------
       1        0.000005923213     0.000001636685    -0.000001340109
       2        0.000008100301     0.000060391086     0.000043824824
       3       -0.000004761822    -0.000086628107    -0.000108383936
       4        0.000006988997     0.000003911578    -0.000003572710
       5       -0.000006358770    -0.000006708910     0.000002680936
       6        0.000001165062     0.000176037314     0.000157719690
       7       -0.000004094137     0.000007604830    -0.000012581689
       8       -0.000005382440    -0.000000860375     0.000011185557
       9        0.000048195527    -0.000105359433    -0.000093729475
      10       -0.000049775931    -0.000050024667     0.000004196912

  **** Optimization is complete! (in 6 steps) ****
    Final optimized geometry and variables:
    Molecular point group: c1

    Geometry (in Angstrom), charge = 0, multiplicity = 1:

    H            2.856722988293    -0.330136903843     0.029784453461
    C            1.920142048929     0.078477595142    -0.332632911537
    C            0.787483269083    -0.494853620038     0.499450783831
    H            1.813109377755    -0.192295752578    -1.376323242450
    H            1.955523204047     1.155258514088    -0.254675815414
    N           -0.543480636887     0.004595714637     0.051439672244
    H            0.723017376825    -1.568812344871     0.447832612018
    H            0.857354033411    -0.192428729923     1.536181352284
    O           -0.626038248225     1.152348356105    -0.261359541106
    O           -1.446560579794    -0.772890046178     0.067052609445

  Mulliken Charges: (a.u.)
   Center  Symbol    Alpha    Beta     Spin     Total
       1     H     0.40799  0.40799  0.00000  0.18403
       2     C     3.25424  3.25424  0.00000 -0.50848
       3     C     3.09518  3.09518  0.00000 -0.19036
       4     H     0.40397  0.40397  0.00000  0.19206
       5     H     0.39313  0.39313  0.00000  0.21374
       6     N     3.21858  3.21858  0.00000  0.56283
       7     H     0.38489  0.38489  0.00000  0.23023
       8     H     0.38529  0.38529  0.00000  0.22942
       9     O     4.22891  4.22891  0.00000 -0.45782
      10     O     4.22782  4.22782  0.00000 -0.45565

   Total alpha = 20.00000, Total beta = 20.00000, Total charge =  0.00000
