  ==> Input File <==

--------------------------------------------------------------------------
set {
	reference rhf
	basis cc-pvtz
}

set_num_threads( 4 )
memory 2 gb

molecule MOL {
0 1

O	 0.395927	 1.296676	 -0.000076
C	 0.503051	 0.114301	 -0.000074
C	 -0.701422	 -0.805636	 -0.000109
C	 1.858118	 -0.556123	 0.000212
C	 -1.658382	 -0.573999	 -1.158838
H	 -0.332781	 -1.828152	 -0.000099
H	 -1.209021	 -0.680979	 0.952909
H	 -1.160902	 -0.721055	 -2.108109
H	 -2.493874	 -1.261254	 -1.099765
H	 -2.044922	 0.436283	 -1.146664
H	 1.961106	 -1.191101	 -0.872843
H	 2.636688	 0.191085	 -0.000109
H	 1.961070	 -1.190284	 0.873873

	symmetry c1
}
set optking {
	frozen_dihedral = ("
		6 3 2 1
	")
}

ee = optimize('scf')
oeprop('DIPOLE', 'QUADRUPOLE', 'MULLIKEN_CHARGES')
f=open( 'psi4out.xyz', 'w' )
f.write( "13  " )
f.write( str(ee) + "\n" )
f.write( MOL.save_string_xyz() )
f.close()
--------------------------------------------------------------------------

    Molecular point group: c1
  Charge       = 0
  Multiplicity = 1
  Basis Set: CC-PVTZ
  Basis Set:
  @DF-RHF Final Energy:  -231.08078662697483
    Total Energy =                       -231.0807866269748274
    Molecular point group: c1
  Basis Set: CC-PVTZ
  Basis Set:
  Basis Set: CC-PVTZ
  Basis Set:
  @DF-RHF Final Energy:  -231.08120666964908
    Total Energy =                       -231.0812066696493332
  Basis Set: CC-PVTZ
  Basis Set:
  Basis Set: CC-PVTZ
  Basis Set:
  @DF-RHF Final Energy:  -231.08004786619233
    Total Energy =                       -231.0800478661922739
  Basis Set: CC-PVTZ
  Basis Set:
  Basis Set: CC-PVTZ
  Basis Set:
  @DF-RHF Final Energy:  -231.08144713729874
    Total Energy =                       -231.0814471372985679
  Basis Set: CC-PVTZ
  Basis Set:
  Basis Set: CC-PVTZ
  Basis Set:
  @DF-RHF Final Energy:  -231.08145489620460
    Total Energy =                       -231.0814548962047184
  Basis Set: CC-PVTZ
  Basis Set:
  Charge       = 0
  Multiplicity = 1
  Basis Set: CC-PVTZ
  Basis Set:

    Orbital Energies (a.u.)
    -----------------------

    Doubly Occupied:

       1A    -20.538081     2A    -11.321270     3A    -11.232055
       4A    -11.228427     5A    -11.219932     6A     -1.398892
       7A     -1.063094     8A     -1.001305     9A     -0.880586
      10A     -0.733366    11A     -0.658975    12A     -0.646015
      13A     -0.613107    14A     -0.590010    15A     -0.572049
      16A     -0.535081    17A     -0.523832    18A     -0.503863
      19A     -0.482485    20A     -0.402563

  @DF-RHF Final Energy:  -231.08145510706777

   => Energetics <=

    Nuclear Repulsion Energy =            177.2057443404612513
    One-Electron Energy =                -664.2844242260401870
    Two-Electron Energy =                 255.9972247785111676
    DFT Exchange-Correlation Energy =       0.0000000000000000
    Empirical Dispersion Energy =           0.0000000000000000
    PCM Polarization Energy =               0.0000000000000000
    EFP Energy =                            0.0000000000000000
    Total Energy =                       -231.0814551070677680
    Molecular point group: c1
  Basis Set: CC-PVTZ
  Basis Set:

  -Total Gradient:
     Atom            X                  Y                   Z
    ------   -----------------  -----------------  -----------------
       1        0.000034611772     0.000002622276     0.000781225196
       2       -0.000024451064     0.000008957290    -0.000894456298
       3       -0.000025264081    -0.000004010071    -0.000735014918
       4        0.000008038968     0.000001649073     0.000033130047
       5        0.000018935253    -0.000011726428     0.000030664005
       6       -0.000007200860    -0.000003798559     0.000797771590
       7        0.000007747097    -0.000001634531     0.000008965760
       8       -0.000000220522     0.000000999232    -0.000001759710
       9       -0.000007401571    -0.000004827635    -0.000000032287
      10        0.000005037001    -0.000003105642     0.000003111744
      11       -0.000007760878     0.000008049367    -0.000007570594
      12        0.000002059672     0.000002060833    -0.000004733254
      13       -0.000004130787     0.000004764798    -0.000011301280

  **** Optimization is complete! (in 6 steps) ****
    Final optimized geometry and variables:
    Molecular point group: c1

    Geometry (in Angstrom), charge = 0, multiplicity = 1:

    O            0.281875071433     1.383563508573     0.237480390784
    C            0.427333877280     0.204907830723     0.236126808257
    C           -0.772137609755    -0.728430395712     0.246509861207
    C            1.797788095532    -0.425499944124     0.240061163679
    C           -1.724337853636    -0.453370453353    -0.915865123162
    H           -0.447818804807    -1.762101294370     0.243620596246
    H           -1.286319055073    -0.558129230188     1.186989884959
    H           -1.242546635627    -0.638251502058    -1.869632491497
    H           -2.594378936906    -1.095049838430    -0.852930826682
    H           -2.052539965865     0.576237420348    -0.899320410323
    H            1.913408950930    -1.058315109438    -0.633933532588
    H            2.560381922789     0.337960554009     0.244574863769
    H            1.907210114264    -1.062455156924     1.111655608638

  Mulliken Charges: (a.u.)
   Center  Symbol    Alpha    Beta     Spin     Total
       1     O     4.17535  4.17535  0.00000 -0.35069
       2     C     2.85545  2.85545  0.00000  0.28911
       3     C     3.09878  3.09878  0.00000 -0.19757
       4     C     3.15199  3.15199  0.00000 -0.30398
       5     C     3.14500  3.14500  0.00000 -0.29001
       6     H     0.44835  0.44835  0.00000  0.10330
       7     H     0.44388  0.44388  0.00000  0.11224
       8     H     0.45548  0.45548  0.00000  0.08904
       9     H     0.44860  0.44860  0.00000  0.10280
      10     H     0.44041  0.44041  0.00000  0.11917
      11     H     0.45042  0.45042  0.00000  0.09916
      12     H     0.43656  0.43656  0.00000  0.12689
      13     H     0.44974  0.44974  0.00000  0.10053

   Total alpha = 20.00000, Total beta = 20.00000, Total charge = -0.00000
