  ==> Input File <==

--------------------------------------------------------------------------
set {
	reference rhf
	basis 6-31G*
}

set_num_threads( 4 )
memory 2 gb

molecule MOL {
0 1

H	 -1.977075	 -1.594371	 0.202756
O	 -2.310168	 -0.871793	 -0.309793
C	 -2.026376	 0.340750	 0.341611
C	 -0.673256	 0.843270	 -0.132153
H	 -2.792215	 1.080697	 0.115987
H	 -2.013526	 0.200402	 1.421792
C	 0.486613	 -0.083066	 0.235839
H	 -0.715586	 0.970948	 -1.210718
H	 -0.508072	 1.829858	 0.297090
C	 1.840406	 0.433480	 -0.254303
H	 0.300215	 -1.068318	 -0.178947
H	 0.519509	 -0.203625	 1.318070
C	 3.000220	 -0.489290	 0.118523
H	 1.809207	 0.553576	 -1.335192
H	 2.021860	 1.424500	 0.157276
H	 2.864959	 -1.479103	 -0.307933
H	 3.946603	 -0.099227	 -0.243630
H	 3.080049	 -0.602997	 1.196117

	symmetry c1
}
set optking {
	frozen_dihedral = ("
		1 2 3 4
	")
}

ee = optimize('scf')
oeprop('DIPOLE', 'QUADRUPOLE', 'MULLIKEN_CHARGES')
f=open( 'psi4out.xyz', 'w' )
f.write( "18  " )
f.write( str(ee) + "\n" )
f.write( MOL.save_string_xyz() )
f.close()
--------------------------------------------------------------------------

    Molecular point group: c1
  Charge       = 0
  Multiplicity = 1
  Basis Set: 6-31G*
  Basis Set:
  @DF-RHF Final Energy:  -271.17758308406366
    Total Energy =                       -271.1775830840635990
    Molecular point group: c1
  Basis Set: 6-31G*
  Basis Set:
  Basis Set: 6-31G*
  Basis Set:
  @DF-RHF Final Energy:  -271.17871845680372
    Total Energy =                       -271.1787184568037787
  Basis Set: 6-31G*
  Basis Set:
  Basis Set: 6-31G*
  Basis Set:
  @DF-RHF Final Energy:  -271.17902817359879
    Total Energy =                       -271.1790281735985673
  Basis Set: 6-31G*
  Basis Set:
  Basis Set: 6-31G*
  Basis Set:
  @DF-RHF Final Energy:  -271.17903073882667
    Total Energy =                       -271.1790307388266115
  Basis Set: 6-31G*
  Basis Set:
  Charge       = 0
  Multiplicity = 1
  Basis Set: 6-31G*
  Basis Set:

    Orbital Energies (a.u.)
    -----------------------

    Doubly Occupied:

       1A    -20.552609     2A    -11.267881     3A    -11.217469
       4A    -11.216806     5A    -11.213482     6A    -11.210279
       7A     -1.359020     8A     -1.080422     9A     -1.011397
      10A     -0.919699    11A     -0.826528    12A     -0.789930
      13A     -0.699549    14A     -0.644033    15A     -0.621009
      16A     -0.593879    17A     -0.574843    18A     -0.565660
      19A     -0.522973    20A     -0.509092    21A     -0.487722
      22A     -0.474837    23A     -0.466953    24A     -0.458306
      25A     -0.423341

  @DF-RHF Final Energy:  -271.17903142068968

   => Energetics <=

    Nuclear Repulsion Energy =            248.7583958400704773
    One-Electron Energy =                -860.4594111398014320
    Two-Electron Energy =                 340.5219838790411586
    DFT Exchange-Correlation Energy =       0.0000000000000000
    Empirical Dispersion Energy =           0.0000000000000000
    PCM Polarization Energy =               0.0000000000000000
    EFP Energy =                            0.0000000000000000
    Total Energy =                       -271.1790314206897392
    Molecular point group: c1
  Basis Set: 6-31G*
  Basis Set:

  -Total Gradient:
     Atom            X                  Y                   Z
    ------   -----------------  -----------------  -----------------
       1       -0.001002677371     0.000035678207     0.000642206931
       2        0.001136949346     0.000236495021    -0.000979529325
       3        0.000181228916    -0.000529763897     0.000952218763
       4       -0.000302595836     0.000227018080    -0.000584393334
       5       -0.000062746262     0.000005202400     0.000001971931
       6        0.000011890436    -0.000044235407    -0.000020963769
       7        0.000022386727     0.000036742537    -0.000033351815
       8        0.000017749364    -0.000009184420     0.000010045305
       9        0.000017479750    -0.000013623726    -0.000006024327
      10        0.000014491569     0.000010797980     0.000028898495
      11       -0.000022182044     0.000048261293    -0.000015990588
      12       -0.000007671498    -0.000006800852    -0.000006102245
      13       -0.000000428122     0.000003784827     0.000007990807
      14       -0.000011929575    -0.000011263539     0.000005963130
      15        0.000003062566     0.000011383275    -0.000003642841
      16       -0.000002223025     0.000000092648     0.000002515367
      17        0.000004029635     0.000000550012    -0.000001900470
      18        0.000003185430    -0.000001134438     0.000000087987

  **** Optimization is complete! (in 5 steps) ****
    Final optimized geometry and variables:
    Molecular point group: c1

    Geometry (in Angstrom), charge = 0, multiplicity = 1:

    H           -2.082251726213    -1.600762445920     0.242848118740
    O           -2.397350030356    -0.874216311807    -0.273544842369
    C           -2.027309470339     0.340068583959     0.332911303517
    C           -0.672112859819     0.842470720875    -0.149672846702
    H           -2.795880338645     1.057881516364     0.073093231340
    H           -2.030926858600     0.243096847094     1.417120520711
    C            0.492278877720    -0.079564517061     0.214693196760
    H           -0.717081996850     0.964868349216    -1.228592776941
    H           -0.502332644253     1.830783729260     0.275009332614
    C            1.849520367064     0.449309665641    -0.252419514312
    H            0.323817321089    -1.059858604130    -0.224770938501
    H            0.517486504188    -0.221930572549     1.295218343296
    C            3.008865977446    -0.478347150610     0.109082543538
    H            1.825324925112     0.593901321281    -1.330134954319
    H            2.023006534714     1.430865191316     0.183520723713
    H            2.881501671304    -1.458623589123    -0.341500975325
    H            3.956446411360    -0.076714673682    -0.236260749046
    H            3.080679977845    -0.616247279125     1.184390006825

  Mulliken Charges: (a.u.)
   Center  Symbol    Alpha    Beta     Spin     Total
       1     H     0.27985  0.27985  0.00000  0.44031
       2     O     4.37067  4.37067  0.00000 -0.74135
       3     C     3.00037  3.00037  0.00000 -0.00075
       4     C     3.15780  3.15780  0.00000 -0.31561
       5     H     0.41544  0.41544  0.00000  0.16912
       6     H     0.43169  0.43169  0.00000  0.13662
       7     C     3.15875  3.15875  0.00000 -0.31749
       8     H     0.41508  0.41508  0.00000  0.16983
       9     H     0.42542  0.42542  0.00000  0.14915
      10     C     3.15062  3.15062  0.00000 -0.30124
      11     H     0.42104  0.42104  0.00000  0.15792
      12     H     0.42745  0.42745  0.00000  0.14510
      13     C     3.23951  3.23951  0.00000 -0.47901
      14     H     0.42082  0.42082  0.00000  0.15835
      15     H     0.42302  0.42302  0.00000  0.15397
      16     H     0.42143  0.42143  0.00000  0.15715
      17     H     0.41868  0.41868  0.00000  0.16263
      18     H     0.42236  0.42236  0.00000  0.15529

   Total alpha = 25.00000, Total beta = 25.00000, Total charge =  0.00000
