  ==> Input File <==

--------------------------------------------------------------------------
set {
	reference rhf
	basis 6-31G*
}

set_num_threads( 4 )
memory 2 gb

molecule MOL {
0 1

H	 -1.942859	 1.755225	 1.076127
C	 -2.170967	 0.699057	 1.152429
C	 -0.895335	 -0.132465	 1.216397
H	 -2.766977	 0.430249	 0.288834
H	 -2.769154	 0.541505	 2.043846
C	 -0.000005	 0.033229	 -0.000001
H	 -1.129044	 -1.190447	 1.318614
H	 -0.312146	 0.122858	 2.099062
C	 1.290528	 -0.768786	 0.000276
O	 -0.294004	 0.752839	 -0.904938
C	 2.545731	 0.095645	 -0.000061
H	 1.275672	 -1.427874	 -0.865626
H	 1.275566	 -1.427086	 0.866768
H	 2.577157	 0.734767	 -0.874036
H	 3.433520	 -0.528139	 0.000137
H	 2.577172	 0.735117	 0.873581

	symmetry c1
}
set optking {
	frozen_dihedral = ("
		3 6 9 12
	")
}

ee = optimize('scf')
oeprop('DIPOLE', 'QUADRUPOLE', 'MULLIKEN_CHARGES')
f=open( 'psi4out.xyz', 'w' )
f.write( "16  " )
f.write( str(ee) + "\n" )
f.write( MOL.save_string_xyz() )
f.close()
--------------------------------------------------------------------------

    Molecular point group: c1
  Charge       = 0
  Multiplicity = 1
  Basis Set: 6-31G*
  Basis Set:
  @DF-RHF Final Energy:  -270.03078636552772
    Total Energy =                       -270.0307863655277743
    Molecular point group: c1
  Basis Set: 6-31G*
  Basis Set:
  Basis Set: 6-31G*
  Basis Set:
  @DF-RHF Final Energy:  -270.03128838308209
    Total Energy =                       -270.0312883830820283
  Basis Set: 6-31G*
  Basis Set:
  Basis Set: 6-31G*
  Basis Set:
  @DF-RHF Final Energy:  -270.03146860948323
    Total Energy =                       -270.0314686094833405
  Basis Set: 6-31G*
  Basis Set:
  Basis Set: 6-31G*
  Basis Set:
  @DF-RHF Final Energy:  -270.03152628219766
    Total Energy =                       -270.0315262821977171
  Basis Set: 6-31G*
  Basis Set:
  Basis Set: 6-31G*
  Basis Set:
  @DF-RHF Final Energy:  -270.03153283278584
    Total Energy =                       -270.0315328327859561
  Basis Set: 6-31G*
  Basis Set:
  Charge       = 0
  Multiplicity = 1
  Basis Set: 6-31G*
  Basis Set:

    Orbital Energies (a.u.)
    -----------------------

    Doubly Occupied:

       1A    -20.548671     2A    -11.323415     3A    -11.234528
       4A    -11.232352     5A    -11.222043     6A    -11.213310
       7A     -1.394781     8A     -1.068887     9A     -1.036935
      10A     -0.913580    11A     -0.851170    12A     -0.725865
      13A     -0.665680    14A     -0.642395    15A     -0.623062
      16A     -0.601006    17A     -0.565543    18A     -0.536005
      19A     -0.528050    20A     -0.511886    21A     -0.502429
      22A     -0.497044    23A     -0.476723    24A     -0.396695

  @DF-RHF Final Energy:  -270.03153305333774

   => Energetics <=

    Nuclear Repulsion Energy =            240.1614957260677272
    One-Electron Energy =                -841.7619506373996501
    Two-Electron Energy =                 331.5689218579941553
    DFT Exchange-Correlation Energy =       0.0000000000000000
    Empirical Dispersion Energy =           0.0000000000000000
    PCM Polarization Energy =               0.0000000000000000
    EFP Energy =                            0.0000000000000000
    Total Energy =                       -270.0315330533377391
    Molecular point group: c1
  Basis Set: 6-31G*
  Basis Set:

  -Total Gradient:
     Atom            X                  Y                   Z
    ------   -----------------  -----------------  -----------------
       1       -0.000011428457     0.000011567394    -0.000001406745
       2        0.000017761441     0.000029608681     0.000012724839
       3        0.000177138583     0.000256851500     0.000175497925
       4        0.000010206737    -0.000007939949     0.000001450917
       5        0.000002345663     0.000000391108     0.000000030636
       6       -0.000171597470    -0.000326381614    -0.000364828567
       7        0.000005657158    -0.000014808315     0.000001759504
       8       -0.000013382805     0.000007762488    -0.000012286965
       9       -0.000198563737    -0.000298527732     0.000447344726
      10       -0.000049431832     0.000002516395    -0.000001088124
      11        0.000006750623    -0.000009302357     0.000003763417
      12        0.000232668607     0.000385058975    -0.000253236666
      13        0.000008789281    -0.000038121899     0.000007919775
      14        0.000004123389     0.000012046708    -0.000010070355
      15       -0.000010051058    -0.000003671083    -0.000001279401
      16       -0.000010986119    -0.000007050300    -0.000006294913

  **** Optimization is complete! (in 6 steps) ****
    Final optimized geometry and variables:
    Molecular point group: c1

    Geometry (in Angstrom), charge = 0, multiplicity = 1:

    H           -2.003133026288     1.643681670393     0.836463316934
    C           -2.257974491984     0.592090650527     0.888070767571
    C           -1.004565543380    -0.269720420066     0.966127341468
    H           -2.838174380837     0.353040687632     0.005138851297
    H           -2.881920911709     0.433258174894     1.761424348435
    C           -0.074950248795    -0.107817219197    -0.219990031482
    H           -1.260478362427    -1.325425787772     1.043461528071
    H           -0.431649099347    -0.046129934634     1.865052740144
    C            1.212356156536    -0.919592326095    -0.214503684063
    O           -0.323138729758     0.629347743046    -1.125402595581
    C            2.446593257452    -0.013886314769    -0.273210207267
    H            1.191689098596    -1.556415566784    -1.094058445030
    H            1.255250788975    -1.565868747753     0.656188942802
    H            2.404224995455     0.623985176258    -1.146794154737
    H            3.352398309999    -0.608270763233    -0.322967648368
    H            2.512679937161     0.620064010440     0.605936534602

  Mulliken Charges: (a.u.)
   Center  Symbol    Alpha    Beta     Spin     Total
       1     H     0.41054  0.41054  0.00000  0.17892
       2     C     3.23537  3.23537  0.00000 -0.47075
       3     C     3.20947  3.20947  0.00000 -0.41895
       4     H     0.41028  0.41028  0.00000  0.17944
       5     H     0.42002  0.42002  0.00000  0.15996
       6     C     2.73395  2.73395  0.00000  0.53210
       7     H     0.40829  0.40829  0.00000  0.18342
       8     H     0.40889  0.40889  0.00000  0.18222
       9     C     3.19919  3.19919  0.00000 -0.39837
      10     O     4.26673  4.26673  0.00000 -0.53346
      11     C     3.24449  3.24449  0.00000 -0.48899
      12     H     0.40174  0.40174  0.00000  0.19652
      13     H     0.41516  0.41516  0.00000  0.16969
      14     H     0.40183  0.40183  0.00000  0.19635
      15     H     0.41508  0.41508  0.00000  0.16984
      16     H     0.41897  0.41897  0.00000  0.16206

   Total alpha = 24.00000, Total beta = 24.00000, Total charge =  0.00000
