  ==> Input File <==

--------------------------------------------------------------------------
set {
	reference rhf
	basis 6-31G*
}

set_num_threads( 4 )
memory 2 gb

molecule MOL {
0 1

H	 -0.187824	 -0.835367	 0.875482
N	 -0.626943	 -0.667432	 -0.000092
C	 -1.979713	 -0.158776	 0.000050
C	 0.072778	 -0.925106	 -1.131533
H	 -2.520245	 -0.492427	 -0.879443
H	 -1.934741	 0.918111	 -0.004428
H	 -2.517790	 -0.485056	 0.883818
C	 1.474159	 -1.453131	 -0.898494
O	 -0.371641	 -0.753302	 -2.232982
H	 1.444506	 -2.384981	 -0.342500
H	 1.946940	 -1.622540	 -1.854253
H	 2.062208	 -0.740913	 -0.328160

	symmetry c1
}
set optking {
	frozen_dihedral = ("
		4 2 3 5
	")
}

ee = optimize('scf')
oeprop('DIPOLE', 'QUADRUPOLE', 'MULLIKEN_CHARGES')
f=open( 'psi4out.xyz', 'w' )
f.write( "12  " )
f.write( str(ee) + "\n" )
f.write( MOL.save_string_xyz() )
f.close()
--------------------------------------------------------------------------

    Molecular point group: c1
  Charge       = 0
  Multiplicity = 1
  Basis Set: 6-31G*
  Basis Set:
  @DF-RHF Final Energy:  -247.00470387420182
    Total Energy =                       -247.0047038742018799
    Molecular point group: c1
  Basis Set: 6-31G*
  Basis Set:
  Basis Set: 6-31G*
  Basis Set:
  @DF-RHF Final Energy:  -247.00538555855803
    Total Energy =                       -247.0053855585580322
  Basis Set: 6-31G*
  Basis Set:
  Basis Set: 6-31G*
  Basis Set:
  @DF-RHF Final Energy:  -247.00552385910402
    Total Energy =                       -247.0055238591039597
  Basis Set: 6-31G*
  Basis Set:
  Basis Set: 6-31G*
  Basis Set:
  @DF-RHF Final Energy:  -247.00541690555039
    Total Energy =                       -247.0054169055504190
  Basis Set: 6-31G*
  Basis Set:
  @DF-RHF Final Energy:  -247.00557069549538
    Total Energy =                       -247.0055706954955781
  @DF-RHF Final Energy:  -247.00559385263000
    Total Energy =                       -247.0055938526299997
  @DF-RHF Final Energy:  -247.00561242368269
    Total Energy =                       -247.0056124236828055
  @DF-RHF Final Energy:  -247.00561437224749
    Total Energy =                       -247.0056143722477486
  @DF-RHF Final Energy:  -247.00561901285036
    Total Energy =                       -247.0056190128501612
  @DF-RHF Final Energy:  -247.00563337243287
    Total Energy =                       -247.0056333724327828
  @DF-RHF Final Energy:  -247.00562276795031
    Total Energy =                       -247.0056227679506833
  @DF-RHF Final Energy:  -247.00113846448437
    Total Energy =                       -247.0011384644844838
  @DF-RHF Final Energy:  -247.00563640620791
    Total Energy =                       -247.0056364062081116
  @DF-RHF Final Energy:  -247.00564315516374
    Total Energy =                       -247.0056431551637388
  @DF-RHF Final Energy:  -247.00564360995259
    Total Energy =                       -247.0056436099525285
  @DF-RHF Final Energy:  -247.00564355497968
    Total Energy =                       -247.0056435549798834
  @DF-RHF Final Energy:  -247.00563483148917
    Total Energy =                       -247.0056348314893739
  @DF-RHF Final Energy:  -247.00564359574400
    Total Energy =                       -247.0056435957438339
  @DF-RHF Final Energy:  -247.00564235017293
    Total Energy =                       -247.0056423501729341
  @DF-RHF Final Energy:  -247.00563852819403
    Total Energy =                       -247.0056385281941402
  @DF-RHF Final Energy:  -247.00564129076204
    Total Energy =                       -247.0056412907621279
  @DF-RHF Final Energy:  -247.00564067083263
    Total Energy =                       -247.0056406708325198
  @DF-RHF Final Energy:  -247.00564058780893
    Total Energy =                       -247.0056405878088981
  @DF-RHF Final Energy:  -247.00564118219162
    Total Energy =                       -247.0056411821916527
  @DF-RHF Final Energy:  -247.00564182400919
    Total Energy =                       -247.0056418240091034
  @DF-RHF Final Energy:  -247.00564244838642
    Total Energy =                       -247.0056424483863111
  @DF-RHF Final Energy:  -247.00564223385899
    Total Energy =                       -247.0056422338591346
  @DF-RHF Final Energy:  -247.00564196255138
    Total Energy =                       -247.0056419625515218
  @DF-RHF Final Energy:  -247.00564115061960
    Total Energy =                       -247.0056411506196810
  @DF-RHF Final Energy:  -247.00564220636969
    Total Energy =                       -247.0056422063698847
  @DF-RHF Final Energy:  -247.00564202029000
    Total Energy =                       -247.0056420202901108
  @DF-RHF Final Energy:  -247.00564195554583
    Total Energy =                       -247.0056419555457978
  @DF-RHF Final Energy:  -247.00564116025134
    Total Energy =                       -247.0056411602514004
  @DF-RHF Final Energy:  -247.00564182553782
    Total Energy =                       -247.0056418255377366
  @DF-RHF Final Energy:  -247.00564179135327
    Total Energy =                       -247.0056417913533551
  @DF-RHF Final Energy:  -247.00564130955755
    Total Energy =                       -247.0056413095573475
  Basis Set: 6-31G*
  Basis Set:
  @DF-RHF Final Energy:  -247.00564117929773
    Total Energy =                       -247.0056411792978679
  Basis Set: 6-31G*
  Basis Set:
  Basis Set: 6-31G*
  Basis Set:
  @DF-RHF Final Energy:  -247.00564083560894
    Total Energy =                       -247.0056408356089719
  Basis Set: 6-31G*
  Basis Set:
  Basis Set: 6-31G*
  Basis Set:
  @DF-RHF Final Energy:  -247.00564060495304
    Total Energy =                       -247.0056406049529869
  Basis Set: 6-31G*
  Basis Set:
  Charge       = 0
  Multiplicity = 1
  Basis Set: 6-31G*
  Basis Set:

    Orbital Energies (a.u.)
    -----------------------

    Doubly Occupied:

       1A    -20.516479     2A    -15.580844     3A    -11.342737
       4A    -11.254256     5A    -11.230177     6A     -1.384886
       7A     -1.227447     8A     -1.015513     9A     -0.931514
      10A     -0.785775    11A     -0.688839    12A     -0.648006
      13A     -0.632429    14A     -0.585542    15A     -0.580273
      16A     -0.554972    17A     -0.544609    18A     -0.506291
      19A     -0.413416    20A     -0.384662

  @DF-RHF Final Energy:  -247.00563959582300

   => Energetics <=

    Nuclear Repulsion Energy =            181.2910551869470339
    One-Electron Energy =                -694.9760522314850277
    Two-Electron Energy =                 266.6793574487148817
    DFT Exchange-Correlation Energy =       0.0000000000000000
    Empirical Dispersion Energy =           0.0000000000000000
    PCM Polarization Energy =               0.0000000000000000
    EFP Energy =                            0.0000000000000000
    Total Energy =                       -247.0056395958231406
    Molecular point group: c1
  Basis Set: 6-31G*
  Basis Set:

  -Total Gradient:
     Atom            X                  Y                   Z
    ------   -----------------  -----------------  -----------------
       1        0.000205213394    -0.000319013992    -0.000327760961
       2       -0.000777895471     0.000363675010     0.000954157009
       3        0.000192902637     0.000857862688     0.000315953951
       4        0.001176976195     0.000794823065    -0.002915127737
       5       -0.000604747534    -0.000110668348    -0.000100836151
       6        0.000089231417    -0.000251917174     0.000027919425
       7        0.000040887729    -0.000348230137    -0.000355098571
       8        0.000362102691    -0.001255729805     0.000887163474
       9       -0.000783374259    -0.000482645002     0.001159310567
      10        0.000155145988     0.000065080074     0.000048601174
      11       -0.000323416921     0.000316572219     0.000055474260
      12        0.000266974132     0.000370191403     0.000250243559

    Molecular point group: c1

    Geometry (in Angstrom), charge = 0, multiplicity = 1:

    H            0.093392412253    -0.093102013901     1.721332203529
    N           -0.355393976270     0.047052414056     0.845999045631
    C           -1.676297993644     0.635411278691     0.840249420510
    C            0.369161742664    -0.139097517698    -0.285597215419
    H           -2.160671534448     0.401829426701    -0.095106985719
    H           -1.641580966392     1.714494895110     0.953494790563
    H           -2.259998739260     0.215703807812     1.649809252359
    C            1.773982384787    -0.664249229135    -0.057100727175
    O           -0.064233125243     0.091698878865    -1.379550645415
    H            1.784909648043    -1.484295098022     0.652450448424
    H            2.179539015342    -0.994439152673    -1.001536231406
    H            2.403147927562     0.130296510379     0.335159104678

  Mulliken Charges: (a.u.)
   Center  Symbol    Alpha    Beta     Spin     Total
       1     H     0.31105  0.31105  0.00000  0.37790
       2     N     3.89129  3.89129  0.00000 -0.78259
       3     C     3.13885  3.13885  0.00000 -0.27770
       4     C     2.63129  2.63129  0.00000  0.73742
       5     H     0.39099  0.39099  0.00000  0.21803
       6     H     0.41564  0.41564  0.00000  0.16872
       7     H     0.41682  0.41682  0.00000  0.16636
       8     C     3.29497  3.29497  0.00000 -0.58993
       9     O     4.30137  4.30137  0.00000 -0.60275
      10     H     0.41055  0.41055  0.00000  0.17890
      11     H     0.39231  0.39231  0.00000  0.21539
      12     H     0.40488  0.40488  0.00000  0.19024

   Total alpha = 20.00000, Total beta = 20.00000, Total charge = -0.00000
