  ==> Input File <==

--------------------------------------------------------------------------
set {
	reference rhf
	basis 6-31G*
}

set_num_threads( 4 )
memory 2 gb

molecule MOL {
0 1

H	 -3.892951	 0.981613	 -0.358725
C	 -3.196921	 0.361773	 0.172313
C	 -2.076860	 -0.007332	 -0.404944
H	 -3.439953	 0.057760	 1.173024
O	 -1.180634	 -0.819263	 0.215062
H	 -1.811520	 0.292194	 -1.403480
C	 0.051604	 -1.018856	 -0.387932
C	 1.043764	 0.054862	 -0.001873
H	 -0.017620	 -1.041351	 -1.469781
H	 0.437898	 -1.966374	 -0.042284
F	 2.275730	 -0.413075	 -0.140080
F	 0.932284	 1.125447	 -0.770802
F	 0.893959	 0.440790	 1.248330

	symmetry c1
}
set optking {
	frozen_dihedral = ("
		11 8 7 9
	")
}

ee = optimize('scf')
oeprop('DIPOLE', 'QUADRUPOLE', 'MULLIKEN_CHARGES')
f=open( 'psi4out.xyz', 'w' )
f.write( "13  " )
f.write( str(ee) + "\n" )
f.write( MOL.save_string_xyz() )
f.close()
--------------------------------------------------------------------------

    Molecular point group: c1
  Charge       = 0
  Multiplicity = 1
  Basis Set: 6-31G*
  Basis Set:
  @DF-RHF Final Energy:  -527.53362166619047
    Total Energy =                       -527.5336216661905837
    Molecular point group: c1
  Basis Set: 6-31G*
  Basis Set:
  Basis Set: 6-31G*
  Basis Set:
  @DF-RHF Final Energy:  -527.53379818276426
    Total Energy =                       -527.5337981827640306
  Basis Set: 6-31G*
  Basis Set:
  Basis Set: 6-31G*
  Basis Set:
  @DF-RHF Final Energy:  -527.53388423361832
    Total Energy =                       -527.5338842336180960
  Basis Set: 6-31G*
  Basis Set:
  Basis Set: 6-31G*
  Basis Set:
  @DF-RHF Final Energy:  -527.53390948906758
    Total Energy =                       -527.5339094890675824
  Basis Set: 6-31G*
  Basis Set:
  @DF-RHF Final Energy:  -527.53392102970406
    Total Energy =                       -527.5339210297037198
  Basis Set: 6-31G*
  Basis Set:
  @DF-RHF Final Energy:  -527.53392946843780
    Total Energy =                       -527.5339294684379183
  Basis Set: 6-31G*
  Basis Set:
  Basis Set: 6-31G*
  Basis Set:
  @DF-RHF Final Energy:  -527.53393849395979
    Total Energy =                       -527.5339384939595675
  Basis Set: 6-31G*
  Basis Set:
  Basis Set: 6-31G*
  Basis Set:
  @DF-RHF Final Energy:  -527.53394005642258
    Total Energy =                       -527.5339400564225798
  Basis Set: 6-31G*
  Basis Set:
  Charge       = 0
  Multiplicity = 1
  Basis Set: 6-31G*
  Basis Set:

    Orbital Energies (a.u.)
    -----------------------

    Doubly Occupied:

       1A    -26.343785     2A    -26.343376     3A    -26.338914
       4A    -20.606833     5A    -11.503040     6A    -11.318530
       7A    -11.298669     8A    -11.217265     9A     -1.741132
      10A     -1.639454    11A     -1.636862    12A     -1.436984
      13A     -1.081860    14A     -1.016301    15A     -0.924784
      16A     -0.835380    17A     -0.829705    18A     -0.820830
      19A     -0.792716    20A     -0.718571    21A     -0.711708
      22A     -0.693848    23A     -0.675946    24A     -0.660340
      25A     -0.654945    26A     -0.642184    27A     -0.633900
      28A     -0.584427    29A     -0.563742    30A     -0.522767
      31A     -0.510220    32A     -0.353368

  @DF-RHF Final Energy:  -527.53394018260508

   => Energetics <=

    Nuclear Repulsion Energy =            414.5628812814289859
    One-Electron Energy =               -1552.8888772542761672
    Two-Electron Energy =                 610.7920557902418750
    DFT Exchange-Correlation Energy =       0.0000000000000000
    Empirical Dispersion Energy =           0.0000000000000000
    PCM Polarization Energy =               0.0000000000000000
    EFP Energy =                            0.0000000000000000
    Total Energy =                       -527.5339401826051926
    Molecular point group: c1
  Basis Set: 6-31G*
  Basis Set:

  -Total Gradient:
     Atom            X                  Y                   Z
    ------   -----------------  -----------------  -----------------
       1       -0.000001559007     0.000001780888     0.000000724633
       2        0.000006559567    -0.000007008159    -0.000000481514
       3       -0.000030750146     0.000022125518    -0.000006447178
       4        0.000001445414     0.000000151946    -0.000001662705
       5        0.000042017621    -0.000017671620     0.000016750823
       6        0.000006780847    -0.000004432654    -0.000000127498
       7        0.004300467767    -0.003910740988     0.000808497390
       8       -0.000715860824     0.002301272159    -0.004580540778
       9       -0.003569772642     0.002884818714     0.000180741460
      10        0.000007963139     0.000003535464    -0.000009521535
      11       -0.000063430549    -0.001287343076     0.003581640844
      12        0.000015234345     0.000000831357    -0.000021387052
      13        0.000000904465     0.000012680453     0.000031813115

  **** Optimization is complete! (in 9 steps) ****
    Final optimized geometry and variables:
    Molecular point group: c1

    Geometry (in Angstrom), charge = 0, multiplicity = 1:

    H           -3.780273488294     1.057910084249    -0.335595472908
    C           -3.098046624344     0.409296435674     0.178914735358
    C           -2.037877216156    -0.052694189069    -0.442716766664
    H           -3.307800294839     0.148962947831     1.199331210227
    O           -1.173306361701    -0.918657755250     0.148922890800
    H           -1.805017561241     0.201255161761    -1.462639477424
    C            0.090072259340    -1.053338549970    -0.409958224894
    C            1.020721116477     0.072047907198     0.008631063271
    H            0.033934206147    -1.054476253001    -1.493060103027
    H            0.503297337231    -1.985239366800    -0.057598891211
    F            2.280021247123    -0.317142088750    -0.125120237714
    F            0.851018158182     1.155679508455    -0.732547153714
    F            0.842439020016     0.416013685601     1.266434614231

  Mulliken Charges: (a.u.)
   Center  Symbol    Alpha    Beta     Spin     Total
       1     H     0.40684  0.40684  0.00000  0.18631
       2     C     3.23169  3.23169  0.00000 -0.46337
       3     C     2.90123  2.90123  0.00000  0.19755
       4     H     0.40117  0.40117  0.00000  0.19766
       5     O     4.29957  4.29957  0.00000 -0.59914
       6     H     0.40694  0.40694  0.00000  0.18611
       7     C     3.06695  3.06695  0.00000 -0.13390
       8     C     2.45493  2.45493  0.00000  1.09015
       9     H     0.40502  0.40502  0.00000  0.18996
      10     H     0.38834  0.38834  0.00000  0.22332
      11     F     4.68305  4.68305  0.00000 -0.36611
      12     F     4.68069  4.68069  0.00000 -0.36137
      13     F     4.67358  4.67358  0.00000 -0.34717

   Total alpha = 32.00000, Total beta = 32.00000, Total charge =  0.00000
