                              Psi4 1.0.54 Driver

  ==> Input File <==

--------------------------------------------------------------------------
set {
	reference rhf
	basis cc-pvtz
}

set_num_threads( 4 )
memory 2 gb

molecule MOL {
0 1

H	 -2.318960	 -0.405926	 2.418269
C	 -2.150884	 -1.441934	 2.133098
O	 -0.958172	 -1.590832	 1.438255
H	 -2.089307	 -2.043247	 3.028374
H	 -3.001892	 -1.778722	 1.543822
C	 -0.894676	 -0.876215	 0.247907
C	 0.474637	 -1.027342	 -0.365678
H	 -1.639600	 -1.247942	 -0.455569
H	 -1.094300	 0.179016	 0.421309
O	 1.401606	 -0.295166	 0.366636
H	 0.744061	 -2.081154	 -0.383662
H	 0.441207	 -0.671446	 -1.395334
C	 2.714315	 -0.441627	 -0.061017
H	 2.765292	 -0.641548	 -1.128869
H	 3.305661	 0.447341	 0.150952
H	 3.143725	 -1.278506	 0.470147

	symmetry c1
}
set optking {
	frozen_dihedral = ("
		7 10 13 14
	")
}

ee,wfn = optimize('scf', return_wfn=True)
oeprop( wfn, 'DIPOLE', 'QUADRUPOLE', 'MULLIKEN_CHARGES')
f=open( 'psi4out.xyz', 'w' )
f.write( "16  " )
f.write( str(ee) + "\n" )
f.write( MOL.save_string_xyz() )
f.close()
--------------------------------------------------------------------------

    Molecular point group: c1
  Charge       = 0
  Multiplicity = 1
  Basis Set: CC-PVTZ
  Basis Set:
  @DF-RHF Final Energy:  -307.09533891554707
    Total Energy =                       -307.0953389155470177
    Molecular point group: c1
  Basis Set: CC-PVTZ
  Basis Set:
  Basis Set: CC-PVTZ
  Basis Set:
  @DF-RHF Final Energy:  -307.09596772236040
    Total Energy =                       -307.0959677223604558
  Basis Set: CC-PVTZ
  Basis Set:
  Basis Set: CC-PVTZ
  Basis Set:
  @DF-RHF Final Energy:  -307.09611621089226
    Total Energy =                       -307.0961162108924327
  Basis Set: CC-PVTZ
  Basis Set:
  Charge       = 0
  Multiplicity = 1
  Basis Set: CC-PVTZ
  Basis Set:

    Orbital Energies (a.u.)
    -----------------------

    Doubly Occupied:

       1A    -20.547673     2A    -20.545931     3A    -11.267679
       4A    -11.266789     5A    -11.261485     6A    -11.261357
       7A     -1.390593     8A     -1.373134     9A     -1.031891
      10A     -0.937154    11A     -0.892259    12A     -0.824315
      13A     -0.685606    14A     -0.682034    15A     -0.659364
      16A     -0.636339    17A     -0.631779    18A     -0.598166
      19A     -0.551583    20A     -0.538301    21A     -0.509248
      22A     -0.479975    23A     -0.464547    24A     -0.421596
      25A     -0.411923

  @DF-RHF Final Energy:  -307.09611724232565

   => Energetics <=

    Nuclear Repulsion Energy =            258.7755332233709282
    One-Electron Energy =                -932.0018579521693027
    Two-Electron Energy =                 366.1302074864726706
    DFT Exchange-Correlation Energy =       0.0000000000000000
    Empirical Dispersion Energy =           0.0000000000000000
    PCM Polarization Energy =               0.0000000000000000
    EFP Energy =                            0.0000000000000000
    Total Energy =                       -307.0961172423256471
    Molecular point group: c1
  Basis Set: CC-PVTZ
  Basis Set:

  -Total Gradient:
     Atom            X                  Y                   Z
    ------   -----------------  -----------------  -----------------
       1       -0.000001951764     0.000000686641     0.000001431502
       2       -0.000002140982     0.000008851961     0.000001000474
       3       -0.000002161705    -0.000016834951     0.000010129747
       4        0.000003137691    -0.000001302798    -0.000003438759
       5        0.000003860527    -0.000001944500    -0.000002102311
       6        0.000050692900     0.000037742560     0.000058387801
       7       -0.000300380134     0.001780680054    -0.001525095149
       8        0.000033346005    -0.000001878993    -0.000016506367
       9       -0.000009728493     0.000009773707    -0.000002249887
      10        0.000469912356    -0.003384332855     0.002150546078
      11        0.000028307987     0.000029725823     0.000027893359
      12       -0.000002430727    -0.000003629106    -0.000005448265
      13       -0.000018199293     0.004345750081    -0.001165385271
      14       -0.000174869160    -0.002822999983     0.000451622120
      15       -0.000063648664     0.000019698968     0.000005815434
      16       -0.000013746542     0.000000013393     0.000013399491

  **** Optimization is complete! (in 4 steps) ****
    Final optimized geometry and variables:
    Molecular point group: c1

    Geometry (in Angstrom), charge = 0, multiplicity = 1:

    H           -2.373201066323     0.512027639210     1.850889811772
    C           -2.218513412954    -0.518746144964     1.540357538136
    O           -1.043932088693    -0.659975455522     0.813780140625
    H           -2.139052657520    -1.138957258569     2.421213036095
    H           -3.085582268092    -0.838343067375     0.965064975410
    C           -1.004796324762     0.078836627230    -0.362765858767
    C            0.348440658597    -0.066144428979    -1.012097301410
    H           -1.768046741602    -0.274725384472    -1.055987602791
    H           -1.194394918429     1.131241349711    -0.163031721761
    O            1.294154001415     0.650116971651    -0.286932107892
    H            0.609344859884    -1.121310312655    -1.056854080686
    H            0.292727877273     0.311022664304    -2.032504887383
    C            2.605655066038     0.516766875548    -0.732263626157
    H            2.651525067858     0.336816309678    -1.803118292493
    H            3.141260216843     1.426730293546    -0.501233864398
    H            3.099701426645    -0.315597948567    -0.237473635965

  Mulliken Charges: (a.u.)
   Center  Symbol    Alpha    Beta     Spin     Total
       1     H     0.47015  0.47015  0.00000  0.05971
       2     C     3.03202  3.03202  0.00000 -0.06404
       3     O     4.17050  4.17050  0.00000 -0.34101
       4     H     0.44639  0.44639  0.00000  0.10723
       5     H     0.47370  0.47370  0.00000  0.05261
       6     C     2.96196  2.96196  0.00000  0.07607
       7     C     2.95959  2.95959  0.00000  0.08083
       8     H     0.47608  0.47608  0.00000  0.04785
       9     H     0.47097  0.47097  0.00000  0.05807
      10     O     4.17301  4.17301  0.00000 -0.34602
      11     H     0.47141  0.47141  0.00000  0.05718
      12     H     0.47538  0.47538  0.00000  0.04925
      13     C     3.02993  3.02993  0.00000 -0.05985
      14     H     0.47499  0.47499  0.00000  0.05001
      15     H     0.45080  0.45080  0.00000  0.09839
      16     H     0.46314  0.46314  0.00000  0.07373

   Total alpha = 25.00000, Total beta = 25.00000, Total charge = -0.00000

*** Psi4 exiting successfully. Buy a developer a beer!
