  ==> Input File <==

--------------------------------------------------------------------------
set {
	reference rhf
	basis cc-pvtz
}

set_num_threads( 4 )
memory 2 gb

molecule MOL {
0 1

O	 -1.510770	 1.240811	 -0.054933
C	 -1.081510	 0.147522	 0.122720
C	 0.327029	 -0.064006	 0.641890
C	 -1.903028	 -1.084121	 -0.174656
C	 1.349460	 -0.017068	 -0.500215
H	 0.399029	 -1.014606	 1.159950
H	 0.538021	 0.726928	 1.350471
C	 1.280658	 -1.249989	 -1.394037
H	 1.186913	 0.872824	 -1.101470
H	 2.341375	 0.073068	 -0.073241
H	 2.019671	 -1.196869	 -2.184649
H	 0.304769	 -1.345578	 -1.857994
H	 1.467306	 -2.154156	 -0.825253
H	 -1.341891	 -1.779207	 -0.789259
H	 -2.820449	 -0.808163	 -0.671328
H	 -2.133314	 -1.593056	 0.755831

	symmetry c1
}
set optking {
	frozen_dihedral = ("
		9 5 3 2
	")
}

ee = optimize('scf')
oeprop('DIPOLE', 'QUADRUPOLE', 'MULLIKEN_CHARGES')
f=open( 'psi4out.xyz', 'w' )
f.write( "16  " )
f.write( str(ee) + "\n" )
f.write( MOL.save_string_xyz() )
f.close()
--------------------------------------------------------------------------

    Molecular point group: c1
  Charge       = 0
  Multiplicity = 1
  Basis Set: CC-PVTZ
  Basis Set:
  @DF-RHF Final Energy:  -270.12501543313488
    Total Energy =                       -270.1250154331347630
    Molecular point group: c1
  Basis Set: CC-PVTZ
  Basis Set:
  Basis Set: CC-PVTZ
  Basis Set:
  @DF-RHF Final Energy:  -270.12709078881187
    Total Energy =                       -270.1270907888120973
  Basis Set: CC-PVTZ
  Basis Set:
  Basis Set: CC-PVTZ
  Basis Set:
  @DF-RHF Final Energy:  -270.12601521408362
    Total Energy =                       -270.1260152140835658
  Basis Set: CC-PVTZ
  Basis Set:
  Basis Set: CC-PVTZ
  Basis Set:
  @DF-RHF Final Energy:  -270.12780625334256
    Total Energy =                       -270.1278062533426692
  Basis Set: CC-PVTZ
  Basis Set:
  @DF-RHF Final Energy:  -270.12798187049930
    Total Energy =                       -270.1279818704993545
  @DF-RHF Final Energy:  -270.12812100370792
    Total Energy =                       -270.1281210037079745
  @DF-RHF Final Energy:  -270.12824464520440
    Total Energy =                       -270.1282446452047452
  @DF-RHF Final Energy:  -270.12859276844262
    Total Energy =                       -270.1285927684427293
  @DF-RHF Final Energy:  -270.12894361717599
    Total Energy =                       -270.1289436171758211
  @DF-RHF Final Energy:  -270.12931545598542
    Total Energy =                       -270.1293154559855338
  @DF-RHF Final Energy:  -270.12971843390744
    Total Energy =                       -270.1297184339073851
  @DF-RHF Final Energy:  -270.13045865446588
    Total Energy =                       -270.1304586544658832
  Basis Set: CC-PVTZ
  Basis Set:
  @DF-RHF Final Energy:  -270.13050867881520
    Total Energy =                       -270.1305086788150334
  Basis Set: CC-PVTZ
  Basis Set:
  Basis Set: CC-PVTZ
  Basis Set:
  @DF-RHF Final Energy:  -270.13053346543967
    Total Energy =                       -270.1305334654399530
  Basis Set: CC-PVTZ
  Basis Set:
  Basis Set: CC-PVTZ
  Basis Set:
  @DF-RHF Final Energy:  -270.13053547502875
    Total Energy =                       -270.1305354750289780
  Basis Set: CC-PVTZ
  Basis Set:
  Charge       = 0
  Multiplicity = 1
  Basis Set: CC-PVTZ
  Basis Set:

    Orbital Energies (a.u.)
    -----------------------

    Doubly Occupied:

       1A    -20.539551     2A    -11.321924     3A    -11.231215
       4A    -11.227496     5A    -11.218700     6A    -11.205886
       7A     -1.400052     8A     -1.077145     9A     -1.016110
      10A     -0.945676    11A     -0.827394    12A     -0.728717
      13A     -0.666382    14A     -0.638644    15A     -0.625549
      16A     -0.594682    17A     -0.583800    18A     -0.553080
      19A     -0.547792    20A     -0.504682    21A     -0.488049
      22A     -0.480260    23A     -0.477611    24A     -0.403139

  @DF-RHF Final Energy:  -270.13053640209205

   => Energetics <=

    Nuclear Repulsion Energy =            241.5079880854211751
    One-Electron Energy =                -844.6699735607198818
    Two-Electron Energy =                 333.0314490732066020
    DFT Exchange-Correlation Energy =       0.0000000000000000
    Empirical Dispersion Energy =           0.0000000000000000
    PCM Polarization Energy =               0.0000000000000000
    EFP Energy =                            0.0000000000000000
    Total Energy =                       -270.1305364020921047
    Molecular point group: c1
  Basis Set: CC-PVTZ
  Basis Set:

  -Total Gradient:
     Atom            X                  Y                   Z
    ------   -----------------  -----------------  -----------------
       1       -0.000020132613     0.000016734268    -0.000050210069
       2        0.000042427380     0.000125632310     0.000077541002
       3       -0.000003665541    -0.000211744222    -0.000154028391
       4       -0.000029221230     0.000033474441     0.000019321257
       5        0.000156485775     0.000155418014     0.000298386325
       6       -0.000008353485    -0.000022347021     0.000007622269
       7        0.000004642100     0.000001774211    -0.000015806521
       8       -0.000015495216     0.000023561592     0.000049313439
       9       -0.000108691808    -0.000095489986    -0.000213650695
      10        0.000029690425    -0.000009621687     0.000009836774
      11        0.000023139623     0.000016843949    -0.000003878595
      12       -0.000044419936    -0.000007888836    -0.000035386484
      13       -0.000006908234     0.000010716492     0.000003007335
      14        0.000006100239    -0.000025763639    -0.000017806221
      15       -0.000018960753    -0.000004122160    -0.000003387416
      16       -0.000006636724    -0.000007177728     0.000029125990

  **** Optimization is complete! (in 16 steps) ****
    Final optimized geometry and variables:
    Molecular point group: c1

    Geometry (in Angstrom), charge = 0, multiplicity = 1:

    O           -1.025753501831     0.792286970693    -0.777749210939
    C           -0.903606980964     0.126813726810     0.198170710925
    C            0.437399886912    -0.087002234553     0.874219739802
    C           -2.092246109926    -0.542199008762     0.849291456464
    C            1.649637935179     0.338703739162     0.052855342888
    H            0.514252312083    -1.129245631761     1.172101469531
    H            0.394172349088     0.478568398618     1.802832489127
    C            1.950542372259    -0.592130164769    -1.118245281687
    H            1.489835565110     1.343911725339    -0.315403849706
    H            2.511294607847     0.374704230370     0.711468299201
    H            2.828218833441    -0.257111653803    -1.658490481425
    H            1.124536297371    -0.623463043254    -1.817019115496
    H            2.143197353525    -1.603652924376    -0.773840157254
    H           -2.025357669479    -1.614616843845     0.697095935285
    H           -3.007448789819    -0.176114846597     0.409876538670
    H           -2.096914570198    -0.367801458597     1.919101477487

  Mulliken Charges: (a.u.)
   Center  Symbol    Alpha    Beta     Spin     Total
       1     O     4.17292  4.17292  0.00000 -0.34585
       2     C     2.86148  2.86148  0.00000  0.27705
       3     C     3.11489  3.11489  0.00000 -0.22978
       4     C     3.15067  3.15067  0.00000 -0.30134
       5     C     3.08455  3.08455  0.00000 -0.16911
       6     H     0.44560  0.44560  0.00000  0.10879
       7     H     0.43739  0.43739  0.00000  0.12521
       8     C     3.15264  3.15264  0.00000 -0.30529
       9     H     0.44494  0.44494  0.00000  0.11011
      10     H     0.44801  0.44801  0.00000  0.10397
      11     H     0.44763  0.44763  0.00000  0.10473
      12     H     0.44451  0.44451  0.00000  0.11098
      13     H     0.45902  0.45902  0.00000  0.08196
      14     H     0.44914  0.44914  0.00000  0.10172
      15     H     0.43573  0.43573  0.00000  0.12854
      16     H     0.45085  0.45085  0.00000  0.09830

   Total alpha = 24.00000, Total beta = 24.00000, Total charge = -0.00000
