                              Psi4 1.0.54 Driver

  ==> Input File <==

--------------------------------------------------------------------------
set {
	reference rhf
	basis cc-pvtz
}

set_num_threads( 4 )
memory 2 gb

molecule MOL {
0 1

H	 1.039608	 1.848548	 0.142167
O	 0.222817	 1.372822	 0.144169
C	 0.489979	 0.078084	 0.002623
C	 -0.763662	 -0.754014	 0.000816
O	 1.594710	 -0.330850	 -0.098637
C	 -2.038001	 0.074705	 -0.000833
H	 -0.712945	 -1.405886	 -0.864342
H	 -0.715137	 -1.405770	 0.866182
H	 -2.087267	 0.710831	 -0.874232
H	 -2.903419	 -0.576199	 -0.001922
H	 -2.089467	 0.710909	 0.872389

	symmetry c1
}
set optking {
	frozen_dihedral = ("
		2 3 4 7
	")
}

ee,wfn = optimize('scf', return_wfn=True)
oeprop( wfn, 'DIPOLE', 'QUADRUPOLE', 'MULLIKEN_CHARGES')
f=open( 'psi4out.xyz', 'w' )
f.write( "11  " )
f.write( str(ee) + "\n" )
f.write( MOL.save_string_xyz() )
f.close()
--------------------------------------------------------------------------

    Molecular point group: c1
  Charge       = 0
  Multiplicity = 1
  Basis Set: CC-PVTZ
  Basis Set:
  @DF-RHF Final Energy:  -266.94925713910743
    Total Energy =                       -266.9492571391074307
    Molecular point group: c1
  Basis Set: CC-PVTZ
  Basis Set:
  Basis Set: CC-PVTZ
  Basis Set:
  @DF-RHF Final Energy:  -266.95015437334786
    Total Energy =                       -266.9501543733477433
  Basis Set: CC-PVTZ
  Basis Set:
  Basis Set: CC-PVTZ
  Basis Set:
  @DF-RHF Final Energy:  -266.95034247250265
    Total Energy =                       -266.9503424725027116
  Basis Set: CC-PVTZ
  Basis Set:
  Basis Set: CC-PVTZ
  Basis Set:
  @DF-RHF Final Energy:  -266.95044738098642
    Total Energy =                       -266.9504473809863612
  Basis Set: CC-PVTZ
  Basis Set:
  Basis Set: CC-PVTZ
  Basis Set:
  @DF-RHF Final Energy:  -266.95048994416629
    Total Energy =                       -266.9504899441664065
  Basis Set: CC-PVTZ
  Basis Set:
  Basis Set: CC-PVTZ
  Basis Set:
  @DF-RHF Final Energy:  -266.95048650424684
    Total Energy =                       -266.9504865042468964
  Basis Set: CC-PVTZ
  Basis Set:
  Charge       = 0
  Multiplicity = 1
  Basis Set: CC-PVTZ
  Basis Set:

    Orbital Energies (a.u.)
    -----------------------

    Doubly Occupied:

       1A    -20.608110     2A    -20.536922     3A    -11.375074
       4A    -11.243288     5A    -11.223093     6A     -1.480008
       7A     -1.368781     8A     -1.067361     9A     -0.910676
      10A     -0.827172    11A     -0.706013    12A     -0.676466
      13A     -0.665197    14A     -0.598257    15A     -0.589159
      16A     -0.557033    17A     -0.524153    18A     -0.519421
      19A     -0.474132    20A     -0.443294

  @DF-RHF Final Energy:  -266.95049806100201

   => Energetics <=

    Nuclear Repulsion Energy =            180.4094614215995307
    One-Electron Energy =                -721.9327015810956709
    Two-Electron Energy =                 274.5727420984940181
    DFT Exchange-Correlation Energy =       0.0000000000000000
    Empirical Dispersion Energy =           0.0000000000000000
    PCM Polarization Energy =               0.0000000000000000
    EFP Energy =                            0.0000000000000000
    Total Energy =                       -266.9504980610021221
    Molecular point group: c1
  Basis Set: CC-PVTZ
  Basis Set:

  -Total Gradient:
     Atom            X                  Y                   Z
    ------   -----------------  -----------------  -----------------
       1        0.000009440969     0.000005346002    -0.000000627191
       2       -0.000001982995     0.000012543324    -0.000201267412
       3       -0.000089439168     0.000014702199     0.000258162249
       4        0.000073753881    -0.000119027725     0.000069055668
       5        0.000069406375    -0.000021844233    -0.000006207703
       6        0.000026102748    -0.000019768279    -0.000006660305
       7       -0.000078806262     0.000151521583    -0.000124098107
       8        0.000007989568    -0.000030956413     0.000005555218
       9       -0.000003946240     0.000001911830     0.000002187077
      10       -0.000007749386     0.000000507389     0.000000939019
      11       -0.000004769490     0.000005064320     0.000002961487

  **** Optimization is complete! (in 7 steps) ****
    Final optimized geometry and variables:
    Molecular point group: c1

    Geometry (in Angstrom), charge = 0, multiplicity = 1:

    H            1.362227240451     1.581070461338     0.235170542533
    O            0.484539180003     1.231677346145     0.191312951381
    C            0.570094550822    -0.079704333413     0.007823712153
    C           -0.762813612936    -0.784140594728    -0.072014022817
    O            1.611497084826    -0.634925249113    -0.077562646856
    C           -2.004346472312     0.097569517316    -0.071904173054
    H           -0.719578295938    -1.397012877397    -0.963747046566
    H           -0.779629100560    -1.475406356684     0.763060251574
    H           -2.005292373817     0.779774805752    -0.911952752587
    H           -2.890267397960    -0.521556384338    -0.140318467731
    H           -2.072993725799     0.686151560319     0.832941295834

  Mulliken Charges: (a.u.)
   Center  Symbol    Alpha    Beta     Spin     Total
       1     H     0.38392  0.38392  0.00000  0.23217
       2     O     4.15137  4.15137  0.00000 -0.30275
       3     C     2.80607  2.80607  0.00000  0.38786
       4     C     3.09741  3.09741  0.00000 -0.19482
       5     O     4.19828  4.19828  0.00000 -0.39655
       6     C     3.14189  3.14189  0.00000 -0.28379
       7     H     0.43631  0.43631  0.00000  0.12738
       8     H     0.43856  0.43856  0.00000  0.12288
       9     H     0.44887  0.44887  0.00000  0.10226
      10     H     0.44918  0.44918  0.00000  0.10165
      11     H     0.44814  0.44814  0.00000  0.10371

   Total alpha = 20.00000, Total beta = 20.00000, Total charge =  0.00000

*** Psi4 exiting successfully. Buy a developer a beer!
