  ==> Input File <==

--------------------------------------------------------------------------
set {
	reference rhf
	basis 6-31G*
}

set_num_threads( 1 )
memory 2 gb

molecule MOL {
0 1

O	 -1.276010	 1.052711	 -0.768302
C	 -1.204840	 0.067374	 -0.106123
C	 -2.388195	 -0.672128	 0.458071
O	 -0.067104	 -0.527208	 0.221609
H	 -2.388023	 -1.694060	 0.097175
H	 -3.300579	 -0.174919	 0.164318
H	 -2.315377	 -0.706351	 1.539059
C	 -0.110042	 -1.822128	 0.837455
C	 1.174195	 -1.945811	 1.638096
C	 -0.251326	 -2.894821	 -0.231196
H	 -0.965439	 -1.847921	 1.496347
H	 1.242927	 -1.154794	 2.376212
H	 1.202415	 -2.899789	 2.154295
H	 2.039546	 -1.882158	 0.987121
H	 -0.261272	 -3.878766	 0.226810
H	 -1.175119	 -2.769252	 -0.781482
H	 0.581145	 -2.849633	 -0.926149

	symmetry c1
}
set optking {
	frozen_dihedral = ("
		11 8 4 2
	")
}

ee = energy('scf')
oeprop('DIPOLE', 'QUADRUPOLE', 'MULLIKEN_CHARGES')
f=open( 'psi4out.xyz', 'w' )
f.write( "17  " )
f.write( str(ee) + "\n" )
f.write( MOL.save_string_xyz() )
f.close()
--------------------------------------------------------------------------

    Molecular point group: c1

    Geometry (in Angstrom), charge = 0, multiplicity = 1:

       Center              X                  Y                   Z               Mass
    ------------   -----------------  -----------------  -----------------  -----------------
           O         -0.685942567238     2.020866984732    -1.060287709490    15.994914619560
           C         -0.614772567238     1.035529984732    -0.398108709490    12.000000000000
           C         -1.798127567238     0.296027984732     0.166085290510    12.000000000000
           O          0.522963432762     0.440947984732    -0.070376709490    15.994914619560
           H         -1.797955567238    -0.725904015268    -0.194810709490     1.007825032070
           H         -2.710511567238     0.793236984732    -0.127667709490     1.007825032070
           H         -1.725309567238     0.261804984732     1.247073290510     1.007825032070
           C          0.480025432762    -0.853972015268     0.545469290510    12.000000000000
           C          1.764262432762    -0.977655015268     1.346110290510    12.000000000000
           C          0.338741432762    -1.926665015268    -0.523181709490    12.000000000000
           H         -0.375371567238    -0.879765015268     1.204361290510     1.007825032070
           H          1.832994432762    -0.186638015268     2.084226290510     1.007825032070
           H          1.792482432762    -1.931633015268     1.862309290510     1.007825032070
           H          2.629613432762    -0.914002015268     0.695135290510     1.007825032070
           H          0.328795432762    -2.910610015268    -0.065175709490     1.007825032070
           H         -0.585051567238    -1.801096015268    -1.073467709490     1.007825032070
           H          1.171212432762    -1.881477015268    -1.218134709490     1.007825032070

  Charge       = 0
  Multiplicity = 1
  Basis Set: 6-31G*
  Basis Set:

    Orbital Energies (a.u.)
    -----------------------

    Doubly Occupied:

       1A    -20.601806     2A    -20.541093     3A    -11.375995
       4A    -11.304843     5A    -11.237175     6A    -11.233162
       7A    -11.228272     8A     -1.464070     9A     -1.366586
      10A     -1.081957    11A     -1.025692    12A     -0.961218
      13A     -0.862435    14A     -0.775775    15A     -0.706307
      16A     -0.674150    17A     -0.666143    18A     -0.632507
      19A     -0.599799    20A     -0.573243    21A     -0.569297
      22A     -0.557560    23A     -0.550269    24A     -0.530490
      25A     -0.509481    26A     -0.498888    27A     -0.442908
      28A     -0.430302

  @DF-RHF Final Energy:  -344.88353996050512

   => Energetics <=

    Nuclear Repulsion Energy =            326.8339202033884021
    One-Electron Energy =               -1117.4320256768787658
    Two-Electron Energy =                 445.7145655129846773
    DFT Exchange-Correlation Energy =       0.0000000000000000
    Empirical Dispersion Energy =           0.0000000000000000
    PCM Polarization Energy =               0.0000000000000000
    EFP Energy =                            0.0000000000000000
    Total Energy =                       -344.8835399605056864

  Mulliken Charges: (a.u.)
   Center  Symbol    Alpha    Beta     Spin     Total
       1     O     4.27354  4.27354  0.00000 -0.54708
       2     C     2.60074  2.60074  0.00000  0.79851
       3     C     3.32665  3.32665  0.00000 -0.65329
       4     O     4.30621  4.30621  0.00000 -0.61242
       5     H     0.40209  0.40209  0.00000  0.19582
       6     H     0.38862  0.38862  0.00000  0.22276
       7     H     0.39828  0.39828  0.00000  0.20344
       8     C     2.93946  2.93946  0.00000  0.12108
       9     C     3.23744  3.23744  0.00000 -0.47488
      10     C     3.24672  3.24672  0.00000 -0.49344
      11     H     0.41098  0.41098  0.00000  0.17805
      12     H     0.40877  0.40877  0.00000  0.18245
      13     H     0.41851  0.41851  0.00000  0.16298
      14     H     0.40816  0.40816  0.00000  0.18369
      15     H     0.41500  0.41500  0.00000  0.16999
      16     H     0.41423  0.41423  0.00000  0.17153
      17     H     0.40460  0.40460  0.00000  0.19080

   Total alpha = 28.00000, Total beta = 28.00000, Total charge =  0.00000
