  ==> Input File <==

--------------------------------------------------------------------------
set {
	reference rhf
	basis 6-31G*
}

set_num_threads( 4 )
memory 2 gb

molecule MOL {
0 1

H	 -2.485040	 -0.750161	 -0.736569
O	 -2.347518	 -0.290803	 0.079804
C	 -1.184022	 0.487508	 -0.006784
C	 0.062599	 -0.378592	 0.031606
H	 -1.176523	 1.099369	 -0.904519
H	 -1.187323	 1.153111	 0.844927
O	 1.171513	 0.459272	 -0.058250
H	 0.050699	 -1.089204	 -0.797170
H	 0.078739	 -0.954914	 0.954740
C	 2.397842	 -0.198080	 -0.002151
H	 2.508049	 -0.905315	 -0.822092
H	 3.173794	 0.550865	 -0.078850
H	 2.517602	 -0.735921	 0.936026

	symmetry c1
}
set optking {
	frozen_dihedral = ("
		1 2 3 5
	")
}

ee = optimize('scf')
oeprop('DIPOLE', 'QUADRUPOLE', 'MULLIKEN_CHARGES')
f=open( 'psi4out.xyz', 'w' )
f.write( "13  " )
f.write( str(ee) + "\n" )
f.write( MOL.save_string_xyz() )
f.close()
--------------------------------------------------------------------------

    Molecular point group: c1
  Charge       = 0
  Multiplicity = 1
  Basis Set: 6-31G*
  Basis Set:
  @DF-RHF Final Energy:  -267.95063759228753
    Total Energy =                       -267.9506375922875350
    Molecular point group: c1
  Basis Set: 6-31G*
  Basis Set:
  Charge       = 0
  Multiplicity = 1
  Basis Set: 6-31G*
  Basis Set:

    Orbital Energies (a.u.)
    -----------------------

    Doubly Occupied:

       1A    -20.562683     2A    -20.560252     3A    -11.271245
       4A    -11.270493     5A    -11.269033     6A     -1.389055
       7A     -1.365268     8A     -1.018684     9A     -0.913498
      10A     -0.842300    11A     -0.709294    12A     -0.674280
      13A     -0.661149    14A     -0.637101    15A     -0.595897
      16A     -0.570159    17A     -0.545477    18A     -0.489731
      19A     -0.481657    20A     -0.438647    21A     -0.422416

  @DF-RHF Final Energy:  -267.95063806463759

   => Energetics <=

    Nuclear Repulsion Energy =            190.2291585119082242
    One-Electron Energy =                -742.9829564266808575
    Two-Electron Energy =                 284.8031598501351027
    DFT Exchange-Correlation Energy =       0.0000000000000000
    Empirical Dispersion Energy =           0.0000000000000000
    PCM Polarization Energy =               0.0000000000000000
    EFP Energy =                            0.0000000000000000
    Total Energy =                       -267.9506380646374737
    Molecular point group: c1
  Basis Set: 6-31G*
  Basis Set:

  -Total Gradient:
     Atom            X                  Y                   Z
    ------   -----------------  -----------------  -----------------
       1        0.000098442945    -0.000112574702     0.000053906456
       2       -0.000208615887     0.000223633462    -0.000011765843
       3        0.000114157851    -0.000250914866    -0.000134020733
       4        0.000050506830     0.000106477837     0.000026545132
       5       -0.000089998263     0.000124250922     0.000089495379
       6       -0.000037835012    -0.000031082713    -0.000014355813
       7        0.000079693240    -0.000113077327    -0.000015648085
       8       -0.000001350253    -0.000005368131    -0.000008664641
       9       -0.000001134057     0.000003710261     0.000001126814
      10       -0.000007295757     0.000067959751     0.000018677092
      11       -0.000019226874     0.000003659135    -0.000007967662
      12        0.000017444523    -0.000003646378    -0.000004434944
      13        0.000005210710    -0.000013027251     0.000007106847

  **** Optimization is complete! (in 2 steps) ****
    Final optimized geometry and variables:
    Molecular point group: c1

    Geometry (in Angstrom), charge = 0, multiplicity = 1:

    H           -2.487058307636    -0.748040429088    -0.738086921035
    O           -2.348802742777    -0.290142927131     0.079078540382
    C           -1.184445071617     0.486998267360    -0.006642860980
    C            0.062826163694    -0.378378212552     0.032066543866
    H           -1.176994396611     1.100095086981    -0.903511846854
    H           -1.188640661858     1.151858113326     0.845562053629
    O            1.171838958445     0.459579348841    -0.058656837071
    H            0.051387614185    -1.089788657735    -0.796121989145
    H            0.079359507344    -0.953598203711     0.955804503624
    C            2.398284389353    -0.197692087310    -0.002127953470
    H            2.507684556954    -0.905400258685    -0.821748995663
    H            3.174233455854     0.551199279708    -0.079834105066
    H            2.518260416916    -0.734838468792     0.936451790085

  Mulliken Charges: (a.u.)
   Center  Symbol    Alpha    Beta     Spin     Total
       1     H     0.28142  0.28142  0.00000  0.43717
       2     O     4.37081  4.37081  0.00000 -0.74161
       3     C     3.00427  3.00427  0.00000 -0.00855
       4     C     2.99698  2.99698  0.00000  0.00604
       5     H     0.42224  0.42224  0.00000  0.15552
       6     H     0.40837  0.40837  0.00000  0.18326
       7     O     4.30741  4.30741  0.00000 -0.61482
       8     H     0.43768  0.43768  0.00000  0.12465
       9     H     0.42325  0.42325  0.00000  0.15350
      10     C     3.08003  3.08003  0.00000 -0.16007
      11     H     0.42924  0.42924  0.00000  0.14151
      12     H     0.41064  0.41064  0.00000  0.17872
      13     H     0.42766  0.42766  0.00000  0.14468

   Total alpha = 21.00000, Total beta = 21.00000, Total charge = -0.00000
