                              Psi4 1.0.54 Driver

  ==> Input File <==

--------------------------------------------------------------------------
set {
	reference rhf
	basis cc-pvtz
}

set_num_threads( 4 )
memory 2 gb

molecule MOL {
0 1

O	 2.868453	 1.353349	 -0.000734
C	 2.841259	 0.166180	 -0.000295
C	 1.542794	 -0.614730	 -0.000853
C	 4.113372	 -0.651103	 0.000743
C	 0.288398	 0.247429	 0.000314
H	 1.557171	 -1.273139	 -0.866508
H	 1.557484	 -1.274998	 0.863344
C	 -0.993089	 -0.581367	 -0.000217
H	 0.305153	 0.900562	 -0.864701
H	 0.305567	 0.898805	 0.866656
C	 -2.258482	 0.271340	 0.000669
H	 -1.002280	 -1.233920	 -0.870484
H	 -1.002061	 -1.235367	 0.868958
C	 -1.981952	 1.768525	 -0.102792
H	 -2.823421	 0.073273	 0.908263
H	 -2.896348	 -0.033090	 -0.825513
C	 -3.251195	 2.613989	 -0.101215
H	 -1.345389	 2.073947	 0.723310
H	 -1.418391	 1.967602	 -1.010363
H	 -3.820389	 2.463444	 0.810044
H	 -3.019978	 3.670410	 -0.175611
H	 -3.893796	 2.356505	 -0.936565
H	 4.145311	 -1.294584	 -0.871587
H	 4.970080	 0.004978	 -0.000091
H	 4.145223	 -1.291980	 0.874988

	symmetry c1
}
set optking {
	frozen_dihedral = ("
		15 11 8 12
	")
}

ee,wfn = optimize('scf', return_wfn=True)
oeprop( wfn, 'DIPOLE', 'QUADRUPOLE', 'MULLIKEN_CHARGES')
f=open( 'psi4out.xyz', 'w' )
f.write( "25  " )
f.write( str(ee) + "\n" )
f.write( MOL.save_string_xyz() )
f.close()
--------------------------------------------------------------------------

    Molecular point group: c1
  Charge       = 0
  Multiplicity = 1
  Basis Set: CC-PVTZ
  Basis Set:
  @DF-RHF Final Energy:  -387.25994259156903
    Total Energy =                       -387.2599425915689153
    Molecular point group: c1
  Basis Set: CC-PVTZ
  Basis Set:
  Basis Set: CC-PVTZ
  Basis Set:
  @DF-RHF Final Energy:  -387.25490256768029
    Total Energy =                       -387.2549025676804604
  Basis Set: CC-PVTZ
  Basis Set:
  Basis Set: CC-PVTZ
  Basis Set:
  @DF-RHF Final Energy:  -387.26392342775927
    Total Energy =                       -387.2639234277593232
  Basis Set: CC-PVTZ
  Basis Set:
  Basis Set: CC-PVTZ
  Basis Set:
  @DF-RHF Final Energy:  -387.26458843762509
    Total Energy =                       -387.2645884376248659
  Basis Set: CC-PVTZ
  Basis Set:
  Basis Set: CC-PVTZ
  Basis Set:
  @DF-RHF Final Energy:  -387.26467714398984
    Total Energy =                       -387.2646771439899567
  Basis Set: CC-PVTZ
  Basis Set:
  Basis Set: CC-PVTZ
  Basis Set:
  @DF-RHF Final Energy:  -387.26465822343306
    Total Energy =                       -387.2646582234328889
  Basis Set: CC-PVTZ
  Basis Set:
  Basis Set: CC-PVTZ
  Basis Set:
  @DF-RHF Final Energy:  -387.26468621406946
    Total Energy =                       -387.2646862140695703
  Basis Set: CC-PVTZ
  Basis Set:
  Charge       = 0
  Multiplicity = 1
  Basis Set: CC-PVTZ
  Basis Set:

    Orbital Energies (a.u.)
    -----------------------

    Doubly Occupied:

       1A    -20.538840     2A    -11.320474     3A    -11.229905
       4A    -11.226548     5A    -11.215696     6A    -11.214480
       7A    -11.212199     8A    -11.210786     9A    -11.204640
      10A     -1.398858    11A     -1.092282    12A     -1.054926
      13A     -1.013698    14A     -0.967961    15A     -0.890011
      16A     -0.835884    17A     -0.768294    18A     -0.731968
      19A     -0.660584    20A     -0.653391    21A     -0.630943
      22A     -0.627377    23A     -0.595457    24A     -0.581115
      25A     -0.570579    26A     -0.560328    27A     -0.553519
      28A     -0.513626    29A     -0.506566    30A     -0.497373
      31A     -0.491963    32A     -0.486548    33A     -0.460754
      34A     -0.449567    35A     -0.443563    36A     -0.401839

  @DF-RHF Final Energy:  -387.26468599408781

   => Energetics <=

    Nuclear Repulsion Energy =            446.4389941286007115
    One-Electron Energy =               -1409.7822729731453819
    Two-Electron Energy =                 576.0785928504565163
    DFT Exchange-Correlation Energy =       0.0000000000000000
    Empirical Dispersion Energy =           0.0000000000000000
    PCM Polarization Energy =               0.0000000000000000
    EFP Energy =                            0.0000000000000000
    Total Energy =                       -387.2646859940881541
    Molecular point group: c1
  Basis Set: CC-PVTZ
  Basis Set:

  -Total Gradient:
     Atom            X                  Y                   Z
    ------   -----------------  -----------------  -----------------
       1       -0.000011054358     0.000027854639    -0.000005390898
       2        0.000002690095    -0.000009211019     0.000026542780
       3       -0.000001702703    -0.000004358881     0.000009464036
       4       -0.000000034169    -0.000010897614    -0.000009002819
       5        0.000021240637     0.000000197105    -0.000044387908
       6       -0.000003372059     0.000003765581    -0.000000822270
       7        0.000003373336    -0.000006923248     0.000001631282
       8        0.001059913717     0.001990877440    -0.001844730287
       9        0.000002325202     0.000013462299    -0.000005337741
      10        0.000015036891    -0.000016167820    -0.000001346380
      11        0.001149996379     0.001875458022     0.001893667642
      12       -0.001068272756    -0.001979288648     0.001254845945
      13       -0.000012839837    -0.000007799452    -0.000004321604
      14        0.000000878346     0.000020486862     0.000107266195
      15       -0.001119519407    -0.001895520372    -0.001324281531
      16       -0.000010722764    -0.000021284477     0.000006547919
      17       -0.000010961230     0.000000701861    -0.000032379074
      18       -0.000027239995     0.000021013965    -0.000002189342
      19        0.000022847335    -0.000002114602    -0.000009425078
      20        0.000006592090     0.000003517560     0.000003013763
      21       -0.000002500432     0.000011428689    -0.000014032581
      22       -0.000018882190    -0.000007197645    -0.000003994527
      23        0.000004976001    -0.000006529914    -0.000002422587
      24       -0.000004879806     0.000003123374    -0.000000678941
      25        0.000002111684    -0.000004593699     0.000001764008

  **** Optimization is complete! (in 8 steps) ****
    Final optimized geometry and variables:
    Molecular point group: c1

    Geometry (in Angstrom), charge = 0, multiplicity = 1:

    O            2.628036196848     0.848251520039     0.180050287258
    C            2.582216152215    -0.333108961295     0.068479478984
    C            1.272335230051    -1.088041307910    -0.033512225398
    C            3.841152653830    -1.169387482571     0.020485508191
    C            0.031986989268    -0.206566103190     0.019278853315
    H            1.297492835904    -1.663813698791    -0.955957581510
    H            1.256702673460    -1.825610486803     0.765722030062
    C           -1.249099320355    -1.033835501192    -0.083766938646
    H            0.086292284299     0.520707239271    -0.780142563528
    H            0.045002038898     0.359156377401     0.942423410680
    C           -2.597313042531    -0.267622935362    -0.033963613350
    H           -1.214766030349    -1.627242480697    -0.992531234118
    H           -1.242810079015    -1.761809863946     0.722478843632
    C           -2.549262383234     1.259017085324    -0.091556907745
    H           -3.139940558951    -0.566387679474     0.857473975300
    H           -3.213001705078    -0.609689178542    -0.860514220935
    C           -3.943802846195     1.876303843863    -0.050078163295
    H           -1.965090820544     1.648815125286     0.734601487665
    H           -2.047590212524     1.579770621698    -0.998740696530
    H           -4.464441762850     1.607281699775     0.863118956539
    H           -3.894046282293     2.958129533288    -0.095533177801
    H           -4.548257034978     1.537506855324    -0.885091331304
    H            3.883152805983    -1.729139637332    -0.907382573427
    H            4.707906267514    -0.531452096032     0.099556090868
    H            3.842649228719    -1.889439632059     0.831395368120

  Mulliken Charges: (a.u.)
   Center  Symbol    Alpha    Beta     Spin     Total
       1     O     4.17089  4.17089  0.00000 -0.34178
       2     C     2.86090  2.86090  0.00000  0.27820
       3     C     3.11569  3.11569  0.00000 -0.23138
       4     C     3.15168  3.15168  0.00000 -0.30335
       5     C     3.08454  3.08454  0.00000 -0.16908
       6     H     0.44573  0.44573  0.00000  0.10853
       7     H     0.44550  0.44550  0.00000  0.10900
       8     C     3.10072  3.10072  0.00000 -0.20143
       9     H     0.44291  0.44291  0.00000  0.11418
      10     H     0.44422  0.44422  0.00000  0.11156
      11     C     3.09161  3.09161  0.00000 -0.18322
      12     H     0.45256  0.45256  0.00000  0.09488
      13     H     0.45263  0.45263  0.00000  0.09474
      14     C     3.08862  3.08862  0.00000 -0.17725
      15     H     0.45218  0.45218  0.00000  0.09564
      16     H     0.45250  0.45250  0.00000  0.09501
      17     C     3.15146  3.15146  0.00000 -0.30292
      18     H     0.44944  0.44944  0.00000  0.10112
      19     H     0.45156  0.45156  0.00000  0.09688
      20     H     0.45554  0.45554  0.00000  0.08891
      21     H     0.44736  0.44736  0.00000  0.10528
      22     H     0.45559  0.45559  0.00000  0.08881
      23     H     0.45044  0.45044  0.00000  0.09912
      24     H     0.43539  0.43539  0.00000  0.12921
      25     H     0.45033  0.45033  0.00000  0.09933

   Total alpha = 36.00000, Total beta = 36.00000, Total charge =  0.00000

*** Psi4 exiting successfully. Buy a developer a beer!
