  ==> Input File <==

--------------------------------------------------------------------------
set {
	reference rhf
	basis 6-31G*
}

set_num_threads( 4 )
memory 2 gb

molecule MOL {
0 1

H	 2.860357	 -1.616527	 -0.712271
O	 2.826016	 -1.159218	 0.122261
C	 2.077727	 -0.067559	 -0.035091
C	 0.624473	 -0.343591	 0.253101
O	 2.542965	 0.974826	 -0.363729
C	 -0.265902	 0.883932	 0.072916
H	 0.324016	 -1.163849	 -0.390541
H	 0.565024	 -0.726111	 1.268924
C	 -1.728698	 0.646073	 0.462102
H	 -0.209144	 1.219470	 -0.958188
H	 0.135059	 1.692851	 0.673903
C	 -2.482460	 -0.343073	 -0.431425
H	 -2.245265	 1.602650	 0.432430
H	 -1.779332	 0.308348	 1.496285
C	 -3.960546	 -0.461025	 -0.060175
H	 -2.395034	 -0.026811	 -1.468912
H	 -2.024850	 -1.327147	 -0.371646
H	 -4.472726	 -1.168004	 -0.705284
H	 -4.465146	 0.496508	 -0.151489
H	 -4.081218	 -0.800940	 0.964585

	symmetry c1
}
set optking {
	frozen_dihedral = ("
		1 2 3 5
	")
}

ee = optimize('scf')
oeprop('DIPOLE', 'QUADRUPOLE', 'MULLIKEN_CHARGES')
f=open( 'psi4out.xyz', 'w' )
f.write( "20  " )
f.write( str(ee) + "\n" )
f.write( MOL.save_string_xyz() )
f.close()
--------------------------------------------------------------------------

    Molecular point group: c1
  Charge       = 0
  Multiplicity = 1
  Basis Set: 6-31G*
  Basis Set:
  @DF-RHF Final Energy:  -383.92556232732534
    Total Energy =                       -383.9255623273251103
    Molecular point group: c1
  Basis Set: 6-31G*
  Basis Set:
  Basis Set: 6-31G*
  Basis Set:
  @DF-RHF Final Energy:  -383.92613750169681
    Total Energy =                       -383.9261375016968714
  Basis Set: 6-31G*
  Basis Set:
  Basis Set: 6-31G*
  Basis Set:
  @DF-RHF Final Energy:  -383.92705515480640
    Total Energy =                       -383.9270551548063395
  Basis Set: 6-31G*
  Basis Set:
  Basis Set: 6-31G*
  Basis Set:
  @DF-RHF Final Energy:  -383.92732843257227
    Total Energy =                       -383.9273284325726650
  Basis Set: 6-31G*
  Basis Set:
  Basis Set: 6-31G*
  Basis Set:
  @DF-RHF Final Energy:  -383.92732160719595
    Total Energy =                       -383.9273216071956654
  Basis Set: 6-31G*
  Basis Set:
  Basis Set: 6-31G*
  Basis Set:
  @DF-RHF Final Energy:  -383.92733036072548
    Total Energy =                       -383.9273303607257048
  Basis Set: 6-31G*
  Basis Set:
  Charge       = 0
  Multiplicity = 1
  Basis Set: 6-31G*
  Basis Set:

    Orbital Energies (a.u.)
    -----------------------

    Doubly Occupied:

       1A    -20.593491     2A    -20.562484     3A    -11.381293
       4A    -11.242373     5A    -11.224414     6A    -11.222861
       7A    -11.221925     8A    -11.214244     9A     -1.459622
      10A     -1.366869    11A     -1.097234    12A     -1.040931
      13A     -0.959180    14A     -0.865622    15A     -0.817080
      16A     -0.782171    17A     -0.711249    18A     -0.674678
      19A     -0.663898    20A     -0.632960    21A     -0.616597
      22A     -0.587279    23A     -0.561090    24A     -0.556065
      25A     -0.528394    26A     -0.508890    27A     -0.504235
      28A     -0.491657    29A     -0.471452    30A     -0.466064
      31A     -0.459163    32A     -0.443213

  @DF-RHF Final Energy:  -383.92733466389416

   => Energetics <=

    Nuclear Repulsion Energy =            375.0430471862107424
    One-Electron Energy =               -1266.0834101521504635
    Two-Electron Energy =                 507.1130283020455636
    DFT Exchange-Correlation Energy =       0.0000000000000000
    Empirical Dispersion Energy =           0.0000000000000000
    PCM Polarization Energy =               0.0000000000000000
    EFP Energy =                            0.0000000000000000
    Total Energy =                       -383.9273346638941575
    Molecular point group: c1
  Basis Set: 6-31G*
  Basis Set:

  -Total Gradient:
     Atom            X                  Y                   Z
    ------   -----------------  -----------------  -----------------
       1       -0.002138162077    -0.001443486824     0.000586240325
       2        0.002711812004     0.002137568138     0.000269344902
       3       -0.000792347189    -0.001247561248    -0.003095025824
       4        0.000005746613     0.000003960586    -0.000004153464
       5        0.000214372661     0.000568206650     0.002245489679
       6        0.000015655561    -0.000001003273     0.000011737352
       7       -0.000016178623    -0.000008542769     0.000002788935
       8        0.000003871407    -0.000006170347     0.000003029867
       9       -0.000002834923     0.000004087926    -0.000019610361
      10       -0.000006240982    -0.000000398770    -0.000002411671
      11       -0.000003405656    -0.000003129252    -0.000005551550
      12        0.000001158443    -0.000001959530     0.000005090835
      13       -0.000002271582     0.000004285567     0.000006638156
      14        0.000008015413    -0.000006843469    -0.000006621415
      15       -0.000001411160     0.000002966180     0.000001929051
      16        0.000004761004    -0.000000151928     0.000000888850
      17       -0.000000752163    -0.000001786772     0.000000095162
      18       -0.000000117355    -0.000000087699    -0.000000363073
      19       -0.000000930908     0.000000104991     0.000000311978
      20       -0.000000740498    -0.000000058159     0.000000152266

  **** Optimization is complete! (in 7 steps) ****
    Final optimized geometry and variables:
    Molecular point group: c1

    Geometry (in Angstrom), charge = 0, multiplicity = 1:

    H            2.996566475917    -1.647506401719    -0.665106843676
    O            2.874288791027    -1.160650593863     0.140873833605
    C            2.084081870326    -0.065795264170    -0.048249828232
    C            0.627390627535    -0.334207184887     0.239565125811
    O            2.539946690334     0.981272087519    -0.343381287735
    C           -0.266826443822     0.891663496496     0.070687669860
    H            0.317988901554    -1.154401605950    -0.402815264278
    H            0.575038390991    -0.724549760384     1.253153967094
    C           -1.727231019148     0.651774093872     0.467799855076
    H           -0.217305796967     1.233644935763    -0.959057565035
    H            0.138042247402     1.697160667126     0.673512026428
    C           -2.487287430971    -0.331748746709    -0.426599006524
    H           -2.243912283383     1.608482326650     0.447433375621
    H           -1.770901823928     0.307726533187     1.500109057815
    C           -3.963147301179    -0.450925190837    -0.046990835953
    H           -2.406168436642    -0.009746736131    -1.462939325035
    H           -2.030099836574    -1.316650383457    -0.374917403409
    H           -4.479866425615    -1.154044481490    -0.692714934860
    H           -4.467517071360     0.507424960379    -0.130037639482
    H           -4.077627068950    -0.796194835461     0.976636742055

  Mulliken Charges: (a.u.)
   Center  Symbol    Alpha    Beta     Spin     Total
       1     H     0.26635  0.26635  0.00000  0.46731
       2     O     4.37050  4.37050  0.00000 -0.74100
       3     C     2.62943  2.62943  0.00000  0.74115
       4     C     3.21192  3.21192  0.00000 -0.42384
       5     O     4.24527  4.24527  0.00000 -0.49054
       6     C     3.15474  3.15474  0.00000 -0.30948
       7     H     0.40849  0.40849  0.00000  0.18302
       8     H     0.39723  0.39723  0.00000  0.20553
       9     C     3.15550  3.15550  0.00000 -0.31101
      10     H     0.41407  0.41407  0.00000  0.17185
      11     H     0.40655  0.40655  0.00000  0.18689
      12     C     3.15468  3.15468  0.00000 -0.30936
      13     H     0.41749  0.41749  0.00000  0.16501
      14     H     0.42305  0.42305  0.00000  0.15391
      15     C     3.23920  3.23920  0.00000 -0.47841
      16     H     0.42201  0.42201  0.00000  0.15598
      17     H     0.42387  0.42387  0.00000  0.15227
      18     H     0.41848  0.41848  0.00000  0.16304
      19     H     0.42023  0.42023  0.00000  0.15953
      20     H     0.42094  0.42094  0.00000  0.15812

   Total alpha = 32.00000, Total beta = 32.00000, Total charge =  0.00000
