                              Psi4 1.0.54 Driver

  ==> Input File <==

--------------------------------------------------------------------------
set {
	reference rhf
	basis cc-pvtz
}

set_num_threads( 4 )
memory 2 gb

molecule MOL {
0 1

O	 -2.736441	 -0.261356	 0.590255
C	 -1.808104	 -0.528254	 1.281910
C	 -0.568258	 -1.184672	 0.707501
C	 -1.804398	 -0.212798	 2.758813
C	 0.376695	 -0.140025	 0.100361
H	 -0.889624	 -1.874751	 -0.062321
H	 -0.050229	 -1.748031	 1.476356
C	 1.630207	 -0.772146	 -0.501001
H	 -0.168401	 0.413253	 -0.653948
H	 0.669900	 0.576611	 0.863750
C	 2.907848	 -0.545876	 0.309149
H	 1.772784	 -0.391628	 -1.509394
H	 1.468529	 -1.842059	 -0.599744
C	 3.373802	 0.906639	 0.372125
H	 3.699140	 -1.146831	 -0.127906
H	 2.764321	 -0.923458	 1.318191
H	 3.519798	 1.311927	 -0.623875
H	 4.316899	 0.983758	 0.900700
H	 2.661122	 1.540651	 0.885346
H	 -1.823844	 -1.140519	 3.321800
H	 -2.667957	 0.381766	 3.014407
H	 -0.896522	 0.311034	 3.036215

	symmetry c1
}
set optking {
	frozen_dihedral = ("
		3 5 8 12
	")
}

ee,wfn = optimize('scf', return_wfn=True)
oeprop( wfn, 'DIPOLE', 'QUADRUPOLE', 'MULLIKEN_CHARGES')
f=open( 'psi4out.xyz', 'w' )
f.write( "22  " )
f.write( str(ee) + "\n" )
f.write( MOL.save_string_xyz() )
f.close()
--------------------------------------------------------------------------

    Molecular point group: c1
  Charge       = 0
  Multiplicity = 1
  Basis Set: CC-PVTZ
  Basis Set:
  @DF-RHF Final Energy:  -348.21807116173198
    Total Energy =                       -348.2180711617321549
    Molecular point group: c1
  Basis Set: CC-PVTZ
  Basis Set:
  Basis Set: CC-PVTZ
  Basis Set:
  @DF-RHF Final Energy:  -348.21788765895309
    Total Energy =                       -348.2178876589530319
  Basis Set: CC-PVTZ
  Basis Set:
  Basis Set: CC-PVTZ
  Basis Set:
  @DF-RHF Final Energy:  -348.21850034855470
    Total Energy =                       -348.2185003485543575
  Basis Set: CC-PVTZ
  Basis Set:
  Basis Set: CC-PVTZ
  Basis Set:
  @DF-RHF Final Energy:  -348.21848110246350
    Total Energy =                       -348.2184811024635565
  Basis Set: CC-PVTZ
  Basis Set:
  @DF-RHF Final Energy:  -348.21856567748625
    Total Energy =                       -348.2185656774863673
  @DF-RHF Final Energy:  -348.21851679466010
    Total Energy =                       -348.2185167946600473
  Basis Set: CC-PVTZ
  Basis Set:
  @DF-RHF Final Energy:  -348.21854612610673
    Total Energy =                       -348.2185461261067871
  Basis Set: CC-PVTZ
  Basis Set:
  Basis Set: CC-PVTZ
  Basis Set:
  @DF-RHF Final Energy:  -348.21858673030835
    Total Energy =                       -348.2185867303084024
  Basis Set: CC-PVTZ
  Basis Set:
  Basis Set: CC-PVTZ
  Basis Set:
  @DF-RHF Final Energy:  -348.21858876206539
    Total Energy =                       -348.2185887620652238
  Basis Set: CC-PVTZ
  Basis Set:
  Charge       = 0
  Multiplicity = 1
  Basis Set: CC-PVTZ
  Basis Set:

    Orbital Energies (a.u.)
    -----------------------

    Doubly Occupied:

       1A    -20.536848     2A    -11.319028     3A    -11.228335
       4A    -11.227744     5A    -11.226908     6A    -11.221523
       7A    -11.220476     8A    -11.212292     9A     -1.396855
      10A     -1.096582    11A     -1.046073    12A     -1.000223
      13A     -0.939232    14A     -0.861474    15A     -0.786999
      16A     -0.736484    17A     -0.662570    18A     -0.650359
      19A     -0.628060    20A     -0.614190    21A     -0.602756
      22A     -0.586988    23A     -0.561123    24A     -0.548548
      25A     -0.530204    26A     -0.526639    27A     -0.502948
      28A     -0.490815    29A     -0.468924    30A     -0.464514
      31A     -0.461720    32A     -0.398657

  @DF-RHF Final Energy:  -348.21858947807203

   => Energetics <=

    Nuclear Repulsion Energy =            375.1767664420959250
    One-Electron Energy =               -1215.2785307150729750
    Two-Electron Energy =                 491.8831747949049031
    DFT Exchange-Correlation Energy =       0.0000000000000000
    Empirical Dispersion Energy =           0.0000000000000000
    PCM Polarization Energy =               0.0000000000000000
    EFP Energy =                            0.0000000000000000
    Total Energy =                       -348.2185894780722037
    Molecular point group: c1
  Basis Set: CC-PVTZ
  Basis Set:

  -Total Gradient:
     Atom            X                  Y                   Z
    ------   -----------------  -----------------  -----------------
       1        0.000041242113     0.000012165673     0.000010115468
       2       -0.000023947703    -0.000014312367     0.000016433277
       3       -0.000658437907    -0.000130322283    -0.001304288440
       4       -0.000028786304    -0.000010329280    -0.000009493702
       5        0.000654635056    -0.000179228064     0.001615319182
       6       -0.000000695467    -0.000000269849     0.000009367620
       7       -0.000005718803     0.000005133879    -0.000008320009
       8        0.001138872438     0.001850765983     0.000431651061
       9        0.000005144682    -0.000003117164     0.000006309594
      10        0.000004326918    -0.000003766989    -0.000002157308
      11       -0.000003475355    -0.000003876506     0.000019613062
      12       -0.001127152170    -0.001526435842    -0.000754909551
      13       -0.000005385098    -0.000000823842     0.000003556791
      14        0.000000811833     0.000015713654    -0.000009107259
      15       -0.000003771164    -0.000003006869    -0.000004152853
      16       -0.000005207417    -0.000013523987     0.000008577844
      17        0.000002282158     0.000009893721     0.000005948468
      18       -0.000017698064    -0.000001809403    -0.000011709608
      19        0.000011965516    -0.000006398508    -0.000003935628
      20        0.000011443884     0.000006635173     0.000000597709
      21        0.000017132765    -0.000004275722    -0.000007000299
      22       -0.000007581910     0.000001188594    -0.000012415422

  **** Optimization is complete! (in 10 steps) ****
    Final optimized geometry and variables:
    Molecular point group: c1

    Geometry (in Angstrom), charge = 0, multiplicity = 1:

    O           -2.934994994883     0.104438987415    -0.113884399008
    C           -2.001914911596    -0.169570274971     0.568494579624
    C           -0.776952140939    -0.843564434236    -0.016453807862
    C           -1.979019991496     0.151987404363     2.043975850854
    C            0.191451080493     0.188823186009    -0.610821569907
    H           -1.111330579646    -1.514794672150    -0.796604999266
    H           -0.271476825776    -1.429061178741     0.744993719563
    C            1.464343110410    -0.457282959515    -1.193409710775
    H           -0.338981789084     0.735792761169    -1.380005009588
    H            0.457716973275     0.915962318659     0.148803390670
    C            2.727064825038    -0.253917578019    -0.353902986472
    H            1.635740520329    -0.086062512169    -2.198511765833
    H            1.293907970607    -1.523044817036    -1.307138420724
    C            3.275257918614     1.170310379160    -0.387466335422
    H            3.496427088056    -0.930654248336    -0.711899945880
    H            2.525965229996    -0.543044281520     0.674919457617
    H            3.538996321700     1.457805955490    -1.399758146549
    H            4.166393462341     1.256877855135     0.223416392255
    H            2.556006321529     1.892477069088    -0.018726365359
    H           -2.017504622168    -0.773276327073     2.610043232716
    H           -2.826581675255     0.767509949237     2.303355202976
    H           -1.057318403531     0.654695480121     2.314246400004

  Mulliken Charges: (a.u.)
   Center  Symbol    Alpha    Beta     Spin     Total
       1     O     4.17711  4.17711  0.00000 -0.35422
       2     C     2.85879  2.85879  0.00000  0.28242
       3     C     3.09682  3.09682  0.00000 -0.19364
       4     C     3.15566  3.15566  0.00000 -0.31131
       5     C     3.11121  3.11121  0.00000 -0.22242
       6     H     0.43808  0.43808  0.00000  0.12384
       7     H     0.44901  0.44901  0.00000  0.10198
       8     C     3.10395  3.10395  0.00000 -0.20791
       9     H     0.43418  0.43418  0.00000  0.13164
      10     H     0.44987  0.44987  0.00000  0.10026
      11     C     3.09037  3.09037  0.00000 -0.18074
      12     H     0.44428  0.44428  0.00000  0.11145
      13     H     0.44844  0.44844  0.00000  0.10312
      14     C     3.14909  3.14909  0.00000 -0.29819
      15     H     0.44698  0.44698  0.00000  0.10604
      16     H     0.45541  0.45541  0.00000  0.08917
      17     H     0.45327  0.45327  0.00000  0.09347
      18     H     0.44712  0.44712  0.00000  0.10576
      19     H     0.45496  0.45496  0.00000  0.09007
      20     H     0.44830  0.44830  0.00000  0.10340
      21     H     0.43591  0.43591  0.00000  0.12818
      22     H     0.45119  0.45119  0.00000  0.09762

   Total alpha = 32.00000, Total beta = 32.00000, Total charge = -0.00000

*** Psi4 exiting successfully. Buy a developer a beer!
