                              Psi4 1.0.54 Driver

  ==> Input File <==

--------------------------------------------------------------------------
set {
	reference rhf
	basis cc-pvtz
}

set_num_threads( 4 )
memory 2 gb

molecule MOL {
0 1

H	 1.919216	 -1.394315	 0.776909
O	 2.012307	 -0.863440	 0.000222
C	 1.050374	 0.054877	 0.000135
C	 -0.318151	 -0.570512	 0.000144
O	 1.286319	 1.213453	 -0.000040
C	 -1.454884	 0.441630	 -0.000560
H	 -0.371613	 -1.223646	 -0.864985
H	 -0.371920	 -1.222758	 0.865929
C	 -2.822577	 -0.232186	 0.000063
H	 -1.359760	 1.084704	 -0.867077
H	 -1.359641	 1.085996	 0.864983
H	 -2.954352	 -0.858985	 -0.875745
H	 -3.615886	 0.505352	 0.000019
H	 -2.953878	 -0.858359	 0.876394

	symmetry c1
}
set optking {
	frozen_dihedral = ("
		1 2 3 5
	")
}

ee,wfn = optimize('scf', return_wfn=True)
oeprop( wfn, 'DIPOLE', 'QUADRUPOLE', 'MULLIKEN_CHARGES')
f=open( 'psi4out.xyz', 'w' )
f.write( "14  " )
f.write( str(ee) + "\n" )
f.write( MOL.save_string_xyz() )
f.close()
--------------------------------------------------------------------------

    Molecular point group: c1
  Charge       = 0
  Multiplicity = 1
  Basis Set: CC-PVTZ
  Basis Set:
  @DF-RHF Final Energy:  -305.98164353008008
    Total Energy =                       -305.9816435300798503
    Molecular point group: c1
  Basis Set: CC-PVTZ
  Basis Set:
  Basis Set: CC-PVTZ
  Basis Set:
  @DF-RHF Final Energy:  -305.98304413757444
    Total Energy =                       -305.9830441375741543
  Basis Set: CC-PVTZ
  Basis Set:
  Basis Set: CC-PVTZ
  Basis Set:
  @DF-RHF Final Energy:  -305.98309261521320
    Total Energy =                       -305.9830926152131951
  Basis Set: CC-PVTZ
  Basis Set:
  Basis Set: CC-PVTZ
  Basis Set:
  @DF-RHF Final Energy:  -305.98307333024059
    Total Energy =                       -305.9830733302403587
  Basis Set: CC-PVTZ
  Basis Set:
  Basis Set: CC-PVTZ
  Basis Set:
  @DF-RHF Final Energy:  -305.98316440177547
    Total Energy =                       -305.9831644017751842
  Basis Set: CC-PVTZ
  Basis Set:
  Charge       = 0
  Multiplicity = 1
  Basis Set: CC-PVTZ
  Basis Set:

    Orbital Energies (a.u.)
    -----------------------

    Doubly Occupied:

       1A    -20.591079     2A    -20.547580     3A    -11.374201
       4A    -11.245907     5A    -11.227375     6A    -11.218867
       7A     -1.465263     8A     -1.372742     9A     -1.086560
      10A     -0.978166    11A     -0.853131    12A     -0.808689
      13A     -0.718284    14A     -0.675473    15A     -0.665189
      16A     -0.631909    17A     -0.582119    18A     -0.567896
      19A     -0.548540    20A     -0.509612    21A     -0.497957
      22A     -0.487035    23A     -0.485566    24A     -0.446891

  @DF-RHF Final Energy:  -305.98316508231932

   => Energetics <=

    Nuclear Repulsion Energy =            239.8560031346442543
    One-Electron Energy =                -892.5062776339627817
    Two-Electron Energy =                 346.6671094169993808
    DFT Exchange-Correlation Energy =       0.0000000000000000
    Empirical Dispersion Energy =           0.0000000000000000
    PCM Polarization Energy =               0.0000000000000000
    EFP Energy =                            0.0000000000000000
    Total Energy =                       -305.9831650823192035
    Molecular point group: c1
  Basis Set: CC-PVTZ
  Basis Set:

  -Total Gradient:
     Atom            X                  Y                   Z
    ------   -----------------  -----------------  -----------------
       1        0.003240249544     0.003725198150     0.002757760689
       2       -0.004166583157    -0.004597830134    -0.001313173772
       3        0.000969535676     0.000704857682    -0.006319921779
       4        0.000036956879     0.000010750414    -0.000076637804
       5       -0.000063482701     0.000162402523     0.004903502448
       6        0.000003481616     0.000014324734     0.000016285853
       7       -0.000015889892    -0.000007781735     0.000023405320
       8        0.000004745267     0.000000290891     0.000024217897
       9       -0.000006304564    -0.000001102547    -0.000003417008
      10       -0.000000461702    -0.000000994115    -0.000001949443
      11        0.000003305006    -0.000008971684    -0.000010825194
      12       -0.000000932696     0.000000830162    -0.000000764398
      13       -0.000004146230    -0.000001315142     0.000000167624
      14       -0.000000473044    -0.000000659199     0.000001349567

  **** Optimization is complete! (in 6 steps) ****
    Final optimized geometry and variables:
    Molecular point group: c1

    Geometry (in Angstrom), charge = 0, multiplicity = 1:

    H            2.028490826011    -1.384180150857     0.817562474649
    O            2.066441103519    -0.843983447520     0.046462973071
    C            1.057562912198     0.057753344827     0.010871683501
    C           -0.319617663468    -0.558037986603    -0.012429938264
    O            1.281784150038     1.209489089159    -0.016861189059
    C           -1.454249665588     0.456304405510    -0.027217153947
    H           -0.360541377580    -1.206894812572    -0.881808419509
    H           -0.403533841787    -1.217279352211     0.848928231231
    C           -2.824463684226    -0.211799732442    -0.056642334850
    H           -1.338641698292     1.103040276822    -0.888060315952
    H           -1.372691020683     1.095886629545     0.843443259386
    H           -2.941785705738    -0.833169155375    -0.938282984280
    H           -3.614360783592     0.529165233485    -0.068277926319
    H           -2.976381731185    -0.841880174437     0.813748326166

  Mulliken Charges: (a.u.)
   Center  Symbol    Alpha    Beta     Spin     Total
       1     H     0.38927  0.38927  0.00000  0.22145
       2     O     4.16462  4.16462  0.00000 -0.32923
       3     C     2.80328  2.80328  0.00000  0.39345
       4     C     3.11550  3.11550  0.00000 -0.23100
       5     O     4.16228  4.16228  0.00000 -0.32457
       6     C     3.08169  3.08169  0.00000 -0.16338
       7     H     0.43619  0.43619  0.00000  0.12762
       8     H     0.45188  0.45188  0.00000  0.09625
       9     C     3.15014  3.15014  0.00000 -0.30029
      10     H     0.44324  0.44324  0.00000  0.11352
      11     H     0.44626  0.44626  0.00000  0.10748
      12     H     0.45491  0.45491  0.00000  0.09018
      13     H     0.44434  0.44434  0.00000  0.11131
      14     H     0.45640  0.45640  0.00000  0.08720

   Total alpha = 24.00000, Total beta = 24.00000, Total charge = -0.00000

*** Psi4 exiting successfully. Buy a developer a beer!
