                              Psi4 1.0.54 Driver

  ==> Input File <==

--------------------------------------------------------------------------
set {
	reference rhf
	basis cc-pvtz
}

set_num_threads( 4 )
memory 2 gb

molecule MOL {
0 1

H	 -3.401682	 -1.036167	 0.000000
O	 -3.113760	 -0.140926	 0.000000
C	 -1.775087	 -0.058754	 0.000000
C	 -1.013778	 -0.415399	 1.106186
C	 -1.161962	 0.399745	 -1.154140
H	 -1.496700	 -0.770240	 1.997983
C	 0.355922	 -0.311769	 1.052564
H	 -1.767508	 0.669525	 -1.995895
C	 0.210641	 0.497654	 -1.191585
H	 0.954507	 -0.583763	 1.899220
C	 0.985270	 0.145959	 -0.096730
H	 0.687366	 0.853240	 -2.086464
C	 2.454277	 0.259298	 -0.160261
O	 3.196437	 -0.016997	 0.722357
H	 2.844326	 0.631003	 -1.113937

	symmetry c1
}
set optking {
	frozen_dihedral = ("
		5 3 2 1
	")
}

ee,wfn = optimize('scf', return_wfn=True)
oeprop( wfn, 'DIPOLE', 'QUADRUPOLE', 'MULLIKEN_CHARGES')
f=open( 'psi4out.xyz', 'w' )
f.write( "15  " )
f.write( str(ee) + "\n" )
f.write( MOL.save_string_xyz() )
f.close()
--------------------------------------------------------------------------

    Molecular point group: c1
  Charge       = 0
  Multiplicity = 1
  Basis Set: CC-PVTZ
  Basis Set:
  @DF-RHF Final Energy:  -418.43675772633060
    Total Energy =                       -418.4367577263300291
    Molecular point group: c1
  Basis Set: CC-PVTZ
  Basis Set:
  Basis Set: CC-PVTZ
  Basis Set:
  @DF-RHF Final Energy:  -418.43732356919696
    Total Energy =                       -418.4373235691969057
  Basis Set: CC-PVTZ
  Basis Set:
  Basis Set: CC-PVTZ
  Basis Set:
  @DF-RHF Final Energy:  -418.43729640466614
    Total Energy =                       -418.4372964046660854
  Basis Set: CC-PVTZ
  Basis Set:
  Basis Set: CC-PVTZ
  Basis Set:
  @DF-RHF Final Energy:  -418.43713588624632
    Total Energy =                       -418.4371358862463239
  Basis Set: CC-PVTZ
  Basis Set:
  Basis Set: CC-PVTZ
  Basis Set:
  @DF-RHF Final Energy:  -418.43738429262720
    Total Energy =                       -418.4373842926271436
  Basis Set: CC-PVTZ
  Basis Set:
  Charge       = 0
  Multiplicity = 1
  Basis Set: CC-PVTZ
  Basis Set:

    Orbital Energies (a.u.)
    -----------------------

    Doubly Occupied:

       1A    -20.589027     2A    -20.550427     3A    -11.326168
       4A    -11.313350     5A    -11.257925     6A    -11.252216
       7A    -11.242913     8A    -11.241286     9A    -11.240353
      10A     -1.418534    11A     -1.406548    12A     -1.175713
      13A     -1.045149    14A     -1.041058    15A     -0.890379
      16A     -0.863176    17A     -0.799387    18A     -0.756531
      19A     -0.712975    20A     -0.674169    21A     -0.652124
      22A     -0.635834    23A     -0.622577    24A     -0.610012
      25A     -0.565325    26A     -0.558661    27A     -0.542903
      28A     -0.503160    29A     -0.488201    30A     -0.425073
      31A     -0.360215    32A     -0.344703

  @DF-RHF Final Energy:  -418.43738545436634

   => Energetics <=

    Nuclear Repulsion Energy =            401.7564417417744380
    One-Electron Energy =               -1366.1755102348768105
    Two-Electron Energy =                 545.9816830387360369
    DFT Exchange-Correlation Energy =       0.0000000000000000
    Empirical Dispersion Energy =           0.0000000000000000
    PCM Polarization Energy =               0.0000000000000000
    EFP Energy =                            0.0000000000000000
    Total Energy =                       -418.4373854543663356
    Molecular point group: c1
  Basis Set: CC-PVTZ
  Basis Set:

  -Total Gradient:
     Atom            X                  Y                   Z
    ------   -----------------  -----------------  -----------------
       1       -0.000092694771     0.000030765554    -0.002115448006
       2        0.000043061546    -0.000790725759     0.002351793799
       3        0.000002085911     0.002170333391     0.000544231351
       4       -0.000191723931    -0.000028876787    -0.000102901305
       5        0.000195062445    -0.001385614946    -0.000646745577
       6        0.000005783678     0.000008539035     0.000003374261
       7        0.000154808065     0.000054655513    -0.000108360572
       8        0.000001158306    -0.000001672612     0.000021068368
       9       -0.000117676466    -0.000050279547    -0.000109355906
      10       -0.000013087568     0.000001143658     0.000002774319
      11        0.000023593007    -0.000042313202     0.000167368854
      12        0.000019779336     0.000012017225     0.000011114137
      13       -0.000037867607     0.000071705693    -0.000055342012
      14        0.000011635112    -0.000031263821     0.000028384691
      15       -0.000003917058    -0.000018413396     0.000008043599

  **** Optimization is complete! (in 6 steps) ****
    Final optimized geometry and variables:
    Molecular point group: c1

    Geometry (in Angstrom), charge = 0, multiplicity = 1:

    H           -3.423304150406    -1.030237617192    -0.006817864398
    O           -3.127109721865    -0.136551882092     0.000011344995
    C           -1.768901526198    -0.075128979165    -0.046071719814
    C           -1.012419961651    -0.448314274390     1.056303622890
    C           -1.157160370957     0.388830783117    -1.192601676414
    H           -1.509720280272    -0.793345562144     1.942007282274
    C            0.358166928160    -0.357787306683     1.004250945965
    H           -1.761434036292     0.675143202426    -2.030165554991
    C            0.220435827257     0.484552370631    -1.232325522181
    H            0.957399784210    -0.641177943952     1.846593264800
    C            0.986570224030     0.111434328103    -0.142942980641
    H            0.700313560460     0.848602365442    -2.121989749970
    C            2.460219342051     0.216720895971    -0.208261836693
    O            3.199666851718    -0.082516181675     0.667551577316
    H            2.850382828025     0.603934391155    -1.155509246040

  Mulliken Charges: (a.u.)
   Center  Symbol    Alpha    Beta     Spin     Total
       1     H     0.38520  0.38520  0.00000  0.22959
       2     O     4.18510  4.18510  0.00000 -0.37020
       3     C     2.86371  2.86371  0.00000  0.27257
       4     C     3.11501  3.11501  0.00000 -0.23002
       5     C     3.10678  3.10678  0.00000 -0.21356
       6     H     0.41539  0.41539  0.00000  0.16922
       7     C     3.07075  3.07075  0.00000 -0.14149
       8     H     0.41348  0.41348  0.00000  0.17305
       9     C     3.07612  3.07612  0.00000 -0.15224
      10     H     0.40684  0.40684  0.00000  0.18632
      11     C     2.99615  2.99615  0.00000  0.00770
      12     H     0.42076  0.42076  0.00000  0.15848
      13     C     2.91015  2.91015  0.00000  0.17971
      14     O     4.17536  4.17536  0.00000 -0.35073
      15     H     0.45919  0.45919  0.00000  0.08161

   Total alpha = 32.00000, Total beta = 32.00000, Total charge = -0.00000

*** Psi4 exiting successfully. Buy a developer a beer!
