                              Psi4 1.0.54 Driver

  ==> Input File <==

--------------------------------------------------------------------------
set {
	reference rhf
	basis cc-pvtz
}

set_num_threads( 4 )
memory 2 gb

molecule MOL {
0 1

O	 0.623971	 1.347241	 -0.000777
C	 0.485107	 0.171416	 -0.000134
C	 1.606966	 -0.836201	 0.000174
O	 -0.695554	 -0.422406	 0.000602
C	 2.988788	 -0.202529	 -0.000115
H	 1.465110	 -1.474645	 -0.864821
H	 1.465209	 -1.474077	 0.865596
H	 3.131767	 0.419673	 -0.873407
H	 3.750876	 -0.972315	 0.000098
H	 3.131883	 0.420264	 0.872742
C	 -1.818451	 0.334282	 -0.429297
C	 -3.036203	 -0.555470	 -0.340355
H	 -1.648485	 0.674397	 -1.441117
H	 -1.917903	 1.207282	 0.200229
H	 -2.924771	 -1.426464	 -0.973857
H	 -3.913743	 -0.007344	 -0.662402
H	 -3.195779	 -0.890499	 0.676828

	symmetry c1
}
set optking {
	frozen_dihedral = ("
		11 4 2 3
	")
}

ee,wfn = optimize('scf', return_wfn=True)
oeprop( wfn, 'DIPOLE', 'QUADRUPOLE', 'MULLIKEN_CHARGES')
f=open( 'psi4out.xyz', 'w' )
f.write( "17  " )
f.write( str(ee) + "\n" )
f.write( MOL.save_string_xyz() )
f.close()
--------------------------------------------------------------------------

    Molecular point group: c1
  Charge       = 0
  Multiplicity = 1
  Basis Set: CC-PVTZ
  Basis Set:
  @DF-RHF Final Energy:  -345.03833468792527
    Total Energy =                       -345.0383346879252713
    Molecular point group: c1
  Basis Set: CC-PVTZ
  Basis Set:
  Basis Set: CC-PVTZ
  Basis Set:
  @DF-RHF Final Energy:  -345.03579320719973
    Total Energy =                       -345.0357932071995037
  Basis Set: CC-PVTZ
  Basis Set:
  Basis Set: CC-PVTZ
  Basis Set:
  @DF-RHF Final Energy:  -345.03856950026471
    Total Energy =                       -345.0385695002643729
  Basis Set: CC-PVTZ
  Basis Set:
  Basis Set: CC-PVTZ
  Basis Set:
  @DF-RHF Final Energy:  -345.03866134809533
    Total Energy =                       -345.0386613480951610
  Basis Set: CC-PVTZ
  Basis Set:
  Basis Set: CC-PVTZ
  Basis Set:
  @DF-RHF Final Energy:  -345.03869535152802
    Total Energy =                       -345.0386953515277924
  Basis Set: CC-PVTZ
  Basis Set:
  Basis Set: CC-PVTZ
  Basis Set:
  @DF-RHF Final Energy:  -345.03871356837311
    Total Energy =                       -345.0387135683728275
  Basis Set: CC-PVTZ
  Basis Set:
  Basis Set: CC-PVTZ
  Basis Set:
  @DF-RHF Final Energy:  -345.03871509723103
    Total Energy =                       -345.0387150972313748
  Basis Set: CC-PVTZ
  Basis Set:
  Charge       = 0
  Multiplicity = 1
  Basis Set: CC-PVTZ
  Basis Set:

    Orbital Energies (a.u.)
    -----------------------

    Doubly Occupied:

       1A    -20.591794     2A    -20.533578     3A    -11.363812
       4A    -11.283362     5A    -11.236262     6A    -11.220553
       7A    -11.214131     8A     -1.469389     9A     -1.365022
      10A     -1.070602    11A     -1.032941    12A     -0.911540
      13A     -0.849056    14A     -0.774500    15A     -0.698626
      16A     -0.690585    17A     -0.668091    18A     -0.630253
      19A     -0.585545    20A     -0.574660    21A     -0.558101
      22A     -0.525592    23A     -0.521597    24A     -0.514553
      25A     -0.505296    26A     -0.494084    27A     -0.455821
      28A     -0.438646

  @DF-RHF Final Energy:  -345.03871551142993

   => Energetics <=

    Nuclear Repulsion Energy =            315.1596141194301026
    One-Electron Energy =               -1094.8406682104646279
    Two-Electron Energy =                 434.6423385796049388
    DFT Exchange-Correlation Energy =       0.0000000000000000
    Empirical Dispersion Energy =           0.0000000000000000
    PCM Polarization Energy =               0.0000000000000000
    EFP Energy =                            0.0000000000000000
    Total Energy =                       -345.0387155114295865
    Molecular point group: c1
  Basis Set: CC-PVTZ
  Basis Set:

  -Total Gradient:
     Atom            X                  Y                   Z
    ------   -----------------  -----------------  -----------------
       1       -0.000019767502    -0.000051679202     0.000062362809
       2        0.000616417458    -0.000371076167     0.003555900895
       3       -0.000177757495    -0.000422301626    -0.004025803628
       4       -0.000874435105     0.002557595104     0.004631713454
       5       -0.000025809720     0.000042774061    -0.000007353830
       6        0.000008678451     0.000051892129     0.000059236166
       7        0.000016492481     0.000078716666    -0.000086197474
       8       -0.000023597778    -0.000053934439     0.000066829043
       9       -0.000004639584     0.000012790010     0.000002005571
      10       -0.000002071267    -0.000038061339    -0.000063905336
      11        0.000475735951    -0.001794492720    -0.004193393027
      12        0.000006987868     0.000000990097     0.000006995098
      13       -0.000008740374    -0.000009163813     0.000024874914
      14       -0.000002355779    -0.000035623254    -0.000023399041
      15        0.000003615877     0.000026981323     0.000019693120
      16        0.000003279042    -0.000002517851     0.000001106093
      17        0.000007967476     0.000007111020    -0.000030664828

  **** Optimization is complete! (in 8 steps) ****
    Final optimized geometry and variables:
    Molecular point group: c1

    Geometry (in Angstrom), charge = 0, multiplicity = 1:

    O            0.629691680725     1.359434715828    -0.098371717769
    C            0.481832319909     0.196739144577     0.065407166655
    C            1.593152671730    -0.821155319855     0.098459709475
    O           -0.705824632521    -0.377469325619     0.175682237046
    C            2.979079664528    -0.205110751270     0.201838192562
    H            1.491588033746    -1.403372508076    -0.811951583323
    H            1.399057530207    -1.507872773722     0.913485446284
    H            3.169424934854     0.464261369135    -0.625439264480
    H            3.733650036822    -0.982179543208     0.196599229229
    H            3.084863541586     0.364401836968     1.116140878380
    C           -1.839875702363     0.357463329359    -0.263663410991
    C           -3.045454641623    -0.546801183054    -0.159113910773
    H           -1.672666170143     0.679940237247    -1.282464491053
    H           -1.954049768546     1.240529984021     0.348238662337
    H           -2.922484012340    -1.428093824934    -0.775924531594
    H           -3.930335092323    -0.016279007682    -0.490446465427
    H           -3.199854388738    -0.864390716879     0.864337615770

  Mulliken Charges: (a.u.)
   Center  Symbol    Alpha    Beta     Spin     Total
       1     O     4.19500  4.19500  0.00000 -0.39001
       2     C     2.80999  2.80999  0.00000  0.38001
       3     C     3.09183  3.09183  0.00000 -0.18366
       4     O     4.15289  4.15289  0.00000 -0.30578
       5     C     3.14050  3.14050  0.00000 -0.28101
       6     H     0.44469  0.44469  0.00000  0.11062
       7     H     0.43966  0.43966  0.00000  0.12068
       8     H     0.44602  0.44602  0.00000  0.10796
       9     H     0.45045  0.45045  0.00000  0.09909
      10     H     0.45031  0.45031  0.00000  0.09937
      11     C     2.97965  2.97965  0.00000  0.04071
      12     C     3.13318  3.13318  0.00000 -0.26636
      13     H     0.45789  0.45789  0.00000  0.08423
      14     H     0.45067  0.45067  0.00000  0.09867
      15     H     0.45207  0.45207  0.00000  0.09586
      16     H     0.45468  0.45468  0.00000  0.09064
      17     H     0.45051  0.45051  0.00000  0.09898

   Total alpha = 28.00000, Total beta = 28.00000, Total charge =  0.00000

*** Psi4 exiting successfully. Buy a developer a beer!
