  ==> Input File <==

--------------------------------------------------------------------------
set {
	reference rhf
	basis 6-31G*
}

set_num_threads( 4 )
memory 2 gb

molecule MOL {
0 1

H	 -2.098997	 -0.674324	 -0.616650
O	 -2.035884	 -0.060112	 0.102722
C	 -0.955155	 0.788182	 -0.092531
C	 0.353668	 0.040312	 -0.004810
H	 -0.985057	 1.290372	 -1.054184
H	 -0.974469	 1.533190	 0.688632
F	 1.369216	 0.836927	 -0.318880
F	 0.553977	 -0.399020	 1.227286
F	 0.398030	 -0.996090	 -0.816878

	symmetry c1
}
set optking {
	frozen_dihedral = ("
		7 4 3 5
	")
}

ee = optimize('scf')
oeprop('DIPOLE', 'QUADRUPOLE', 'MULLIKEN_CHARGES')
f=open( 'psi4out.xyz', 'w' )
f.write( "9  " )
f.write( str(ee) + "\n" )
f.write( MOL.save_string_xyz() )
f.close()
--------------------------------------------------------------------------

    Molecular point group: c1
  Charge       = 0
  Multiplicity = 1
  Basis Set: 6-31G*
  Basis Set:
  @DF-RHF Final Energy:  -450.66235736048168
    Total Energy =                       -450.6623573604815647
    Molecular point group: c1
  Basis Set: 6-31G*
  Basis Set:
  Basis Set: 6-31G*
  Basis Set:
  @DF-RHF Final Energy:  -450.66270432233205
    Total Energy =                       -450.6627043223318196
  Basis Set: 6-31G*
  Basis Set:
  Basis Set: 6-31G*
  Basis Set:
  @DF-RHF Final Energy:  -450.66278660595475
    Total Energy =                       -450.6627866059548069
  Basis Set: 6-31G*
  Basis Set:
  Basis Set: 6-31G*
  Basis Set:
  @DF-RHF Final Energy:  -450.66279329577043
    Total Energy =                       -450.6627932957702001
  Basis Set: 6-31G*
  Basis Set:
  Charge       = 0
  Multiplicity = 1
  Basis Set: 6-31G*
  Basis Set:

    Orbital Energies (a.u.)
    -----------------------

    Doubly Occupied:

       1A    -26.343766     2A    -26.343504     3A    -26.339622
       4A    -20.590578     5A    -11.500357     6A    -11.309706
       7A     -1.740359     8A     -1.639044     9A     -1.637137
      10A     -1.402734    11A     -1.048187    12A     -0.923815
      13A     -0.830617    14A     -0.828895    15A     -0.806276
      16A     -0.726593    17A     -0.711831    18A     -0.697429
      19A     -0.664662    20A     -0.659281    21A     -0.642764
      22A     -0.628737    23A     -0.615199    24A     -0.530939
      25A     -0.480500

  @DF-RHF Final Energy:  -450.66279389481070

   => Energetics <=

    Nuclear Repulsion Energy =            277.0944909266821128
    One-Electron Energy =               -1176.2295032929064291
    Two-Electron Energy =                 448.4722184714133846
    DFT Exchange-Correlation Energy =       0.0000000000000000
    Empirical Dispersion Energy =           0.0000000000000000
    PCM Polarization Energy =               0.0000000000000000
    EFP Energy =                            0.0000000000000000
    Total Energy =                       -450.6627938948109886
    Molecular point group: c1
  Basis Set: 6-31G*
  Basis Set:

  -Total Gradient:
     Atom            X                  Y                   Z
    ------   -----------------  -----------------  -----------------
       1       -0.000018738017    -0.000005779544    -0.000003169379
       2       -0.000005274794    -0.000001619475     0.000000145585
       3       -0.000509685431    -0.001005453176    -0.000624741431
       4        0.000158719034     0.000446114376     0.001071287507
       5        0.000413284813     0.000748686420     0.000342921113
       6        0.000002628110    -0.000013162966    -0.000009412192
       7        0.000009851845    -0.000157706863    -0.000758446658
       8       -0.000029908043    -0.000014607695    -0.000065938123
       9       -0.000020877512     0.000003528919     0.000047353577

  **** Optimization is complete! (in 5 steps) ****
    Final optimized geometry and variables:
    Molecular point group: c1

    Geometry (in Angstrom), charge = 0, multiplicity = 1:

    H           -2.089601821852    -0.692360750473    -0.613905332624
    O           -2.037310998463    -0.060164216328     0.090696094295
    C           -0.956001843327     0.785082864413    -0.111182097360
    C            0.353908323927     0.041163455178    -0.002220426781
    H           -0.977614633459     1.276781476228    -1.078454474395
    H           -0.980866302776     1.541968906716     0.658571494118
    F            1.365122978372     0.835970883813    -0.314125414587
    F            0.567744126019    -0.433348233499     1.207889713112
    F            0.377405834060    -0.986653997607    -0.843653153209

  Mulliken Charges: (a.u.)
   Center  Symbol    Alpha    Beta     Spin     Total
       1     H     0.27232  0.27232  0.00000  0.45536
       2     O     4.36161  4.36161  0.00000 -0.72322
       3     C     3.05353  3.05353  0.00000 -0.10706
       4     C     2.46403  2.46403  0.00000  1.07195
       5     H     0.40970  0.40970  0.00000  0.18060
       6     H     0.39553  0.39553  0.00000  0.20895
       7     F     4.68177  4.68177  0.00000 -0.36354
       8     F     4.67495  4.67495  0.00000 -0.34989
       9     F     4.68657  4.68657  0.00000 -0.37314

   Total alpha = 25.00000, Total beta = 25.00000, Total charge = -0.00000
