                              Psi4 1.0.54 Driver

  ==> Input File <==

--------------------------------------------------------------------------
set {
	reference rhf
	basis cc-pvtz
}

set_num_threads( 4 )
memory 2 gb

molecule MOL {
0 1

H	 -2.372108	 -0.994348	 1.302348
C	 -2.570846	 -0.661755	 0.286096
O	 -1.401606	 -0.295183	 -0.366624
H	 -3.015919	 -1.476882	 -0.265597
H	 -3.281428	 0.161843	 0.326654
C	 -0.718530	 0.758693	 0.228682
C	 0.718529	 0.758687	 -0.228709
H	 -1.176498	 1.708665	 -0.046615
H	 -0.748705	 0.673525	 1.312779
O	 1.401606	 -0.295166	 0.366636
H	 0.748705	 0.673477	 -1.312803
H	 1.176496	 1.708671	 0.046552
C	 2.714315	 -0.441627	 -0.061017
H	 2.765292	 -0.641548	 -1.128869
H	 3.305661	 0.447341	 0.150952
H	 3.143725	 -1.278506	 0.470147

	symmetry c1
}
set optking {
	frozen_dihedral = ("
		2 3 6 7
	")
}

ee,wfn = optimize('scf', return_wfn=True)
oeprop( wfn, 'DIPOLE', 'QUADRUPOLE', 'MULLIKEN_CHARGES')
f=open( 'psi4out.xyz', 'w' )
f.write( "16  " )
f.write( str(ee) + "\n" )
f.write( MOL.save_string_xyz() )
f.close()
--------------------------------------------------------------------------

    Molecular point group: c1
  Charge       = 0
  Multiplicity = 1
  Basis Set: CC-PVTZ
  Basis Set:
  @DF-RHF Final Energy:  -307.09746701975581
    Total Energy =                       -307.0974670197556406
    Molecular point group: c1
  Basis Set: CC-PVTZ
  Basis Set:
  Basis Set: CC-PVTZ
  Basis Set:
  @DF-RHF Final Energy:  -307.09749340364806
    Total Energy =                       -307.0974934036480022
  Basis Set: CC-PVTZ
  Basis Set:
  Basis Set: CC-PVTZ
  Basis Set:
  @DF-RHF Final Energy:  -307.09749732955805
    Total Energy =                       -307.0974973295581094
  Basis Set: CC-PVTZ
  Basis Set:
  Charge       = 0
  Multiplicity = 1
  Basis Set: CC-PVTZ
  Basis Set:

    Orbital Energies (a.u.)
    -----------------------

    Doubly Occupied:

       1A    -20.548201     2A    -20.546784     3A    -11.267248
       4A    -11.266566     5A    -11.261923     6A    -11.260958
       7A     -1.391361     8A     -1.373807     9A     -1.031843
      10A     -0.937651    11A     -0.891347    12A     -0.824522
      13A     -0.684992    14A     -0.683558    15A     -0.659182
      16A     -0.636270    17A     -0.632973    18A     -0.599666
      19A     -0.547364    20A     -0.538657    21A     -0.510763
      22A     -0.479793    23A     -0.464148    24A     -0.421794
      25A     -0.414033

  @DF-RHF Final Energy:  -307.09749753467969

   => Energetics <=

    Nuclear Repulsion Energy =            259.4236504139479962
    One-Electron Energy =                -933.2914894357961657
    Two-Electron Energy =                 366.7703414871687073
    DFT Exchange-Correlation Energy =       0.0000000000000000
    Empirical Dispersion Energy =           0.0000000000000000
    PCM Polarization Energy =               0.0000000000000000
    EFP Energy =                            0.0000000000000000
    Total Energy =                       -307.0974975346794054
    Molecular point group: c1
  Basis Set: CC-PVTZ
  Basis Set:

  -Total Gradient:
     Atom            X                  Y                   Z
    ------   -----------------  -----------------  -----------------
       1        0.000003297018     0.000008733304    -0.000004095767
       2        0.000644839691    -0.000837707300     0.000710753534
       3       -0.000832050732     0.000944473925    -0.000652541601
       4       -0.000004874092     0.000000991277    -0.000005328780
       5        0.000017163318    -0.000000317558    -0.000009037882
       6       -0.000108470194     0.000554782966    -0.000903693838
       7        0.000285375594    -0.000683055493     0.000897083198
       8       -0.000002636844    -0.000007390008     0.000002311730
       9        0.000000148316    -0.000004156464    -0.000001133755
      10       -0.000019412844     0.000019479172    -0.000031753822
      11        0.000008018473    -0.000006459992     0.000002664477
      12        0.000002695475     0.000017780485    -0.000006447930
      13        0.000007084642    -0.000007317704     0.000002588056
      14        0.000001284950     0.000000610425     0.000000527563
      15       -0.000005150096    -0.000000116992    -0.000000040711
      16        0.000002687327    -0.000000330041    -0.000001854472

  **** Optimization is complete! (in 4 steps) ****
    Final optimized geometry and variables:
    Molecular point group: c1

    Geometry (in Angstrom), charge = 0, multiplicity = 1:

    H           -2.399954384622    -0.970153960315     1.249904129430
    C           -2.596349459354    -0.632114039165     0.235636730727
    O           -1.424712517895    -0.255252979149    -0.407728424956
    H           -3.032811946320    -1.446015008448    -0.324870051415
    H           -3.314007989335     0.185369111035     0.276961572289
    C           -0.743006462610     0.800239407893     0.189117851561
    C            0.694680206150     0.801628276518    -0.267224128372
    H           -1.207227070415     1.748854759855    -0.077640891078
    H           -0.764464585916     0.709111968983     1.272246936600
    O            1.375212455634    -0.250708984252     0.334017973684
    H            0.727527522206     0.711747402096    -1.350894086235
    H            1.152619093017     1.752634668398     0.004681257103
    C            2.686251786194    -0.406082782053    -0.095927398441
    H            2.733415890822    -0.614429447977    -1.162286728972
    H            3.281853363315     0.481942841263     0.107634973789
    H            3.113612869288    -1.240611210190     0.440604212585

  Mulliken Charges: (a.u.)
   Center  Symbol    Alpha    Beta     Spin     Total
       1     H     0.46886  0.46886  0.00000  0.06228
       2     C     3.03117  3.03117  0.00000 -0.06234
       3     O     4.17312  4.17312  0.00000 -0.34623
       4     H     0.44765  0.44765  0.00000  0.10471
       5     H     0.47378  0.47378  0.00000  0.05243
       6     C     2.96080  2.96080  0.00000  0.07839
       7     C     2.96141  2.96141  0.00000  0.07718
       8     H     0.47162  0.47162  0.00000  0.05677
       9     H     0.47174  0.47174  0.00000  0.05653
      10     O     4.17143  4.17143  0.00000 -0.34286
      11     H     0.47080  0.47080  0.00000  0.05840
      12     H     0.47577  0.47577  0.00000  0.04846
      13     C     3.03168  3.03168  0.00000 -0.06336
      14     H     0.46997  0.46997  0.00000  0.06006
      15     H     0.47350  0.47350  0.00000  0.05299
      16     H     0.44671  0.44671  0.00000  0.10659

   Total alpha = 25.00000, Total beta = 25.00000, Total charge = -0.00000

*** Psi4 exiting successfully. Buy a developer a beer!
