  ==> Input File <==

--------------------------------------------------------------------------
set {
	reference rhf
	basis 6-31G*
}

set_num_threads( 4 )
memory 2 gb

molecule MOL {
0 1

H	 1.722899	 -1.631256	 -1.021331
C	 0.857637	 -1.023404	 -1.230840
O	 0.464886	 -0.454746	 -0.000158
H	 0.072064	 -1.647641	 -1.639776
H	 1.124464	 -0.255520	 -1.947232
C	 -0.590998	 0.343045	 0.000118
O	 -1.699443	 -0.054298	 0.000227
H	 -0.340329	 1.404368	 0.000207

	symmetry c1
}
set optking {
	frozen_dihedral = ("
		2 3 6 7
	")
}

ee = optimize('scf')
oeprop('DIPOLE', 'QUADRUPOLE', 'MULLIKEN_CHARGES')
f=open( 'psi4out.xyz', 'w' )
f.write( "8  " )
f.write( str(ee) + "\n" )
f.write( MOL.save_string_xyz() )
f.close()
--------------------------------------------------------------------------

    Molecular point group: c1
  Charge       = 0
  Multiplicity = 1
  Basis Set: 6-31G*
  Basis Set:
  @DF-RHF Final Energy:  -227.76886199988280
    Total Energy =                       -227.7688619998827448
    Molecular point group: c1
  Basis Set: 6-31G*
  Basis Set:
  Basis Set: 6-31G*
  Basis Set:
  @DF-RHF Final Energy:  -227.76623006727993
    Total Energy =                       -227.7662300672798779
  Basis Set: 6-31G*
  Basis Set:
  Basis Set: 6-31G*
  Basis Set:
  @DF-RHF Final Energy:  -227.76925789537501
    Total Energy =                       -227.7692578953751195
  Basis Set: 6-31G*
  Basis Set:
  Basis Set: 6-31G*
  Basis Set:
  @DF-RHF Final Energy:  -227.76950587462125
    Total Energy =                       -227.7695058746213022
  Basis Set: 6-31G*
  Basis Set:
  Basis Set: 6-31G*
  Basis Set:
  @DF-RHF Final Energy:  -227.76950990765624
    Total Energy =                       -227.7695099076562144
  Basis Set: 6-31G*
  Basis Set:
  Charge       = 0
  Multiplicity = 1
  Basis Set: 6-31G*
  Basis Set:

    Orbital Energies (a.u.)
    -----------------------

    Doubly Occupied:

       1A    -20.596857     2A    -20.573587     3A    -11.383506
       4A    -11.297871     5A     -1.469441     6A     -1.380517
       7A     -0.987418     8A     -0.831190     9A     -0.738004
      10A     -0.685704    11A     -0.665490    12A     -0.625972
      13A     -0.561897    14A     -0.511294    15A     -0.471800
      16A     -0.456591

  @DF-RHF Final Energy:  -227.76951028730085

   => Energetics <=

    Nuclear Repulsion Energy =            121.9138823441291208
    One-Electron Energy =                -552.8925050330691420
    Two-Electron Energy =                 203.2091124016392314
    DFT Exchange-Correlation Energy =       0.0000000000000000
    Empirical Dispersion Energy =           0.0000000000000000
    PCM Polarization Energy =               0.0000000000000000
    EFP Energy =                            0.0000000000000000
    Total Energy =                       -227.7695102873008182
    Molecular point group: c1
  Basis Set: 6-31G*
  Basis Set:

  -Total Gradient:
     Atom            X                  Y                   Z
    ------   -----------------  -----------------  -----------------
       1       -0.000014047128     0.000009725054     0.000016187105
       2        0.001807646565     0.002572123551    -0.000685748265
       3       -0.002672920044    -0.003679120488     0.003063724635
       4        0.000011043360    -0.000019285648    -0.000011032838
       5        0.000010479619    -0.000006693280     0.000002826068
       6        0.000787543798     0.000982569184    -0.006574475999
       7        0.000071353607     0.000157082234     0.004187853029
       8       -0.000001099778    -0.000016400606     0.000000666263

  **** Optimization is complete! (in 6 steps) ****
    Final optimized geometry and variables:
    Molecular point group: c1

    Geometry (in Angstrom), charge = 0, multiplicity = 1:

    H            1.947344969735    -1.346111922078    -0.700362797042
    C            1.094564465901    -0.720442275041    -0.909637807575
    O            0.718365487658    -0.131812369189     0.322227126219
    H            0.286955808917    -1.321230283232    -1.306633054453
    H            1.375066064101     0.041517441343    -1.628838253606
    C           -0.372969063714     0.647007244204     0.309955776178
    O           -1.479051460834     0.244836462189     0.335856120305
    H           -0.128641265025     1.706428720039     0.331886636069

  Mulliken Charges: (a.u.)
   Center  Symbol    Alpha    Beta     Spin     Total
       1     H     0.40114  0.40114  0.00000  0.19773
       2     C     3.09361  3.09361  0.00000 -0.18722
       3     O     4.29753  4.29753  0.00000 -0.59506
       4     H     0.40651  0.40651  0.00000  0.18698
       5     H     0.41874  0.41874  0.00000  0.16251
       6     C     2.73312  2.73312  0.00000  0.53376
       7     O     4.22798  4.22798  0.00000 -0.45596
       8     H     0.42137  0.42137  0.00000  0.15726

   Total alpha = 16.00000, Total beta = 16.00000, Total charge = -0.00000
