                              Psi4 1.0.54 Driver

  ==> Input File <==

--------------------------------------------------------------------------
set {
	reference rhf
	basis cc-pvtz
}

set_num_threads( 4 )
memory 2 gb

molecule MOL {
0 1

H	 -3.436473	 1.252944	 -1.023892
O	 -3.458596	 0.315260	 -0.960865
C	 -3.176635	 -0.080824	 0.355601
C	 -1.763371	 0.265266	 0.799691
H	 -3.321825	 -1.153438	 0.379502
H	 -3.895468	 0.357385	 1.043382
C	 -0.673390	 -0.426948	 -0.013392
H	 -1.631049	 1.344913	 0.747560
H	 -1.664587	 -0.001624	 1.849167
C	 0.296952	 0.549958	 -0.672225
H	 -1.134430	 -1.049449	 -0.772239
H	 -0.120405	 -1.099905	 0.637640
C	 1.388276	 -0.149393	 -1.480289
H	 -0.263201	 1.225026	 -1.312071
H	 0.760915	 1.169262	 0.092666
C	 2.433052	 0.784147	 -2.094125
H	 0.927608	 -0.738703	 -2.269813
H	 1.898226	 -0.858028	 -0.833445
C	 1.897350	 1.717496	 -3.177188
H	 3.226566	 0.177754	 -2.520032
H	 2.893707	 1.374135	 -1.306006
H	 1.425217	 1.155277	 -3.976612
H	 2.700394	 2.300014	 -3.614264
H	 1.165858	 2.414723	 -2.786805

	symmetry c1
}
set optking {
	frozen_dihedral = ("
		11 7 4 3
	")
}

ee,wfn = optimize('scf', return_wfn=True)
oeprop( wfn, 'DIPOLE', 'QUADRUPOLE', 'MULLIKEN_CHARGES')
f=open( 'psi4out.xyz', 'w' )
f.write( "24  " )
f.write( str(ee) + "\n" )
f.write( MOL.save_string_xyz() )
f.close()
--------------------------------------------------------------------------

    Molecular point group: c1
  Charge       = 0
  Multiplicity = 1
  Basis Set: CC-PVTZ
  Basis Set:
  @DF-RHF Final Energy:  -349.37546341716325
    Total Energy =                       -349.3754634171627345
    Molecular point group: c1
  Basis Set: CC-PVTZ
  Basis Set:
  Basis Set: CC-PVTZ
  Basis Set:
  @DF-RHF Final Energy:  -349.37568656348651
    Total Energy =                       -349.3756865634867381
  Basis Set: CC-PVTZ
  Basis Set:
  Basis Set: CC-PVTZ
  Basis Set:
  @DF-RHF Final Energy:  -349.37576869037241
    Total Energy =                       -349.3757686903725812
  Basis Set: CC-PVTZ
  Basis Set:
  Basis Set: CC-PVTZ
  Basis Set:
  @DF-RHF Final Energy:  -349.37577134036383
    Total Energy =                       -349.3757713403638263
  Basis Set: CC-PVTZ
  Basis Set:
  Basis Set: CC-PVTZ
  Basis Set:
  @DF-RHF Final Energy:  -349.37577345338161
    Total Energy =                       -349.3757734533820667
  Basis Set: CC-PVTZ
  Basis Set:
  Charge       = 0
  Multiplicity = 1
  Basis Set: CC-PVTZ
  Basis Set:

    Orbital Energies (a.u.)
    -----------------------

    Doubly Occupied:

       1A    -20.547079     2A    -11.265760     3A    -11.214788
       4A    -11.211424     5A    -11.209614     6A    -11.208991
       7A    -11.208335     8A    -11.204374     9A     -1.364866
      10A     -1.088053    11A     -1.047357    12A     -0.986411
      13A     -0.915216    14A     -0.851242    15A     -0.802056
      16A     -0.776176    17A     -0.682551    18A     -0.650460
      19A     -0.630040    20A     -0.618387    21A     -0.600226
      22A     -0.580781    23A     -0.559567    24A     -0.533362
      25A     -0.527140    26A     -0.510992    27A     -0.493771
      28A     -0.477731    29A     -0.466675    30A     -0.458061
      31A     -0.452659    32A     -0.447685    33A     -0.422880

  @DF-RHF Final Energy:  -349.37577347033340

   => Energetics <=

    Nuclear Repulsion Energy =            389.9003754176248435
    One-Electron Energy =               -1246.5228807536345812
    Two-Electron Energy =                 507.2467318656765656
    DFT Exchange-Correlation Energy =       0.0000000000000000
    Empirical Dispersion Energy =           0.0000000000000000
    PCM Polarization Energy =               0.0000000000000000
    EFP Energy =                            0.0000000000000000
    Total Energy =                       -349.3757734703331153
    Molecular point group: c1
  Basis Set: CC-PVTZ
  Basis Set:

  -Total Gradient:
     Atom            X                  Y                   Z
    ------   -----------------  -----------------  -----------------
       1        0.000000414771     0.000003772961    -0.000007036916
       2        0.000001191633     0.000011606007     0.000014797517
       3        0.000007850990     0.000257013334    -0.000227782423
       4       -0.000017850623    -0.000471493084     0.000366290423
       5        0.000001562356    -0.000003230499     0.000010796603
       6       -0.000002139490     0.000005174820    -0.000006351983
       7        0.000011104874     0.000575366632    -0.000460016750
       8       -0.000001003748     0.000002395467    -0.000002502960
       9        0.000001746128    -0.000003628877    -0.000000964274
      10        0.000006794271    -0.000001457204     0.000013504803
      11       -0.000004498390    -0.000376742012     0.000302177577
      12       -0.000000770588     0.000005292174     0.000002169093
      13       -0.000000343711    -0.000000133716    -0.000007791968
      14       -0.000001549252     0.000004211315     0.000003185982
      15        0.000001745457    -0.000005718295     0.000002158569
      16       -0.000001579205    -0.000000285449    -0.000004394280
      17        0.000001618948    -0.000004591873    -0.000001318254
      18       -0.000000496537     0.000005122990     0.000000052286
      19       -0.000000106942    -0.000001023374     0.000000621391
      20       -0.000000988087    -0.000000729232    -0.000000449483
      21       -0.000000429613    -0.000001070183     0.000001745962
      22       -0.000000439100     0.000000182964    -0.000000491206
      23        0.000000593173     0.000000155256    -0.000000253167
      24       -0.000002427318    -0.000000190123     0.000001853459

  **** Optimization is complete! (in 6 steps) ****
    Final optimized geometry and variables:
    Molecular point group: c1

    Geometry (in Angstrom), charge = 0, multiplicity = 1:

    H           -2.969440007852     0.864421710345    -0.127649801319
    O           -3.001679306178    -0.072137691694    -0.053746310379
    C           -2.750800449160    -0.454329788823     1.273104201306
    C           -1.339431258829    -0.119885092605     1.730701077357
    H           -2.910480325042    -1.524567475499     1.307506240304
    H           -3.475675385596     0.002337165180     1.942411592171
    C           -0.236742116100    -0.810032137110     0.903894390591
    H           -1.212549500085     0.959774717439     1.691520665810
    H           -1.254810601623    -0.389702044279     2.778717336805
    C            0.740284256430     0.162466595022     0.246769030293
    H           -0.694909998356    -1.418880719727     0.132625955713
    H            0.319438408601    -1.492306266524     1.538994456651
    C            1.827578214051    -0.540458256428    -0.562334209455
    H            0.180032769688     0.838422058499    -0.391379688006
    H            1.206091987436     0.778213785159     1.013641830271
    C            2.874407396447     0.389771213592    -1.178029404275
    H            1.363296969313    -1.127843898236    -1.351082745396
    H            2.336520714811    -1.250672878252     0.083869218932
    C            2.339092032412     1.326208522213    -2.258645095095
    H            3.664396345196    -0.219145600280    -1.606917389823
    H            3.339736437768     0.977089139220    -0.390590537500
    H            1.860470772016     0.766834958499    -3.056048337764
    H            3.143302361772     1.904910771976    -2.698706939912
    H            1.612600886997     2.026789415650    -1.864954385185

  Mulliken Charges: (a.u.)
   Center  Symbol    Alpha    Beta     Spin     Total
       1     H     0.39499  0.39499  0.00000  0.21003
       2     O     4.20396  4.20396  0.00000 -0.40793
       3     C     2.97793  2.97793  0.00000  0.04415
       4     C     3.10894  3.10894  0.00000 -0.21788
       5     H     0.45771  0.45771  0.00000  0.08458
       6     H     0.46025  0.46025  0.00000  0.07951
       7     C     3.09068  3.09068  0.00000 -0.18136
       8     H     0.45811  0.45811  0.00000  0.08378
       9     H     0.44783  0.44783  0.00000  0.10434
      10     C     3.08985  3.08985  0.00000 -0.17969
      11     H     0.44869  0.44869  0.00000  0.10262
      12     H     0.44922  0.44922  0.00000  0.10156
      13     C     3.09634  3.09634  0.00000 -0.19267
      14     H     0.45509  0.45509  0.00000  0.08981
      15     H     0.45518  0.45518  0.00000  0.08963
      16     C     3.09018  3.09018  0.00000 -0.18035
      17     H     0.45218  0.45218  0.00000  0.09564
      18     H     0.45060  0.45060  0.00000  0.09881
      19     C     3.15190  3.15190  0.00000 -0.30379
      20     H     0.44883  0.44883  0.00000  0.10235
      21     H     0.45555  0.45555  0.00000  0.08890
      22     H     0.45404  0.45404  0.00000  0.09192
      23     H     0.44696  0.44696  0.00000  0.10608
      24     H     0.45501  0.45501  0.00000  0.08997

   Total alpha = 33.00000, Total beta = 33.00000, Total charge = -0.00000

*** Psi4 exiting successfully. Buy a developer a beer!
