  ==> Input File <==

--------------------------------------------------------------------------
set {
	reference rhf
	basis 6-31G*
}

set_num_threads( 4 )
memory 2 gb

molecule MOL {
0 1

O	 -2.978353	 0.992105	 0.757926
C	 -2.668563	 0.129746	 -0.000350
C	 -3.581202	 -0.418179	 -1.067184
O	 -1.481751	 -0.454642	 0.000584
H	 -3.883040	 0.394033	 -1.717620
H	 -3.103426	 -1.194458	 -1.646460
H	 -4.474409	 -0.808405	 -0.594124
C	 -0.334255	 0.388708	 0.000906
C	 0.891947	 -0.504646	 0.000751
H	 -0.365390	 1.025305	 -0.873475
H	 -0.365484	 1.024911	 0.875569
C	 2.191998	 0.301789	 0.000897
H	 0.855148	 -1.151283	 -0.871571
H	 0.855132	 -1.151660	 0.872805
C	 3.441114	 -0.581407	 0.000108
H	 2.215074	 0.954890	 -0.869742
H	 2.215465	 0.953923	 0.872248
C	 4.739576	 0.224112	 -0.001102
H	 3.419457	 -1.233487	 -0.870178
H	 3.420834	 -1.233096	 0.870717
H	 4.804918	 0.861552	 -0.878265
H	 5.606527	 -0.429058	 -0.001824
H	 4.806469	 0.861674	 0.875853

	symmetry c1
}
set optking {
	frozen_dihedral = ("
		1 2 4 8
	")
}

ee = optimize('scf')
oeprop('DIPOLE', 'QUADRUPOLE', 'MULLIKEN_CHARGES')
f=open( 'psi4out.xyz', 'w' )
f.write( "23  " )
f.write( str(ee) + "\n" )
f.write( MOL.save_string_xyz() )
f.close()
--------------------------------------------------------------------------

    Molecular point group: c1
  Charge       = 0
  Multiplicity = 1
  Basis Set: 6-31G*
  Basis Set:
  @DF-RHF Final Energy:  -422.96678272736960
    Total Energy =                       -422.9667827273696048
    Molecular point group: c1
  Basis Set: 6-31G*
  Basis Set:
  Basis Set: 6-31G*
  Basis Set:
  @DF-RHF Final Energy:  -422.96448536835067
    Total Energy =                       -422.9644853683512338
  Basis Set: 6-31G*
  Basis Set:
  Basis Set: 6-31G*
  Basis Set:
  @DF-RHF Final Energy:  -422.96764921907402
    Total Energy =                       -422.9676492190744739
  Basis Set: 6-31G*
  Basis Set:
  Basis Set: 6-31G*
  Basis Set:
  @DF-RHF Final Energy:  -422.96772793641736
    Total Energy =                       -422.9677279364173046
  Basis Set: 6-31G*
  Basis Set:
  @DF-RHF Final Energy:  -422.96775528461939
    Total Energy =                       -422.9677552846200115
  @DF-RHF Final Energy:  -422.96682829228729
    Total Energy =                       -422.9668282922876870
  @DF-RHF Final Energy:  -422.94810999230401
    Total Energy =                       -422.9481099923043530
  @DF-RHF Final Energy:  -422.96638724434615
    Total Energy =                       -422.9663872443453556
  @DF-RHF Final Energy:  -422.96807500956430
    Total Energy =                       -422.9680750095644726
  @DF-RHF Final Energy:  -422.96821087686823
    Total Energy =                       -422.9682108768683975
  @DF-RHF Final Energy:  -422.96840561411733
    Total Energy =                       -422.9684056141178417
  @DF-RHF Final Energy:  -422.96843862868570
    Total Energy =                       -422.9684386286858171
  @DF-RHF Final Energy:  -422.96843551260321
    Total Energy =                       -422.9684355126041737
  @DF-RHF Final Energy:  -422.96841909044673
    Total Energy =                       -422.9684190904464458
  @DF-RHF Final Energy:  -422.96843905481791
    Total Energy =                       -422.9684390548170541
  @DF-RHF Final Energy:  -422.96842696497515
    Total Energy =                       -422.9684269649748103
  @DF-RHF Final Energy:  -422.96845409641247
    Total Energy =                       -422.9684540964126427
  @DF-RHF Final Energy:  -422.96846669186414
    Total Energy =                       -422.9684666918642506
  @DF-RHF Final Energy:  -422.96847545760153
    Total Energy =                       -422.9684754576012438
  @DF-RHF Final Energy:  -422.96847591236582
    Total Energy =                       -422.9684759123649656
  @DF-RHF Final Energy:  -422.96847569968656
    Total Energy =                       -422.9684756996863371
  @DF-RHF Final Energy:  -422.96847467574639
    Total Energy =                       -422.9684746757468474
  @DF-RHF Final Energy:  -422.96847465664172
    Total Energy =                       -422.9684746566420017
  @DF-RHF Final Energy:  -422.96847349189096
    Total Energy =                       -422.9684734918907907
  @DF-RHF Final Energy:  -422.96847247783330
    Total Energy =                       -422.9684724778342115
  @DF-RHF Final Energy:  -422.96847112195428
    Total Energy =                       -422.9684711219549627
  @DF-RHF Final Energy:  -422.96847388284436
    Total Energy =                       -422.9684738828440231
  @DF-RHF Final Energy:  -422.96847344950339
    Total Energy =                       -422.9684734495040175
  @DF-RHF Final Energy:  -422.96847268323347
    Total Energy =                       -422.9684726832338129
  @DF-RHF Final Energy:  -422.96847197556997
    Total Energy =                       -422.9684719755699689
  @DF-RHF Final Energy:  -422.96847209293929
    Total Energy =                       -422.9684720929395780
  @DF-RHF Final Energy:  -422.96847238463158
    Total Energy =                       -422.9684723846318093
  @DF-RHF Final Energy:  -422.96847168668853
    Total Energy =                       -422.9684716866889858
  @DF-RHF Final Energy:  -422.96847258258418
    Total Energy =                       -422.9684725825852638
  @DF-RHF Final Energy:  -422.96847245608973
    Total Energy =                       -422.9684724560901259
  @DF-RHF Final Energy:  -422.96847242212920
    Total Energy =                       -422.9684724221294800
  Basis Set: 6-31G*
  Basis Set:
  @DF-RHF Final Energy:  -422.96847269200180
    Total Energy =                       -422.9684726920017965
  Basis Set: 6-31G*
  Basis Set:
  Basis Set: 6-31G*
  Basis Set:
  @DF-RHF Final Energy:  -422.96847250006977
    Total Energy =                       -422.9684725000701064
  Basis Set: 6-31G*
  Basis Set:
  Basis Set: 6-31G*
  Basis Set:
  @DF-RHF Final Energy:  -422.96847250303699
    Total Energy =                       -422.9684725030368782
  Basis Set: 6-31G*
  Basis Set:
  Charge       = 0
  Multiplicity = 1
  Basis Set: 6-31G*
  Basis Set:

    Orbital Energies (a.u.)
    -----------------------

    Doubly Occupied:

       1A    -20.590503     2A    -20.547832     3A    -11.376085
       4A    -11.286476     5A    -11.235192     6A    -11.225069
       7A    -11.224462     8A    -11.222302     9A    -11.213618
      10A     -1.460444    11A     -1.361375    12A     -1.093398
      13A     -1.039646    14A     -1.005408    15A     -0.932494
      16A     -0.841526    17A     -0.803346    18A     -0.774094
      19A     -0.695637    20A     -0.683206    21A     -0.659893
      22A     -0.647003    23A     -0.611912    24A     -0.588911
      25A     -0.583915    26A     -0.570269    27A     -0.558006
      28A     -0.545834    29A     -0.515356    30A     -0.503456
      31A     -0.493381    32A     -0.478116    33A     -0.471918
      34A     -0.468595    35A     -0.448555    36A     -0.433445

  @DF-RHF Final Energy:  -422.96847241724481

   => Energetics <=

    Nuclear Repulsion Energy =            448.8227573292097077
    One-Electron Energy =               -1465.2011004424996372
    Two-Electron Energy =                 593.4098706960446634
    DFT Exchange-Correlation Energy =       0.0000000000000000
    Empirical Dispersion Energy =           0.0000000000000000
    PCM Polarization Energy =               0.0000000000000000
    EFP Energy =                            0.0000000000000000
    Total Energy =                       -422.9684724172452661
    Molecular point group: c1
  Basis Set: 6-31G*
  Basis Set:

  -Total Gradient:
     Atom            X                  Y                   Z
    ------   -----------------  -----------------  -----------------
       1       -0.002947979985    -0.000141284131     0.007699190875
       2        0.004818804437    -0.001999298904    -0.013804620490
       3       -0.001587060046     0.001872931194    -0.002849478319
       4        0.003498109810    -0.001045826560     0.016713610855
       5       -0.000072596014     0.000499998692     0.000579568453
       6       -0.000382603653     0.000135307097    -0.000285316540
       7       -0.000079554893    -0.000426710692     0.000398393498
       8       -0.004819724398     0.003860624217    -0.008477959332
       9       -0.001043897276    -0.001886278024    -0.000668490556
      10        0.001473207207    -0.000621739278     0.001305520471
      11       -0.000050207520    -0.000234309422    -0.000275351987
      12        0.000576412320    -0.000320217703    -0.000300581935
      13        0.000393147210    -0.000121049511    -0.000029618409
      14       -0.000390875963     0.000440819953    -0.000063775965
      15        0.000387561656     0.000464909180    -0.000002030741
      16        0.000072029121    -0.000117019954    -0.000002463719
      17       -0.000040078398    -0.000281985124     0.000041938891
      18        0.000249370675    -0.000395595091    -0.000157128853
      19       -0.000056675510     0.000050598057    -0.000159933608
      20        0.000025451010     0.000073723567     0.000142921714
      21       -0.000132399199     0.000072289812    -0.000027714367
      22        0.000050402249    -0.000012880124     0.000075144327
      23        0.000059157165     0.000132992750     0.000148175733

    Molecular point group: c1

    Geometry (in Angstrom), charge = 0, multiplicity = 1:

    O           -3.013424031537     0.930249457346     0.802372366558
    C           -2.686088780228     0.086258172535     0.031873926040
    C           -3.588962182915    -0.455586326976    -1.046577332416
    O           -1.472308043658    -0.477732600468     0.055127730774
    H           -3.390631426815     0.101253677770    -1.957616557658
    H           -3.392577995653    -1.501211817213    -1.241016467684
    H           -4.621184940841    -0.306595994541    -0.764302965312
    C           -0.347780898890     0.390347933256     0.093943388874
    C            0.887429639557    -0.493283344955     0.030199139553
    H           -0.383162378453     1.066078440743    -0.751890704842
    H           -0.373629749989     0.977666265720     1.001003837185
    C            2.190779771977     0.309204654771     0.056886855251
    H            0.839686362745    -1.095457106171    -0.872628975464
    H            0.854389501367    -1.180848132337     0.869826725977
    C            3.439079922223    -0.572647414640    -0.015050923545
    H            2.203310265883     1.012203242856    -0.774525147948
    H            2.228825206268     0.907868842104     0.965022242503
    C            4.739433458673     0.229659221022     0.007249286407
    H            3.401406911352    -1.173874242430    -0.920920596120
    H            3.431997978841    -1.272204659334     0.817760631456
    H            4.790714369974     0.915967865681    -0.833394813926
    H            5.604554207659    -0.423853402692    -0.044867561356
    H            4.823179489417     0.816652302765     0.917708059211

  Mulliken Charges: (a.u.)
   Center  Symbol    Alpha    Beta     Spin     Total
       1     O     4.26897  4.26897  0.00000 -0.53794
       2     C     2.61795  2.61795  0.00000  0.76409
       3     C     3.28671  3.28671  0.00000 -0.57341
       4     O     4.31892  4.31892  0.00000 -0.63783
       5     H     0.40199  0.40199  0.00000  0.19601
       6     H     0.39980  0.39980  0.00000  0.20040
       7     H     0.39642  0.39642  0.00000  0.20715
       8     C     2.99578  2.99578  0.00000  0.00843
       9     C     3.16410  3.16410  0.00000 -0.32821
      10     H     0.42149  0.42149  0.00000  0.15702
      11     H     0.40558  0.40558  0.00000  0.18884
      12     C     3.16019  3.16019  0.00000 -0.32038
      13     H     0.41486  0.41486  0.00000  0.17029
      14     H     0.41117  0.41117  0.00000  0.17767
      15     C     3.15145  3.15145  0.00000 -0.30289
      16     H     0.42257  0.42257  0.00000  0.15486
      17     H     0.42022  0.42022  0.00000  0.15957
      18     C     3.23984  3.23984  0.00000 -0.47968
      19     H     0.42168  0.42168  0.00000  0.15664
      20     H     0.42064  0.42064  0.00000  0.15872
      21     H     0.42132  0.42132  0.00000  0.15737
      22     H     0.41775  0.41775  0.00000  0.16451
      23     H     0.42061  0.42061  0.00000  0.15878

   Total alpha = 36.00000, Total beta = 36.00000, Total charge = -0.00000
