  ==> Input File <==

--------------------------------------------------------------------------
set {
	reference rhf
	basis 6-31G*
}

set_num_threads( 4 )
memory 2 gb

molecule MOL {
0 1

H	 1.630278	 0.069849	 -1.367966
C	 0.928144	 -0.484033	 -0.778805
C	 0.922020	 -1.867295	 -0.773667
C	 0.000000	 0.183220	 0.000000
H	 1.634659	 -2.404452	 -1.371642
C	 0.000000	 -2.555744	 0.000000
N	 0.000000	 1.642018	 0.000000
C	 -0.928144	 -0.484034	 0.778805
H	 0.000000	 -3.630640	 0.000000
C	 -0.922020	 -1.867295	 0.773667
O	 1.057097	 2.196749	 0.000000
O	 -1.057097	 2.196749	 0.000000
H	 -1.630278	 0.069849	 1.367966
H	 -1.634659	 -2.404452	 1.371642

	symmetry c1
}
set optking {
	frozen_dihedral = ("
		2 4 7 11
	")
}

ee = optimize('scf')
oeprop('DIPOLE', 'QUADRUPOLE', 'MULLIKEN_CHARGES')
f=open( 'psi4out.xyz', 'w' )
f.write( "14  " )
f.write( str(ee) + "\n" )
f.write( MOL.save_string_xyz() )
f.close()
--------------------------------------------------------------------------

    Molecular point group: c1
  Charge       = 0
  Multiplicity = 1
  Basis Set: 6-31G*
  Basis Set:
  @DF-RHF Final Energy:  -434.17065887629934
    Total Energy =                       -434.1706588762992851
    Molecular point group: c1
  Basis Set: 6-31G*
  Basis Set:
  Basis Set: 6-31G*
  Basis Set:
  @DF-RHF Final Energy:  -434.16440627211011
    Total Energy =                       -434.1644062721102273
  Basis Set: 6-31G*
  Basis Set:
  Basis Set: 6-31G*
  Basis Set:
  @DF-RHF Final Energy:  -434.17088409526770
    Total Energy =                       -434.1708840952674109
  Basis Set: 6-31G*
  Basis Set:
  Basis Set: 6-31G*
  Basis Set:
  @DF-RHF Final Energy:  -434.17106389968438
    Total Energy =                       -434.1710638996839862
  Basis Set: 6-31G*
  Basis Set:
  Charge       = 0
  Multiplicity = 1
  Basis Set: 6-31G*
  Basis Set:

    Orbital Energies (a.u.)
    -----------------------

    Doubly Occupied:

       1A    -20.603299     2A    -20.603204     3A    -15.855297
       4A    -11.305534     5A    -11.271514     6A    -11.271221
       7A    -11.266440     8A    -11.262148     9A    -11.261964
      10A     -1.635200    11A     -1.418954    12A     -1.202463
      13A     -1.095144    14A     -1.053547    15A     -0.957884
      16A     -0.867952    17A     -0.825833    18A     -0.782407
      19A     -0.733310    20A     -0.729182    21A     -0.712128
      22A     -0.651736    23A     -0.649692    24A     -0.624429
      25A     -0.556013    26A     -0.540397    27A     -0.530874
      28A     -0.490491    29A     -0.487377    30A     -0.450728
      31A     -0.371458    32A     -0.366240

  @DF-RHF Final Energy:  -434.17106415348218

   => Energetics <=

    Nuclear Repulsion Energy =            417.0108616746055645
    One-Electron Energy =               -1417.4957325250225040
    Two-Electron Energy =                 566.3138066969346482
    DFT Exchange-Correlation Energy =       0.0000000000000000
    Empirical Dispersion Energy =           0.0000000000000000
    PCM Polarization Energy =               0.0000000000000000
    EFP Energy =                            0.0000000000000000
    Total Energy =                       -434.1710641534822344
    Molecular point group: c1
  Basis Set: 6-31G*
  Basis Set:

  -Total Gradient:
     Atom            X                  Y                   Z
    ------   -----------------  -----------------  -----------------
       1       -0.000003853096    -0.000007404423     0.000006375622
       2       -0.002932325503    -0.000149087647    -0.003367267777
       3       -0.000046679826     0.000030840262    -0.000076677826
       4        0.004288307829     0.000238622509     0.006856684570
       5        0.000004542425    -0.000000182160     0.000006167696
       6        0.000052578203     0.000001663755     0.000109634575
       7       -0.001475286404    -0.000171393695    -0.008562154875
       8        0.000010710512     0.000030313680    -0.000054287084
       9       -0.000009136871     0.000000136440    -0.000017178036
      10       -0.000005825975    -0.000017098786    -0.000042695032
      11        0.000150235515     0.000086424709     0.005133498451
      12       -0.000042072667    -0.000054931871    -0.000012835549
      13        0.000009446196     0.000002427204     0.000019637963
      14       -0.000000640338     0.000009670014     0.000001097304

  **** Optimization is complete! (in 5 steps) ****
    Final optimized geometry and variables:
    Molecular point group: c1

    Geometry (in Angstrom), charge = 0, multiplicity = 1:

    H            1.648618618242     0.075217410084    -1.347953329988
    C            0.938323804482    -0.480440962790    -0.767700628409
    C            0.919789998237    -1.864122520318    -0.776626713433
    C            0.018552371962     0.183090618853     0.020271552072
    H            1.621929475064    -2.401999648638    -1.386222092241
    C           -0.001169521828    -2.551186092250    -0.000491410811
    N           -0.001744807530     1.639076429257    -0.010645971173
    C           -0.930215817696    -0.478144131258     0.775256140401
    H           -0.006334457346    -3.625996210723    -0.005018111161
    C           -0.920573571895    -1.861802317937     0.775899715700
    O            1.050745207669     2.201463245215    -0.047861218729
    O           -1.066594005337     2.175977719353     0.038576465774
    H           -1.647635363006     0.078329286800     1.345456639834
    H           -1.634988536709    -2.398453261146     1.372186810388

  Mulliken Charges: (a.u.)
   Center  Symbol    Alpha    Beta     Spin     Total
       1     H     0.36986  0.36986  0.00000  0.26028
       2     C     3.08655  3.08655  0.00000 -0.17309
       3     C     3.10707  3.10707  0.00000 -0.21414
       4     C     2.90970  2.90970  0.00000  0.18061
       5     H     0.38846  0.38846  0.00000  0.22308
       6     C     3.08849  3.08849  0.00000 -0.17697
       7     N     3.25363  3.25363  0.00000  0.49273
       8     C     3.08490  3.08490  0.00000 -0.16981
       9     H     0.38932  0.38932  0.00000  0.22136
      10     C     3.10747  3.10747  0.00000 -0.21494
      11     O     4.22746  4.22746  0.00000 -0.45491
      12     O     4.22895  4.22895  0.00000 -0.45790
      13     H     0.36972  0.36972  0.00000  0.26056
      14     H     0.38844  0.38844  0.00000  0.22313

   Total alpha = 32.00000, Total beta = 32.00000, Total charge = -0.00000
