                              Psi4 1.0.54 Driver

  ==> Input File <==

--------------------------------------------------------------------------
set {
	reference rhf
	basis cc-pvtz
}

set_num_threads( 4 )
memory 2 gb

molecule MOL {
0 1

H	 -2.512604	 0.407272	 0.710364
O	 -2.313989	 -0.142475	 -0.025864
C	 -0.943808	 -0.065018	 -0.330000
H	 -0.812293	 -0.225641	 -1.398673
C	 -0.231030	 -1.182113	 0.407592
C	 -0.353797	 1.300461	 0.050970
H	 -0.312800	 -0.992012	 1.473041
H	 -0.738841	 -2.119564	 0.220514
C	 1.246176	 -1.268044	 -0.015480
H	 -0.539537	 2.008579	 -0.751815
H	 -0.889989	 1.662858	 0.920677
C	 1.153605	 1.231851	 0.356834
H	 1.823096	 -1.684665	 0.802361
H	 1.352335	 -1.958223	 -0.845114
C	 1.826409	 0.100723	 -0.416008
H	 1.622968	 2.181508	 0.128734
H	 1.301983	 1.066493	 1.419367
H	 2.897299	 0.112407	 -0.249665
H	 1.683458	 0.265621	 -1.480024

	symmetry c1
}
set optking {
	frozen_dihedral = ("
		1 2 3 4
	")
}

ee,wfn = optimize('scf', return_wfn=True)
oeprop( wfn, 'DIPOLE', 'QUADRUPOLE', 'MULLIKEN_CHARGES')
f=open( 'psi4out.xyz', 'w' )
f.write( "19  " )
f.write( str(ee) + "\n" )
f.write( MOL.save_string_xyz() )
f.close()
--------------------------------------------------------------------------

    Molecular point group: c1
  Charge       = 0
  Multiplicity = 1
  Basis Set: CC-PVTZ
  Basis Set:
  @DF-RHF Final Energy:  -309.16099170970921
    Total Energy =                       -309.1609917097089237
    Molecular point group: c1
  Basis Set: CC-PVTZ
  Basis Set:
  Basis Set: CC-PVTZ
  Basis Set:
  @DF-RHF Final Energy:  -309.16218401814029
    Total Energy =                       -309.1621840181404650
  Basis Set: CC-PVTZ
  Basis Set:
  Basis Set: CC-PVTZ
  Basis Set:
  @DF-RHF Final Energy:  -309.16240506526998
    Total Energy =                       -309.1624050652699225
  Basis Set: CC-PVTZ
  Basis Set:
  Basis Set: CC-PVTZ
  Basis Set:
  @DF-RHF Final Energy:  -309.16240897869750
    Total Energy =                       -309.1624089786973286
  Basis Set: CC-PVTZ
  Basis Set:
  Charge       = 0
  Multiplicity = 1
  Basis Set: CC-PVTZ
  Basis Set:

    Orbital Energies (a.u.)
    -----------------------

    Doubly Occupied:

       1A    -20.541779     2A    -11.267333     3A    -11.218321
       4A    -11.217745     5A    -11.215480     6A    -11.214694
       7A    -11.207937     8A     -1.362454     9A     -1.111815
      10A     -1.005629    11A     -0.989978    12A     -0.846001
      13A     -0.843885    14A     -0.751595    15A     -0.675522
      16A     -0.665747    17A     -0.614039    18A     -0.609477
      19A     -0.580730    20A     -0.560117    21A     -0.531331
      22A     -0.521753    23A     -0.502756    24A     -0.490563
      25A     -0.469048    26A     -0.450863    27A     -0.430717
      28A     -0.410387

  @DF-RHF Final Energy:  -309.16240945076311

   => Energetics <=

    Nuclear Repulsion Energy =            331.8475397174270256
    One-Electron Energy =               -1077.4045070978017975
    Two-Electron Energy =                 436.3945579296114374
    DFT Exchange-Correlation Energy =       0.0000000000000000
    Empirical Dispersion Energy =           0.0000000000000000
    PCM Polarization Energy =               0.0000000000000000
    EFP Energy =                            0.0000000000000000
    Total Energy =                       -309.1624094507633345
    Molecular point group: c1
  Basis Set: CC-PVTZ
  Basis Set:

  -Total Gradient:
     Atom            X                  Y                   Z
    ------   -----------------  -----------------  -----------------
       1       -0.000210235981     0.001232837397    -0.001025798668
       2        0.000254511247    -0.001292836269     0.001208980526
       3        0.000054530291    -0.001305354955     0.000065926567
       4       -0.000077386649     0.001322933814    -0.000218210791
       5       -0.000032811288    -0.000010192442    -0.000031735240
       6        0.000043018491    -0.000003690347     0.000012848707
       7        0.000002370391    -0.000001690432    -0.000016509982
       8        0.000002953741    -0.000011355303     0.000007972336
       9       -0.000019061861    -0.000009426399     0.000044607726
      10        0.000010918007     0.000021531344    -0.000004222692
      11        0.000015195497     0.000002675480    -0.000005285565
      12       -0.000011849607     0.000033584617    -0.000022748892
      13        0.000010249583    -0.000020874625     0.000001271311
      14       -0.000011759720     0.000002557570     0.000002680897
      15       -0.000016661201     0.000021345687    -0.000029954150
      16        0.000000887361     0.000014231443     0.000013942181
      17       -0.000010145924     0.000000493119     0.000001476417
      18       -0.000014647238    -0.000003446846     0.000003829091
      19        0.000009924858     0.000006677146    -0.000009069778

  **** Optimization is complete! (in 5 steps) ****
    Final optimized geometry and variables:
    Molecular point group: c1

    Geometry (in Angstrom), charge = 0, multiplicity = 1:

    H           -2.556546420452     0.418525999227     0.693740648331
    O           -2.335900426719    -0.136728562701    -0.030928789696
    C           -0.953895347191    -0.084589039503    -0.282307559314
    H           -0.856565441277    -0.258307569234    -1.348007409342
    C           -0.199645681356    -1.178614857648     0.457159363883
    C           -0.364520755231     1.293914791072     0.042272515023
    H           -0.237988910932    -0.967437278854     1.523018074929
    H           -0.705352290486    -2.124559473692     0.311656369232
    C            1.262000552422    -1.261557533419    -0.020103635268
    H           -0.607567669879     1.981468602299    -0.759887619033
    H           -0.849675381560     1.680234125395     0.935846849930
    C            1.156820848211     1.247902461300     0.276663454503
    H            1.878650905614    -1.640779111570     0.786972031807
    H            1.344132050592    -1.979272646595    -0.828669928769
    C            1.804456251702     0.099725257600    -0.492547328368
    H            1.603187302781     2.194763147923    -0.002901282516
    H            1.359666291407     1.116707801074     1.335103599867
    H            2.881788247467     0.129259388262    -0.378712342292
    H            1.608164310612     0.228886221356    -1.552695888902

  Mulliken Charges: (a.u.)
   Center  Symbol    Alpha    Beta     Spin     Total
       1     H     0.39479  0.39479  0.00000  0.21043
       2     O     4.20794  4.20794  0.00000 -0.41587
       3     C     2.93109  2.93109  0.00000  0.13782
       4     H     0.44579  0.44579  0.00000  0.10841
       5     C     3.09905  3.09905  0.00000 -0.19810
       6     C     3.11699  3.11699  0.00000 -0.23398
       7     H     0.46113  0.46113  0.00000  0.07774
       8     H     0.44067  0.44067  0.00000  0.11867
       9     C     3.11316  3.11316  0.00000 -0.22631
      10     H     0.44383  0.44383  0.00000  0.11233
      11     H     0.45848  0.45848  0.00000  0.08304
      12     C     3.09983  3.09983  0.00000 -0.19966
      13     H     0.44758  0.44758  0.00000  0.10484
      14     H     0.44642  0.44642  0.00000  0.10716
      15     C     3.10254  3.10254  0.00000 -0.20507
      16     H     0.44157  0.44157  0.00000  0.11687
      17     H     0.45361  0.45361  0.00000  0.09278
      18     H     0.44260  0.44260  0.00000  0.11480
      19     H     0.45295  0.45295  0.00000  0.09411

   Total alpha = 28.00000, Total beta = 28.00000, Total charge = -0.00000

*** Psi4 exiting successfully. Buy a developer a beer!
