  ==> Input File <==

--------------------------------------------------------------------------
set {
	reference rhf
	basis 6-31G*
}

set_num_threads( 1 )
memory 2 gb

molecule MOL {
0 1

O	 3.225979	 0.970355	 -0.599647
C	 2.701189	 0.057885	 -0.047330
C	 1.245376	 -0.013843	 0.345420
O	 3.347903	 -1.046386	 0.304773
C	 0.952833	 -1.111270	 1.366297
H	 0.966008	 0.968196	 0.712493
H	 0.672000	 -0.164305	 -0.565788
C	 -0.535624	 -1.266165	 1.696448
H	 1.512656	 -0.913730	 2.275524
H	 1.330855	 -2.051889	 0.980607
C	 -1.163098	 -0.073022	 2.422943
H	 -0.652558	 -2.151443	 2.317200
H	 -1.091302	 -1.464469	 0.781075
C	 -2.617871	 -0.320576	 2.827113
H	 -0.576492	 0.153166	 3.312072
H	 -1.119388	 0.813558	 1.794422
C	 -3.256816	 0.867031	 3.549241
H	 -2.668698	 -1.199291	 3.467826
H	 -3.202839	 -0.557362	 1.939733
C	 -4.708333	 0.610263	 3.952815
H	 -2.672943	 1.105624	 4.435699
H	 -3.210875	 1.745281	 2.908658
H	 -5.133340	 1.469651	 4.462155
H	 -4.784167	 -0.241807	 4.622456
H	 -5.326021	 0.402186	 3.083655
C	 4.728119	 -1.109107	 -0.004993
H	 4.882018	 -1.033965	 -1.071845
H	 5.068212	 -2.067527	 0.355250
H	 5.265056	 -0.311663	 0.488280

	symmetry c1
}
set optking {
	frozen_dihedral = ("
		21 17 14 11,
		17 14 11 15,
		15 11 8 5,
		6 3 5 9,
		11 8 5 9,
		2 4 26 27,
		1 2 4 26
	")
}

ee = energy('scf')
oeprop('DIPOLE', 'QUADRUPOLE', 'MULLIKEN_CHARGES')
f=open( 'psi4out.xyz', 'w' )
f.write( "29  " )
f.write( str(ee) + "\n" )
f.write( MOL.save_string_xyz() )
f.close()
--------------------------------------------------------------------------

    Molecular point group: c1

    Geometry (in Angstrom), charge = 0, multiplicity = 1:

       Center              X                  Y                   Z               Mass
    ------------   -----------------  -----------------  -----------------  -----------------
           O          2.830912664288     1.192099334619    -2.023548296955    15.994914619560
           C          2.306122664288     0.279629334619    -1.471231296955    12.000000000000
           C          0.850309664288     0.207901334619    -1.078481296955    12.000000000000
           O          2.952836664288    -0.824641665381    -1.119128296955    15.994914619560
           C          0.557766664288    -0.889525665381    -0.057604296955    12.000000000000
           H          0.570941664288     1.189940334619    -0.711408296955     1.007825032070
           H          0.276933664288     0.057439334619    -1.989689296955     1.007825032070
           C         -0.930690335712    -1.044420665381     0.272546703045    12.000000000000
           H          1.117589664288    -0.691985665381     0.851622703045     1.007825032070
           H          0.935788664288    -1.830144665381    -0.443294296955     1.007825032070
           C         -1.558164335712     0.148722334619     0.999041703045    12.000000000000
           H         -1.047624335712    -1.929698665381     0.893298703045     1.007825032070
           H         -1.486368335712    -1.242724665381    -0.642826296955     1.007825032070
           C         -3.012937335712    -0.098831665381     1.403211703045    12.000000000000
           H         -0.971558335712     0.374910334619     1.888170703045     1.007825032070
           H         -1.514454335712     1.035302334619     0.370520703045     1.007825032070
           C         -3.651882335712     1.088775334619     2.125339703045    12.000000000000
           H         -3.063764335712    -0.977546665381     2.043924703045     1.007825032070
           H         -3.597905335712    -0.335617665381     0.515831703045     1.007825032070
           C         -5.103399335712     0.832007334619     2.528913703045    12.000000000000
           H         -3.068009335712     1.327368334619     3.011797703045     1.007825032070
           H         -3.605941335712     1.967025334619     1.484756703045     1.007825032070
           H         -5.528406335712     1.691395334619     3.038253703045     1.007825032070
           H         -5.179233335712    -0.020062665381     3.198554703045     1.007825032070
           H         -5.721087335712     0.623930334619     1.659753703045     1.007825032070
           C          4.333052664288    -0.887362665381    -1.428894296955    12.000000000000
           H          4.486951664288    -0.812220665381    -2.495746296955     1.007825032070
           H          4.673145664288    -1.845782665381    -1.068651296955     1.007825032070
           H          4.869989664288    -0.089918665381    -0.935621296955     1.007825032070

  Charge       = 0
  Multiplicity = 1
  Basis Set: 6-31G*
  Basis Set:

    Orbital Energies (a.u.)
    -----------------------

    Doubly Occupied:

       1A    -20.604943     2A    -20.542492     3A    -11.372321
       4A    -11.281070     5A    -11.234539     6A    -11.220854
       7A    -11.218512     8A    -11.216463     9A    -11.215969
      10A    -11.214835    11A    -11.209158    12A     -1.469779
      13A     -1.361721    14A     -1.100113    15A     -1.068937
      16A     -1.019333    17A     -0.972047    18A     -0.931623
      19A     -0.864307    20A     -0.799293    21A     -0.790518
      22A     -0.772776    23A     -0.699238    24A     -0.682766
      25A     -0.670879    26A     -0.651460    27A     -0.627532
      28A     -0.604240    29A     -0.591302    30A     -0.577970
      31A     -0.563424    32A     -0.551137    33A     -0.534457
      34A     -0.531444    35A     -0.523545    36A     -0.511315
      37A     -0.498966    38A     -0.481656    39A     -0.472518
      40A     -0.464358    41A     -0.462513    42A     -0.452733
      43A     -0.443028    44A     -0.425244

  @DF-RHF Final Energy:  -501.04006716872686

   => Energetics <=

    Nuclear Repulsion Energy =            614.3298050103105652
    One-Electron Energy =               -1899.7329420382470744
    Two-Electron Energy =                 784.3630698592096451
    DFT Exchange-Correlation Energy =       0.0000000000000000
    Empirical Dispersion Energy =           0.0000000000000000
    PCM Polarization Energy =               0.0000000000000000
    EFP Energy =                            0.0000000000000000
    Total Energy =                       -501.0400671687268641

  Mulliken Charges: (a.u.)
   Center  Symbol    Alpha    Beta     Spin     Total
       1     O     4.28842  4.28842  0.00000 -0.57684
       2     C     2.60152  2.60152  0.00000  0.79697
       3     C     3.21653  3.21653  0.00000 -0.43305
       4     O     4.30487  4.30487  0.00000 -0.60974
       5     C     3.15409  3.15409  0.00000 -0.30819
       6     H     0.39603  0.39603  0.00000  0.20794
       7     H     0.39958  0.39958  0.00000  0.20084
       8     C     3.15627  3.15627  0.00000 -0.31253
       9     H     0.41749  0.41749  0.00000  0.16502
      10     H     0.40617  0.40617  0.00000  0.18766
      11     C     3.15518  3.15518  0.00000 -0.31036
      12     H     0.41923  0.41923  0.00000  0.16155
      13     H     0.42353  0.42353  0.00000  0.15294
      14     C     3.15032  3.15032  0.00000 -0.30064
      15     H     0.42318  0.42318  0.00000  0.15365
      16     H     0.42244  0.42244  0.00000  0.15512
      17     C     3.15151  3.15151  0.00000 -0.30302
      18     H     0.42376  0.42376  0.00000  0.15247
      19     H     0.42384  0.42384  0.00000  0.15231
      20     C     3.23937  3.23937  0.00000 -0.47873
      21     H     0.42292  0.42292  0.00000  0.15415
      22     H     0.42284  0.42284  0.00000  0.15432
      23     H     0.41906  0.41906  0.00000  0.16189
      24     H     0.42181  0.42181  0.00000  0.15639
      25     H     0.42173  0.42173  0.00000  0.15653
      26     C     3.09199  3.09199  0.00000 -0.18399
      27     H     0.40876  0.40876  0.00000  0.18248
      28     H     0.40896  0.40896  0.00000  0.18209
      29     H     0.40861  0.40861  0.00000  0.18278

   Total alpha = 44.00000, Total beta = 44.00000, Total charge = -0.00000
