  ==> Input File <==

--------------------------------------------------------------------------
set {
	reference rhf
	basis 6-31G*
}

set_num_threads( 1 )
memory 2 gb

molecule MOL {
0 1

O	 0.074228	 1.262779	 -0.000085
C	 0.028650	 0.075053	 -0.000277
C	 -1.233602	 -0.752807	 0.000328
O	 1.109162	 -0.694619	 -0.000298
C	 -2.501530	 0.091881	 0.000126
H	 -1.193807	 -1.406641	 -0.865785
H	 -1.193516	 -1.405779	 0.867015
H	 -2.545121	 0.729328	 -0.874513
H	 -3.377167	 -0.548497	 0.000561
H	 -2.544818	 0.730135	 0.874258
C	 1.760021	 -0.888536	 1.242428
H	 2.098753	 0.055179	 1.645013
H	 2.601729	 -1.531477	 1.037446
H	 1.093440	 -1.358481	 1.951154

	symmetry c1
}
set optking {
	frozen_dihedral = ("
		4 2 3 6
	")
}

ee = energy('scf')
oeprop('DIPOLE', 'QUADRUPOLE', 'MULLIKEN_CHARGES')
f=open( 'psi4out.xyz', 'w' )
f.write( "14  " )
f.write( str(ee) + "\n" )
f.write( MOL.save_string_xyz() )
f.close()
--------------------------------------------------------------------------

    Molecular point group: c1

    Geometry (in Angstrom), charge = 0, multiplicity = 1:

       Center              X                  Y                   Z               Mass
    ------------   -----------------  -----------------  -----------------  -----------------
           O          0.182452334893     1.414717243629    -0.222413370147    15.994914619560
           C          0.136874334893     0.226991243629    -0.222605370147    12.000000000000
           C         -1.125377665107    -0.600868756371    -0.222000370147    12.000000000000
           O          1.217386334893    -0.542680756371    -0.222626370147    15.994914619560
           C         -2.393305665107     0.243819243629    -0.222202370147    12.000000000000
           H         -1.085582665107    -1.254702756371    -1.088113370147     1.007825032070
           H         -1.085291665107    -1.253840756371     0.644686629853     1.007825032070
           H         -2.436896665107     0.881266243629    -1.096841370147     1.007825032070
           H         -3.268942665107    -0.396558756371    -0.221767370147     1.007825032070
           H         -2.436593665107     0.882073243629     0.651929629853     1.007825032070
           C          1.868245334893    -0.736597756371     1.020099629853    12.000000000000
           H          2.206977334893     0.207117243629     1.422684629853     1.007825032070
           H          2.709953334893    -1.379538756371     0.815117629853     1.007825032070
           H          1.201664334893    -1.206542756371     1.728825629853     1.007825032070

  Charge       = 0
  Multiplicity = 1
  Basis Set: 6-31G*
  Basis Set:

    Orbital Energies (a.u.)
    -----------------------

    Doubly Occupied:

       1A    -20.588128     2A    -20.555347     3A    -11.374205
       4A    -11.294631     5A    -11.240013     6A    -11.217110
       7A     -1.465152     8A     -1.367490     9A     -1.062090
      10A     -0.982975    11A     -0.888976    12A     -0.769897
      13A     -0.699455    14A     -0.681234    15A     -0.674382
      16A     -0.620049    17A     -0.616383    18A     -0.558297
      19A     -0.543710    20A     -0.523094    21A     -0.508676
      22A     -0.489534    23A     -0.457195    24A     -0.436525

  @DF-RHF Final Energy:  -305.85216609031545

   => Energetics <=

    Nuclear Repulsion Energy =            247.4604038354234206
    One-Electron Energy =                -907.3960690179878839
    Two-Electron Energy =                 354.0834990922484167
    DFT Exchange-Correlation Energy =       0.0000000000000000
    Empirical Dispersion Energy =           0.0000000000000000
    PCM Polarization Energy =               0.0000000000000000
    EFP Energy =                            0.0000000000000000
    Total Energy =                       -305.8521660903160182

  Mulliken Charges: (a.u.)
   Center  Symbol    Alpha    Beta     Spin     Total
       1     O     4.26022  4.26022  0.00000 -0.52044
       2     C     2.61674  2.61674  0.00000  0.76652
       3     C     3.20768  3.20768  0.00000 -0.41536
       4     O     4.30979  4.30979  0.00000 -0.61958
       5     C     3.23988  3.23988  0.00000 -0.47975
       6     H     0.39825  0.39825  0.00000  0.20350
       7     H     0.40749  0.40749  0.00000  0.18501
       8     H     0.40856  0.40856  0.00000  0.18289
       9     H     0.41860  0.41860  0.00000  0.16280
      10     H     0.41123  0.41123  0.00000  0.17755
      11     C     3.09329  3.09329  0.00000 -0.18657
      12     H     0.40569  0.40569  0.00000  0.18862
      13     H     0.40177  0.40177  0.00000  0.19645
      14     H     0.42081  0.42081  0.00000  0.15837

   Total alpha = 24.00000, Total beta = 24.00000, Total charge =  0.00000
