                              Psi4 1.0.54 Driver

  ==> Input File <==

--------------------------------------------------------------------------
set {
	reference rhf
	basis cc-pvtz
}

set_num_threads( 4 )
memory 2 gb

molecule MOL {
0 1

H	 -3.402799	 -0.112097	 0.632916
O	 -2.617689	 -0.638639	 0.641513
C	 -1.583159	 0.143111	 0.345623
C	 -0.288956	 -0.624343	 0.336470
O	 -1.710744	 1.296748	 0.120204
C	 0.926581	 0.227233	 0.000178
H	 -0.406762	 -1.440330	 -0.369231
H	 -0.187235	 -1.090018	 1.311415
C	 2.220156	 -0.582071	 -0.000088
H	 0.782060	 0.689830	 -0.969643
H	 1.001866	 1.040585	 0.713068
C	 3.466689	 0.296012	 -0.000457
H	 2.239073	 -1.234095	 -0.869382
H	 2.239505	 -1.233985	 0.869270
H	 3.493549	 0.935857	 -0.875887
H	 4.368821	 -0.304526	 -0.001199
H	 3.494559	 0.935166	 0.875458

	symmetry c1
}
set optking {
	frozen_dihedral = ("
		10 6 9 13
	")
}

ee,wfn = optimize('scf', return_wfn=True)
oeprop( wfn, 'DIPOLE', 'QUADRUPOLE', 'MULLIKEN_CHARGES')
f=open( 'psi4out.xyz', 'w' )
f.write( "17  " )
f.write( str(ee) + "\n" )
f.write( MOL.save_string_xyz() )
f.close()
--------------------------------------------------------------------------

    Molecular point group: c1
  Charge       = 0
  Multiplicity = 1
  Basis Set: CC-PVTZ
  Basis Set:
  @DF-RHF Final Energy:  -345.04818178344630
    Total Energy =                       -345.0481817834462390
    Molecular point group: c1
  Basis Set: CC-PVTZ
  Basis Set:
  Basis Set: CC-PVTZ
  Basis Set:
  @DF-RHF Final Energy:  -345.04820348987818
    Total Energy =                       -345.0482034898782331
  Basis Set: CC-PVTZ
  Basis Set:
  Basis Set: CC-PVTZ
  Basis Set:
  @DF-RHF Final Energy:  -345.04811023634807
    Total Energy =                       -345.0481102363484069
  Basis Set: CC-PVTZ
  Basis Set:
  Basis Set: CC-PVTZ
  Basis Set:
  @DF-RHF Final Energy:  -345.04829706788257
    Total Energy =                       -345.0482970678826860
  Basis Set: CC-PVTZ
  Basis Set:
  Basis Set: CC-PVTZ
  Basis Set:
  @DF-RHF Final Energy:  -345.04830247569470
    Total Energy =                       -345.0483024756945838
  Basis Set: CC-PVTZ
  Basis Set:
  Charge       = 0
  Multiplicity = 1
  Basis Set: CC-PVTZ
  Basis Set:

    Orbital Energies (a.u.)
    -----------------------

    Doubly Occupied:

       1A    -20.604086     2A    -20.540691     3A    -11.373590
       4A    -11.239250     5A    -11.221408     6A    -11.220754
       7A    -11.210602     8A     -1.477655     9A     -1.369176
      10A     -1.092681    11A     -1.019674    12A     -0.914688
      13A     -0.824854    14A     -0.790770    15A     -0.703891
      16A     -0.688365    17A     -0.672078    18A     -0.631589
      19A     -0.593323    20A     -0.586125    21A     -0.574482
      22A     -0.537459    23A     -0.510427    24A     -0.484721
      25A     -0.481549    26A     -0.478447    27A     -0.473212
      28A     -0.446120

  @DF-RHF Final Energy:  -345.04830253964275

   => Energetics <=

    Nuclear Repulsion Energy =            304.7940156285466742
    One-Electron Energy =               -1074.1613013414842044
    Two-Electron Energy =                 424.3189831732945549
    DFT Exchange-Correlation Energy =       0.0000000000000000
    Empirical Dispersion Energy =           0.0000000000000000
    PCM Polarization Energy =               0.0000000000000000
    EFP Energy =                            0.0000000000000000
    Total Energy =                       -345.0483025396429184
    Molecular point group: c1
  Basis Set: CC-PVTZ
  Basis Set:

  -Total Gradient:
     Atom            X                  Y                   Z
    ------   -----------------  -----------------  -----------------
       1        0.000002697069     0.000001383289     0.000001880057
       2       -0.000002256774    -0.000011752619    -0.000003492985
       3        0.000003841899     0.000009331244    -0.000000639372
       4        0.000001742449    -0.000001663418    -0.000025340780
       5        0.000004084094     0.000002114047     0.000002859166
       6        0.001935468875     0.003074737116     0.000686680680
       7       -0.000001583698    -0.000002028185     0.000007130033
       8        0.000001836465     0.000002090625     0.000008078705
       9       -0.001754853450    -0.002841040307     0.001526024829
      10       -0.001340944639    -0.002129781720    -0.000799468960
      11       -0.000002452016     0.000009480052     0.000002922430
      12       -0.000007693041    -0.000000603326    -0.000002088407
      13        0.001167766931     0.001884079677    -0.001402324344
      14       -0.000005996832     0.000001583233    -0.000001311106
      15        0.000002682646     0.000002286092    -0.000003554922
      16       -0.000001637144    -0.000000948265     0.000002284376
      17       -0.000002702840     0.000000732469     0.000000360601

  **** Optimization is complete! (in 6 steps) ****
    Final optimized geometry and variables:
    Molecular point group: c1

    Geometry (in Angstrom), charge = 0, multiplicity = 1:

    H           -3.419936619972    -0.156120060431     0.394165484497
    O           -2.630653779905    -0.675956398974     0.417541287258
    C           -1.599234289953     0.112223655704     0.127642668297
    C           -0.297952069965    -0.642938363635     0.144627062771
    O           -1.733928658288     1.262984367032    -0.108329548652
    C            0.916020518228     0.218768645176    -0.176501039503
    H           -0.396047418244    -1.463585223881    -0.558952549386
    H           -0.208675062950    -1.102704469638     1.123401597539
    C            2.209504000653    -0.593576180042    -0.196274796637
    H            0.761503228006     0.682124123201    -1.143918350560
    H            0.987187543564     1.021592328074     0.547893077357
    C            3.454511354682     0.287293737474    -0.244468580634
    H            2.211149044030    -1.241991809855    -1.067930818423
    H            2.257780250070    -1.237128485418     0.677386189571
    H            3.440939315614     0.934454915379    -1.115020444681
    H            4.356706492307    -0.311454625510    -0.291296319959
    H            3.520596910633     0.919394359574     0.634411935862

  Mulliken Charges: (a.u.)
   Center  Symbol    Alpha    Beta     Spin     Total
       1     H     0.38244  0.38244  0.00000  0.23512
       2     O     4.15978  4.15978  0.00000 -0.31956
       3     C     2.80485  2.80485  0.00000  0.39031
       4     C     3.11112  3.11112  0.00000 -0.22223
       5     O     4.19115  4.19115  0.00000 -0.38231
       6     C     3.08224  3.08224  0.00000 -0.16448
       7     H     0.43808  0.43808  0.00000  0.12385
       8     H     0.43821  0.43821  0.00000  0.12357
       9     C     3.08627  3.08627  0.00000 -0.17255
      10     H     0.44540  0.44540  0.00000  0.10919
      11     H     0.44677  0.44677  0.00000  0.10647
      12     C     3.14894  3.14894  0.00000 -0.29788
      13     H     0.45344  0.45344  0.00000  0.09312
      14     H     0.45556  0.45556  0.00000  0.08888
      15     H     0.45330  0.45330  0.00000  0.09339
      16     H     0.44828  0.44828  0.00000  0.10343
      17     H     0.45416  0.45416  0.00000  0.09169

   Total alpha = 28.00000, Total beta = 28.00000, Total charge = -0.00000

*** Psi4 exiting successfully. Buy a developer a beer!
