                              Psi4 1.0.54 Driver

  ==> Input File <==

--------------------------------------------------------------------------
set {
	reference rhf
	basis cc-pvtz
}

set_num_threads( 4 )
memory 2 gb

molecule MOL {
0 1

H	 2.621316	 1.615522	 -2.121207
O	 1.693324	 1.511649	 -2.228285
C	 1.124290	 1.013147	 -1.113312
C	 1.860761	 0.708952	 0.021481
C	 -0.240016	 0.806879	 -1.125309
H	 2.923471	 0.870259	 0.029095
C	 1.232418	 0.199983	 1.140004
H	 -0.811588	 1.040818	 -2.000192
C	 -0.861704	 0.296439	 0.000000
H	 1.812426	 -0.031669	 2.012215
C	 -0.131988	 -0.009303	 1.136160
C	 -2.330689	 0.069587	 0.000000
H	 -0.623362	 -0.404956	 2.004432
O	 -2.848621	 -0.993976	 0.000000
H	 -2.934306	 0.982410	 0.000000

	symmetry c1
}
set optking {
	frozen_dihedral = ("
		11 9 12 14
	")
}

ee,wfn = optimize('scf', return_wfn=True)
oeprop( wfn, 'DIPOLE', 'QUADRUPOLE', 'MULLIKEN_CHARGES')
f=open( 'psi4out.xyz', 'w' )
f.write( "15  " )
f.write( str(ee) + "\n" )
f.write( MOL.save_string_xyz() )
f.close()
--------------------------------------------------------------------------

    Molecular point group: c1
  Charge       = 0
  Multiplicity = 1
  Basis Set: CC-PVTZ
  Basis Set:
  @DF-RHF Final Energy:  -418.42840974063392
    Total Energy =                       -418.4284097406341516
    Molecular point group: c1
  Basis Set: CC-PVTZ
  Basis Set:
  Basis Set: CC-PVTZ
  Basis Set:
  @DF-RHF Final Energy:  -418.42843304783190
    Total Energy =                       -418.4284330478321863
  Basis Set: CC-PVTZ
  Basis Set:
  Basis Set: CC-PVTZ
  Basis Set:
  @DF-RHF Final Energy:  -418.42804522336189
    Total Energy =                       -418.4280452233616643
  Basis Set: CC-PVTZ
  Basis Set:
  Basis Set: CC-PVTZ
  Basis Set:
  @DF-RHF Final Energy:  -418.42897546799463
    Total Energy =                       -418.4289754679946327
  Basis Set: CC-PVTZ
  Basis Set:
  Basis Set: CC-PVTZ
  Basis Set:
  @DF-RHF Final Energy:  -418.42898621281074
    Total Energy =                       -418.4289862128107416
  Basis Set: CC-PVTZ
  Basis Set:
  Charge       = 0
  Multiplicity = 1
  Basis Set: CC-PVTZ
  Basis Set:

    Orbital Energies (a.u.)
    -----------------------

    Doubly Occupied:

       1A    -20.597333     2A    -20.562797     3A    -11.332399
       4A    -11.312955     5A    -11.255843     6A    -11.249314
       7A    -11.240169     8A    -11.238644     9A    -11.236111
      10A     -1.429130    11A     -1.417339    12A     -1.172591
      13A     -1.052020    14A     -1.027108    15A     -0.902390
      16A     -0.846286    17A     -0.820636    18A     -0.742920
      19A     -0.703446    20A     -0.675636    21A     -0.674094
      22A     -0.641272    23A     -0.616376    24A     -0.608406
      25A     -0.587368    26A     -0.545351    27A     -0.537606
      28A     -0.516337    29A     -0.497406    30A     -0.426935
      31A     -0.358006    32A     -0.328845

  @DF-RHF Final Energy:  -418.42898686540502

   => Energetics <=

    Nuclear Repulsion Energy =            402.7367584854515599
    One-Electron Energy =               -1368.0253536173768225
    Two-Electron Energy =                 546.8596082665204676
    DFT Exchange-Correlation Energy =       0.0000000000000000
    Empirical Dispersion Energy =           0.0000000000000000
    PCM Polarization Energy =               0.0000000000000000
    EFP Energy =                            0.0000000000000000
    Total Energy =                       -418.4289868654047950
    Molecular point group: c1
  Basis Set: CC-PVTZ
  Basis Set:

  -Total Gradient:
     Atom            X                  Y                   Z
    ------   -----------------  -----------------  -----------------
       1       -0.000000077898     0.000008321681    -0.000002911159
       2        0.000022559631     0.000032549252     0.000011866658
       3       -0.000144780535    -0.000101885363    -0.000114065043
       4        0.000006522307    -0.000025327431     0.000165875904
       5        0.000098681017     0.000061641074    -0.000028495596
       6       -0.000004161341     0.000011560883    -0.000008300227
       7        0.000131768584     0.000025506633    -0.000087650876
       8        0.000002635278     0.000000159385     0.000002371837
       9        0.000678670440    -0.005555533319    -0.003716737991
      10       -0.000009043013    -0.000000517648     0.000007995283
      11       -0.000580662058     0.003731899170     0.001112153282
      12       -0.000257946402     0.001989623558     0.007426166829
      13        0.000004022729     0.000001176281    -0.000002387474
      14        0.000055916356    -0.000172061007    -0.004785108636
      15       -0.000004105098    -0.000007113151     0.000019227202

  **** Optimization is complete! (in 6 steps) ****
    Final optimized geometry and variables:
    Molecular point group: c1

    Geometry (in Angstrom), charge = 0, multiplicity = 1:

    H            2.682344925844     1.163654829066    -1.867559642013
    O            1.752176816497     1.066093909004    -1.963590680322
    C            1.195003047391     0.585952925798    -0.835800350672
    C            1.934828002102     0.307695260012     0.299518659525
    C           -0.173540734626     0.382888639872    -0.837116289632
    H            2.996386173922     0.475010285303     0.304583066891
    C            1.302300561189    -0.180783673185     1.426259724275
    H           -0.732555558910     0.620303762136    -1.721953050284
    C           -0.788672390893    -0.133446847595     0.285750876556
    H            1.880827211673    -0.387919389292     2.305988367898
    C           -0.059154522028    -0.404939490627     1.431052135761
    C           -2.276248733351    -0.310294117564     0.282789864853
    H           -0.546033551307    -0.796193541201     2.302365220041
    O           -2.819066324735    -1.357855907889     0.327966599799
    H           -2.857136962939     0.613766430625     0.196891589186

  Mulliken Charges: (a.u.)
   Center  Symbol    Alpha    Beta     Spin     Total
       1     H     0.38615  0.38615  0.00000  0.22769
       2     O     4.17170  4.17170  0.00000 -0.34340
       3     C     2.83601  2.83601  0.00000  0.32797
       4     C     3.13991  3.13991  0.00000 -0.27981
       5     C     3.13616  3.13616  0.00000 -0.27232
       6     H     0.43247  0.43247  0.00000  0.13507
       7     C     3.05292  3.05292  0.00000 -0.10584
       8     H     0.41947  0.41947  0.00000  0.16106
       9     C     2.92236  2.92236  0.00000  0.15529
      10     H     0.41959  0.41959  0.00000  0.16083
      11     C     3.12067  3.12067  0.00000 -0.24134
      12     C     2.92805  2.92805  0.00000  0.14390
      13     H     0.41913  0.41913  0.00000  0.16175
      14     O     4.15743  4.15743  0.00000 -0.31486
      15     H     0.45799  0.45799  0.00000  0.08402

   Total alpha = 32.00000, Total beta = 32.00000, Total charge = -0.00000

*** Psi4 exiting successfully. Buy a developer a beer!
