  ==> Input File <==

--------------------------------------------------------------------------
set {
	reference rhf
	basis 6-31G*
}

set_num_threads( 4 )
memory 2 gb

molecule MOL {
0 1

H	 2.591676	 2.013956	 0.335017
O	 3.341076	 1.666752	 -0.126416
C	 3.569581	 0.339145	 0.272707
C	 2.539767	 -0.640285	 -0.279495
H	 4.553106	 0.084646	 -0.100901
H	 3.608576	 0.269204	 1.359154
C	 1.115811	 -0.397273	 0.226630
H	 2.556196	 -0.582511	 -1.364741
H	 2.852081	 -1.648031	 -0.010655
C	 0.903168	 1.033253	 0.729815
H	 0.896289	 -1.099480	 1.026056
H	 0.406500	 -0.602973	 -0.575184
C	 -0.529962	 1.354977	 1.169101
H	 1.584871	 1.227190	 1.555961
H	 1.183608	 1.724089	 -0.062523
C	 -1.008859	 0.597506	 2.410622
H	 -0.594830	 2.422704	 1.368019
H	 -1.211538	 1.160208	 0.342447
C	 -2.402823	 1.028879	 2.871292
H	 -0.299287	 0.753138	 3.222038
H	 -1.018968	 -0.472169	 2.215697
C	 -2.885916	 0.269776	 4.106625
H	 -2.397714	 2.095953	 3.082987
H	 -3.111441	 0.883193	 2.058567
H	 -2.215018	 0.421845	 4.947455
H	 -3.875098	 0.599188	 4.409347
H	 -2.937539	 -0.798490	 3.915557

	symmetry c1
}
set optking {
	frozen_dihedral = ("
		10 7 4 8
	")
}

ee = optimize('scf')
oeprop('DIPOLE', 'QUADRUPOLE', 'MULLIKEN_CHARGES')
f=open( 'psi4out.xyz', 'w' )
f.write( "27  " )
f.write( str(ee) + "\n" )
f.write( MOL.save_string_xyz() )
f.close()
--------------------------------------------------------------------------

    Molecular point group: c1
  Charge       = 0
  Multiplicity = 1
  Basis Set: 6-31G*
  Basis Set:
  @DF-RHF Final Energy:  -388.25663039849309
    Total Energy =                       -388.2566303984932574
    Molecular point group: c1
  Basis Set: 6-31G*
  Basis Set:
  Basis Set: 6-31G*
  Basis Set:
  @DF-RHF Final Energy:  -388.26969395546502
    Total Energy =                       -388.2696939554643905
  Basis Set: 6-31G*
  Basis Set:
  Basis Set: 6-31G*
  Basis Set:
  @DF-RHF Final Energy:  -388.27225247829534
    Total Energy =                       -388.2722524782949449
  Basis Set: 6-31G*
  Basis Set:
  Basis Set: 6-31G*
  Basis Set:
  @DF-RHF Final Energy:  -388.27250024497067
    Total Energy =                       -388.2725002449710701
  Basis Set: 6-31G*
  Basis Set:
  @DF-RHF Final Energy:  -388.27307897288625
    Total Energy =                       -388.2730789728863101
  @DF-RHF Final Energy:  -388.27319234426079
    Total Energy =                       -388.2731923442612469
  Basis Set: 6-31G*
  Basis Set:
  @DF-RHF Final Energy:  -388.27320429362828
    Total Energy =                       -388.2732042936295329
  Basis Set: 6-31G*
  Basis Set:
  Basis Set: 6-31G*
  Basis Set:
  @DF-RHF Final Energy:  -388.27320599643383
    Total Energy =                       -388.2732059964341715
  Basis Set: 6-31G*
  Basis Set:
  Basis Set: 6-31G*
  Basis Set:
  @DF-RHF Final Energy:  -388.27320809555755
    Total Energy =                       -388.2732080955579477
  Basis Set: 6-31G*
  Basis Set:
  Charge       = 0
  Multiplicity = 1
  Basis Set: 6-31G*
  Basis Set:

    Orbital Energies (a.u.)
    -----------------------

    Doubly Occupied:

       1A    -20.549089     2A    -11.266876     3A    -11.223734
       4A    -11.219699     5A    -11.219182     6A    -11.217711
       7A    -11.216478     8A    -11.215055     9A    -11.210666
      10A     -1.356812    11A     -1.096294    12A     -1.059594
      13A     -1.012739    14A     -0.949577    15A     -0.892292
      16A     -0.827824    17A     -0.800833    18A     -0.775636
      19A     -0.694147    20A     -0.649932    21A     -0.633901
      22A     -0.621666    23A     -0.597955    24A     -0.582445
      25A     -0.569824    26A     -0.562463    27A     -0.549418
      28A     -0.526383    29A     -0.518047    30A     -0.499317
      31A     -0.478894    32A     -0.477471    33A     -0.467585
      34A     -0.464776    35A     -0.448299    36A     -0.438716
      37A     -0.421639

  @DF-RHF Final Energy:  -388.27320833809165

   => Energetics <=

    Nuclear Repulsion Energy =            465.8672738001267817
    One-Electron Energy =               -1449.6550269554359147
    Two-Electron Energy =                 595.5145448172171427
    DFT Exchange-Correlation Energy =       0.0000000000000000
    Empirical Dispersion Energy =           0.0000000000000000
    PCM Polarization Energy =               0.0000000000000000
    EFP Energy =                            0.0000000000000000
    Total Energy =                       -388.2732083380919903
    Molecular point group: c1
  Basis Set: 6-31G*
  Basis Set:

  -Total Gradient:
     Atom            X                  Y                   Z
    ------   -----------------  -----------------  -----------------
       1        0.000009030933     0.000003684837    -0.000001212667
       2       -0.000007767735     0.000018018509    -0.000005557309
       3        0.000004814746    -0.000015661864     0.000007195022
       4        0.002142278240     0.006612669213     0.002076377974
       5       -0.000002096262    -0.000007903497     0.000003984228
       6       -0.000002598412     0.000000759673    -0.000001059120
       7       -0.001983774801     0.000315991389    -0.005948264203
       8       -0.001300531998    -0.005752080176    -0.000192227881
       9        0.000005925718    -0.000003145219    -0.000000070075
      10        0.001143834953    -0.001174497377     0.004062439124
      11        0.000000549813    -0.000001247929     0.000000084311
      12       -0.000002971502     0.000006938488     0.000003415841
      13        0.000000690260    -0.000001613772    -0.000000927775
      14       -0.000006765760     0.000012442608    -0.000001486239
      15       -0.000008619955    -0.000020063226    -0.000007044492
      16       -0.000000925594    -0.000012697057    -0.000011971435
      17        0.000007320276     0.000000234309     0.000021572103
      18        0.000004456491     0.000021304730    -0.000007117308
      19        0.000001296719    -0.000000157832    -0.000001935966
      20        0.000000081341    -0.000001151299     0.000001824723
      21        0.000001310031    -0.000000159049    -0.000001151888
      22       -0.000002505245     0.000001004859     0.000001992360
      23       -0.000000584610    -0.000000597458    -0.000001622054
      24       -0.000001420678    -0.000001342346     0.000001552187
      25       -0.000000611383     0.000000795104    -0.000000219390
      26       -0.000001140234    -0.000001756540     0.000001032570
      27        0.000000724646     0.000000230921     0.000000397361

  **** Optimization is complete! (in 10 steps) ****
    Final optimized geometry and variables:
    Molecular point group: c1

    Geometry (in Angstrom), charge = 0, multiplicity = 1:

    H            2.563491294109     1.502980929142    -1.102185012785
    O            3.206284545561     0.938076595925    -1.502520182673
    C            3.106009834382    -0.357198406268    -0.968854504703
    C            1.947092484246    -1.178781160502    -1.526279094504
    H            4.032567893816    -0.850090687552    -1.234218739107
    H            3.065407841144    -0.324705120605     0.118537399199
    C            0.511301727822    -0.872356546497    -1.032264559862
    H            1.984886972764    -1.150593597470    -2.611160318272
    H            2.156542771281    -2.217104710612    -1.273896867698
    C            0.226990999558     0.552306837821    -0.539636248899
    H            0.284659908721    -1.556082544954    -0.219697481183
    H           -0.188481262719    -1.113990151770    -1.827436371452
    C           -1.222047838865     0.780434199790    -0.089305769055
    H            0.889542354170     0.799028778363     0.288328333317
    H            0.440092942848     1.257011365085    -1.340483593007
    C           -1.637008261886     0.021091994942     1.174025241636
    H           -1.359671698215     1.845166970548     0.087361382628
    H           -1.894475621194     0.520586066589    -0.904893825081
    C           -3.050626575819     0.374935109907     1.641209921977
    H           -0.930599409029     0.240617981416     1.973649009297
    H           -1.582242261718    -1.050875893599     1.003683708354
    C           -3.471518784557    -0.383892554728     2.899217761386
    H           -3.111114528220     1.444900329376     1.828290019589
    H           -3.756821238658     0.165322084371     0.840559556137
    H           -2.803209565344    -0.169540348183     3.728494710013
    H           -4.476476908391    -0.110721208584     3.205744142517
    H           -3.456951974333    -1.457424274904     2.733228038532

  Mulliken Charges: (a.u.)
   Center  Symbol    Alpha    Beta     Spin     Total
       1     H     0.27576  0.27576  0.00000  0.44847
       2     O     4.37517  4.37517  0.00000 -0.75034
       3     C     2.99818  2.99818  0.00000  0.00365
       4     C     3.16713  3.16713  0.00000 -0.33425
       5     H     0.41475  0.41475  0.00000  0.17051
       6     H     0.43093  0.43093  0.00000  0.13814
       7     C     3.15616  3.15616  0.00000 -0.31233
       8     H     0.41272  0.41272  0.00000  0.17457
       9     H     0.42285  0.42285  0.00000  0.15430
      10     C     3.16977  3.16977  0.00000 -0.33954
      11     H     0.41982  0.41982  0.00000  0.16037
      12     H     0.41828  0.41828  0.00000  0.16345
      13     C     3.15192  3.15192  0.00000 -0.30384
      14     H     0.42644  0.42644  0.00000  0.14712
      15     H     0.41934  0.41934  0.00000  0.16132
      16     C     3.15334  3.15334  0.00000 -0.30668
      17     H     0.42112  0.42112  0.00000  0.15775
      18     H     0.42179  0.42179  0.00000  0.15643
      19     C     3.15141  3.15141  0.00000 -0.30281
      20     H     0.42483  0.42483  0.00000  0.15035
      21     H     0.42122  0.42122  0.00000  0.15757
      22     C     3.23931  3.23931  0.00000 -0.47863
      23     H     0.42288  0.42288  0.00000  0.15424
      24     H     0.42253  0.42253  0.00000  0.15494
      25     H     0.42176  0.42176  0.00000  0.15648
      26     H     0.41887  0.41887  0.00000  0.16227
      27     H     0.42175  0.42175  0.00000  0.15651

   Total alpha = 37.00000, Total beta = 37.00000, Total charge = -0.00000
