  ==> Input File <==

--------------------------------------------------------------------------
set {
	reference rhf
	basis 6-31G*
}

set_num_threads( 4 )
memory 2 gb

molecule MOL {
0 1

H	 -3.970302	 -0.412738	 0.842894
C	 -2.918541	 -0.264499	 0.673757
C	 -2.423856	 1.015923	 0.476386
C	 -2.062177	 -1.354075	 0.653821
H	 -3.089089	 1.860070	 0.492091
C	 -1.071382	 1.205734	 0.258969
H	 -2.447461	 -2.345889	 0.807012
C	 -0.707966	 -1.166467	 0.436362
H	 -0.670984	 2.189323	 0.104355
C	 -0.209056	 0.115558	 0.238214
H	 -0.041648	 -2.006751	 0.420120
C	 1.239129	 0.373821	 0.000060
O	 1.970282	 -0.730723	 0.000018
O	 1.702185	 1.457476	 -0.173520
C	 3.377318	 -0.566646	 -0.000065
H	 3.695437	 -0.028981	 -0.881264
H	 3.789299	 -1.563704	 0.000236
H	 3.695516	 -0.028316	 0.880770

	symmetry c1
}
set optking {
	frozen_dihedral = ("
		10 12 13 15
	")
}

ee = optimize('scf')
oeprop('DIPOLE', 'QUADRUPOLE', 'MULLIKEN_CHARGES')
f=open( 'psi4out.xyz', 'w' )
f.write( "18  " )
f.write( str(ee) + "\n" )
f.write( MOL.save_string_xyz() )
f.close()
--------------------------------------------------------------------------

    Molecular point group: c1
  Charge       = 0
  Multiplicity = 1
  Basis Set: 6-31G*
  Basis Set:
  @DF-RHF Final Energy:  -457.35004636023723
    Total Energy =                       -457.3500463602367745
    Molecular point group: c1
  Basis Set: 6-31G*
  Basis Set:
  Basis Set: 6-31G*
  Basis Set:
  @DF-RHF Final Energy:  -457.34893590164097
    Total Energy =                       -457.3489359016408571
  Basis Set: 6-31G*
  Basis Set:
  Basis Set: 6-31G*
  Basis Set:
  @DF-RHF Final Energy:  -457.35011286699796
    Total Energy =                       -457.3501128669977334
  Basis Set: 6-31G*
  Basis Set:
  Basis Set: 6-31G*
  Basis Set:
  @DF-RHF Final Energy:  -457.35011761248637
    Total Energy =                       -457.3501176124868834
  Basis Set: 6-31G*
  Basis Set:
  Charge       = 0
  Multiplicity = 1
  Basis Set: 6-31G*
  Basis Set:

    Orbital Energies (a.u.)
    -----------------------

    Doubly Occupied:

       1A    -20.607092     2A    -20.544648     3A    -11.377947
       4A    -11.283133     5A    -11.245640     6A    -11.245367
       7A    -11.244216     8A    -11.241789     9A    -11.237537
      10A    -11.236781    11A     -1.472461    12A     -1.363919
      13A     -1.165344    14A     -1.048022    15A     -1.024880
      16A     -0.978051    17A     -0.860392    18A     -0.834406
      19A     -0.777735    20A     -0.739860    21A     -0.683326
      22A     -0.677178    23A     -0.671803    24A     -0.631179
      25A     -0.624018    26A     -0.597892    27A     -0.585327
      28A     -0.561034    29A     -0.529350    30A     -0.516633
      31A     -0.503371    32A     -0.498997    33A     -0.459129
      34A     -0.444312    35A     -0.344932    36A     -0.341053

  @DF-RHF Final Energy:  -457.35011791923489

   => Energetics <=

    Nuclear Repulsion Energy =            493.0398837931658136
    One-Electron Energy =               -1600.3824915600930581
    Two-Electron Energy =                 649.9924898476923545
    DFT Exchange-Correlation Energy =       0.0000000000000000
    Empirical Dispersion Energy =           0.0000000000000000
    PCM Polarization Energy =               0.0000000000000000
    EFP Energy =                            0.0000000000000000
    Total Energy =                       -457.3501179192350037
    Molecular point group: c1
  Basis Set: 6-31G*
  Basis Set:

  -Total Gradient:
     Atom            X                  Y                   Z
    ------   -----------------  -----------------  -----------------
       1        0.000000189655     0.000000041961     0.000001847553
       2       -0.000003302597     0.000010682128    -0.000006703364
       3       -0.000008491427    -0.000008106895     0.000004607783
       4        0.000009188062    -0.000003376085     0.000001491753
       5        0.000001042623     0.000000806844     0.000002753519
       6        0.000013168510    -0.000002763801    -0.000011188663
       7       -0.000000017618     0.000000413001     0.000000347701
       8       -0.000003479895    -0.000003890800    -0.000011196999
       9       -0.000000279159     0.000000873250     0.000002202369
      10        0.000352596600     0.000209665363     0.002392902359
      11        0.000003061783    -0.000000647117     0.000002964475
      12       -0.000488751613    -0.000314375042    -0.002172511026
      13        0.000137531898     0.000144114239    -0.002816017221
      14       -0.000007541363    -0.000002571148    -0.000000987355
      15       -0.000005584290    -0.000029275482     0.002619248423
      16        0.000005408354     0.000004695553    -0.000002843123
      17        0.000003709225    -0.000002410702    -0.000000079384
      18       -0.000008448749    -0.000003875266    -0.000006838798

  **** Optimization is complete! (in 5 steps) ****
    Final optimized geometry and variables:
    Molecular point group: c1

    Geometry (in Angstrom), charge = 0, multiplicity = 1:

    H           -3.987509551493    -0.425380748745     0.603768387393
    C           -2.936223532526    -0.277012879152     0.432053517486
    C           -2.441820928374     1.003782086994     0.235822596900
    C           -2.080209010677    -1.366708822382     0.407866754233
    H           -3.106874236186     1.848045877578     0.254821315709
    C           -1.089996833279     1.193793001932     0.015246266381
    H           -2.465334980771    -2.358698784066     0.560186231010
    C           -0.726460324285    -1.178822092954     0.187524275578
    H           -0.689856217797     2.177667542177    -0.138065397542
    C           -0.227684563286     0.103560844063    -0.008572807250
    H           -0.060393832935    -2.019206004226     0.168412624275
    C            1.221319906253     0.362689336855    -0.241398122051
    O            1.952107123500    -0.742556255280    -0.252735174964
    O            1.689032722975     1.449671244184    -0.377165880018
    C            3.359193296484    -0.579149688835    -0.248677138029
    H            3.687211068957    -0.076893642646    -1.146758710934
    H            3.770449937988    -1.575515045013    -0.204970371501
    H            3.668781791207    -0.006776800636     0.613869733689

  Mulliken Charges: (a.u.)
   Center  Symbol    Alpha    Beta     Spin     Total
       1     H     0.39537  0.39537  0.00000  0.20926
       2     C     3.08997  3.08997  0.00000 -0.17994
       3     C     3.10712  3.10712  0.00000 -0.21424
       4     C     3.10716  3.10716  0.00000 -0.21431
       5     H     0.39535  0.39535  0.00000  0.20930
       6     C     3.08638  3.08638  0.00000 -0.17276
       7     H     0.39624  0.39624  0.00000  0.20751
       8     C     3.08719  3.08719  0.00000 -0.17438
       9     H     0.37596  0.37596  0.00000  0.24807
      10     C     3.07725  3.07725  0.00000 -0.15449
      11     H     0.38048  0.38048  0.00000  0.23905
      12     C     2.57977  2.57977  0.00000  0.84047
      13     O     4.31505  4.31505  0.00000 -0.63009
      14     O     4.29117  4.29117  0.00000 -0.58235
      15     C     3.09260  3.09260  0.00000 -0.18520
      16     H     0.40633  0.40633  0.00000  0.18734
      17     H     0.40795  0.40795  0.00000  0.18410
      18     H     0.40867  0.40867  0.00000  0.18266

   Total alpha = 36.00000, Total beta = 36.00000, Total charge =  0.00000
