  ==> Input File <==

--------------------------------------------------------------------------
set {
	reference rhf
	basis 6-31G*
}

set_num_threads( 4 )
memory 2 gb

molecule MOL {
0 1

H	 2.559087	 -0.920909	 1.101117
N	 1.577084	 -0.729992	 1.125253
C	 0.830282	 -1.839973	 0.562277
C	 1.284363	 0.511940	 0.433422
H	 1.065142	 -2.740700	 1.119323
H	 1.075360	 -2.018885	 -0.487279
C	 -0.658279	 -1.545800	 0.672172
H	 1.848059	 1.314417	 0.897154
H	 1.556943	 0.475476	 -0.623939
C	 -0.204480	 0.804657	 0.543397
H	 -0.938988	 -1.515597	 1.729238
H	 -1.222069	 -2.345546	 0.203031
N	 -0.975995	 -0.298722	 0.000000
H	 -0.440550	 1.702330	 -0.018741
H	 -0.454785	 0.992332	 1.591836
C	 -2.393863	 -0.024976	 0.000000
H	 -2.854032	 -0.467193	 -0.876721
H	 -2.854032	 -0.467193	 0.876721
H	 -2.623281	 1.044943	 0.000000

	symmetry c1
}
set optking {
	frozen_dihedral = ("
		7 13 16 19
	")
}

ee = optimize('scf')
oeprop('DIPOLE', 'QUADRUPOLE', 'MULLIKEN_CHARGES')
f=open( 'psi4out.xyz', 'w' )
f.write( "19  " )
f.write( str(ee) + "\n" )
f.write( MOL.save_string_xyz() )
f.close()
--------------------------------------------------------------------------

    Molecular point group: c1
  Charge       = 0
  Multiplicity = 1
  Basis Set: 6-31G*
  Basis Set:
  @DF-RHF Final Energy:  -305.19507782591461
    Total Energy =                       -305.1950778259147796
    Molecular point group: c1
  Basis Set: 6-31G*
  Basis Set:
  Basis Set: 6-31G*
  Basis Set:
  @DF-RHF Final Energy:  -305.19582603289052
    Total Energy =                       -305.1958260328900678
  Basis Set: 6-31G*
  Basis Set:
  Basis Set: 6-31G*
  Basis Set:
  @DF-RHF Final Energy:  -305.19594066816404
    Total Energy =                       -305.1959406681640985
  Basis Set: 6-31G*
  Basis Set:
  Basis Set: 6-31G*
  Basis Set:
  @DF-RHF Final Energy:  -305.19594313060844
    Total Energy =                       -305.1959431306084980
  Basis Set: 6-31G*
  Basis Set:
  Charge       = 0
  Multiplicity = 1
  Basis Set: 6-31G*
  Basis Set:

    Orbital Energies (a.u.)
    -----------------------

    Doubly Occupied:

       1A    -15.540212     2A    -15.536190     3A    -11.238134
       4A    -11.238089     5A    -11.237152     6A    -11.236910
       7A    -11.234839     8A     -1.245801     9A     -1.184375
      10A     -1.022296    11A     -0.963997    12A     -0.859977
      13A     -0.857776    14A     -0.757700    15A     -0.690758
      16A     -0.631303    17A     -0.624619    18A     -0.606939
      19A     -0.603287    20A     -0.579317    21A     -0.543445
      22A     -0.533031    23A     -0.511489    24A     -0.488919
      25A     -0.464842    26A     -0.456127    27A     -0.362849
      28A     -0.344595

  @DF-RHF Final Energy:  -305.19594363121081

   => Energetics <=

    Nuclear Repulsion Energy =            339.6333332466262505
    One-Electron Energy =               -1086.4686135082736200
    Two-Electron Energy =                 441.6393366304366168
    DFT Exchange-Correlation Energy =       0.0000000000000000
    Empirical Dispersion Energy =           0.0000000000000000
    PCM Polarization Energy =               0.0000000000000000
    EFP Energy =                            0.0000000000000000
    Total Energy =                       -305.1959436312106959
    Molecular point group: c1
  Basis Set: 6-31G*
  Basis Set:

  -Total Gradient:
     Atom            X                  Y                   Z
    ------   -----------------  -----------------  -----------------
       1       -0.000001613415     0.000011497892    -0.000001646392
       2       -0.000007564683     0.000001349727    -0.000000235495
       3        0.000005743515    -0.000002510061     0.000013231141
       4        0.000027989104     0.000010938128    -0.000008584415
       5        0.000002486474    -0.000001173129     0.000000316704
       6       -0.000003989331     0.000000157819     0.000002401022
       7        0.000311632383     0.001909694945     0.003259017569
       8        0.000006225622     0.000000243001     0.000001740977
       9        0.000000149264    -0.000000055988    -0.000001056687
      10       -0.000014332351    -0.000043159891    -0.000015186553
      11        0.000000314867    -0.000002039235     0.000003373793
      12       -0.000006388097     0.000002358140     0.000000771545
      13       -0.000467455038    -0.002575762282    -0.003171493418
      14        0.000006403373    -0.000004632693     0.000002891370
      15       -0.000005330479     0.000003648816     0.000005937934
      16        0.000169390053     0.000676295131    -0.005171611707
      17        0.000007063281    -0.000000957955     0.000011013368
      18       -0.000006766796    -0.000005166520     0.000001330136
      19       -0.000023957745     0.000019274152     0.005067789110

  **** Optimization is complete! (in 5 steps) ****
    Final optimized geometry and variables:
    Molecular point group: c1

    Geometry (in Angstrom), charge = 0, multiplicity = 1:

    H            2.650864121991    -0.476266598400     0.612819843997
    N            1.668877754622    -0.286472741481     0.644816480971
    C            0.918313031205    -1.394330162729     0.083072174603
    C            1.369848295627     0.958118369988    -0.039210394357
    H            1.150717893277    -2.295643006796     0.640434131578
    H            1.160921504914    -1.574975907134    -0.966674234028
    C           -0.568423346712    -1.094213297869     0.195691272903
    H            1.933829706441     1.759698699499     0.426015320358
    H            1.637435926832     0.927747663393    -1.098050098588
    C           -0.118992115153     1.249239817100     0.076259389651
    H           -0.846684594969    -1.053658187156     1.252559667218
    H           -1.136082061521    -1.897318977945    -0.264168897364
    N           -0.889653203582     0.149624205936    -0.482563187913
    H           -0.350795335846     2.152422647222    -0.477625781085
    H           -0.366109580133     1.427361340735     1.126983759266
    C           -2.318835763969     0.406314264243    -0.488900746124
    H           -2.788873958693    -0.043328794573    -1.357085980142
    H           -2.810831003387     0.013043313071     0.403091738283
    H           -2.511038061838     1.472449838633    -0.491770780602

  Mulliken Charges: (a.u.)
   Center  Symbol    Alpha    Beta     Spin     Total
       1     H     0.32959  0.32959  0.00000  0.34081
       2     N     3.85431  3.85431  0.00000 -0.70861
       3     C     3.06288  3.06288  0.00000 -0.12576
       4     C     3.06325  3.06325  0.00000 -0.12651
       5     H     0.41778  0.41778  0.00000  0.16444
       6     H     0.42759  0.42759  0.00000  0.14482
       7     C     3.05736  3.05736  0.00000 -0.11473
       8     H     0.41782  0.41782  0.00000  0.16435
       9     H     0.42759  0.42759  0.00000  0.14482
      10     C     3.05700  3.05700  0.00000 -0.11400
      11     H     0.42728  0.42728  0.00000  0.14544
      12     H     0.41814  0.41814  0.00000  0.16371
      13     N     3.78823  3.78823  0.00000 -0.57646
      14     H     0.41815  0.41815  0.00000  0.16370
      15     H     0.42819  0.42819  0.00000  0.14361
      16     C     3.14008  3.14008  0.00000 -0.28016
      17     H     0.41529  0.41529  0.00000  0.16943
      18     H     0.42996  0.42996  0.00000  0.14007
      19     H     0.41949  0.41949  0.00000  0.16102

   Total alpha = 28.00000, Total beta = 28.00000, Total charge = -0.00000
