                              Psi4 1.0.54 Driver

  ==> Input File <==

--------------------------------------------------------------------------
set {
	reference rhf
	basis cc-pvtz
}

set_num_threads( 4 )
memory 2 gb

molecule MOL {
0 1

O	 -2.716381	 0.196536	 0.616053
C	 -2.072075	 -0.702867	 0.183186
C	 -0.881910	 -0.448129	 -0.720509
C	 -2.389624	 -2.139749	 0.522745
C	 0.376695	 -0.140025	 0.100361
H	 -1.122849	 0.400351	 -1.348316
H	 -0.704376	 -1.306376	 -1.359852
C	 1.630207	 -0.772146	 -0.501001
H	 0.486632	 0.935267	 0.162725
H	 0.248225	 -0.501310	 1.117842
C	 2.907848	 -0.545876	 0.309149
H	 1.772784	 -0.391628	 -1.509394
H	 1.468529	 -1.842059	 -0.599744
C	 3.373802	 0.906639	 0.372125
H	 3.699140	 -1.146831	 -0.127906
H	 2.764321	 -0.923458	 1.318191
H	 3.519798	 1.311927	 -0.623875
H	 4.316899	 0.983758	 0.900700
H	 2.661122	 1.540651	 0.885346
H	 -2.738969	 -2.648479	 -0.370088
H	 -3.153689	 -2.182094	 1.283653
H	 -1.499604	 -2.659291	 0.859687

	symmetry c1
}
set optking {
	frozen_dihedral = ("
		6 3 5 8
	")
}

ee,wfn = optimize('scf', return_wfn=True)
oeprop( wfn, 'DIPOLE', 'QUADRUPOLE', 'MULLIKEN_CHARGES')
f=open( 'psi4out.xyz', 'w' )
f.write( "22  " )
f.write( str(ee) + "\n" )
f.write( MOL.save_string_xyz() )
f.close()
--------------------------------------------------------------------------

    Molecular point group: c1
  Charge       = 0
  Multiplicity = 1
  Basis Set: CC-PVTZ
  Basis Set:
  @DF-RHF Final Energy:  -348.21919258863386
    Total Energy =                       -348.2191925886333479
    Molecular point group: c1
  Basis Set: CC-PVTZ
  Basis Set:
  Basis Set: CC-PVTZ
  Basis Set:
  @DF-RHF Final Energy:  -348.21936525315294
    Total Energy =                       -348.2193652531530574
  Basis Set: CC-PVTZ
  Basis Set:
  Basis Set: CC-PVTZ
  Basis Set:
  @DF-RHF Final Energy:  -348.21957987137364
    Total Energy =                       -348.2195798713737531
  Basis Set: CC-PVTZ
  Basis Set:
  Basis Set: CC-PVTZ
  Basis Set:
  @DF-RHF Final Energy:  -348.21964045960613
    Total Energy =                       -348.2196404596058414
  Basis Set: CC-PVTZ
  Basis Set:
  @DF-RHF Final Energy:  -348.21964547221813
    Total Energy =                       -348.2196454722184171
  @DF-RHF Final Energy:  -348.21966177851380
    Total Energy =                       -348.2196617785140234
  Basis Set: CC-PVTZ
  Basis Set:
  @DF-RHF Final Energy:  -348.21966669117359
    Total Energy =                       -348.2196666911733587
  Basis Set: CC-PVTZ
  Basis Set:
  Basis Set: CC-PVTZ
  Basis Set:
  @DF-RHF Final Energy:  -348.21966933405707
    Total Energy =                       -348.2196693340568459
  Basis Set: CC-PVTZ
  Basis Set:
  Basis Set: CC-PVTZ
  Basis Set:
  @DF-RHF Final Energy:  -348.21967058230223
    Total Energy =                       -348.2196705823025695
  Basis Set: CC-PVTZ
  Basis Set:
  Charge       = 0
  Multiplicity = 1
  Basis Set: CC-PVTZ
  Basis Set:

    Orbital Energies (a.u.)
    -----------------------

    Doubly Occupied:

       1A    -20.536121     2A    -11.318781     3A    -11.229646
       4A    -11.227448     5A    -11.226697     6A    -11.222900
       7A    -11.220611     8A    -11.211393     9A     -1.396277
      10A     -1.097910    11A     -1.046321    12A     -0.998917
      13A     -0.941002    14A     -0.860806    15A     -0.789666
      16A     -0.734247    17A     -0.660921    18A     -0.649678
      19A     -0.628102    20A     -0.623584    21A     -0.597879
      22A     -0.575825    23A     -0.572912    24A     -0.545887
      25A     -0.537203    26A     -0.515321    27A     -0.503023
      28A     -0.494407    29A     -0.472694    30A     -0.466898
      31A     -0.459784    32A     -0.397988

  @DF-RHF Final Energy:  -348.21967073458325

   => Energetics <=

    Nuclear Repulsion Energy =            374.0777221218868362
    One-Electron Energy =               -1213.0730878043841585
    Two-Electron Energy =                 490.7756949479136210
    DFT Exchange-Correlation Energy =       0.0000000000000000
    Empirical Dispersion Energy =           0.0000000000000000
    PCM Polarization Energy =               0.0000000000000000
    EFP Energy =                            0.0000000000000000
    Total Energy =                       -348.2196707345837012
    Molecular point group: c1
  Basis Set: CC-PVTZ
  Basis Set:

  -Total Gradient:
     Atom            X                  Y                   Z
    ------   -----------------  -----------------  -----------------
       1        0.000007428502    -0.000004414560     0.000004436317
       2       -0.000008407154     0.000019337530     0.000002105117
       3        0.002456024384    -0.002486574602    -0.002962274176
       4       -0.000009252444    -0.000012086952    -0.000007933231
       5        0.000084219015     0.003497899646    -0.001200936337
       6       -0.002104040393     0.001287029824     0.002808081885
       7       -0.000001696489    -0.000001666868    -0.000001891098
       8       -0.000426712257    -0.002298956242     0.001352456068
       9       -0.000004565681    -0.000001174450     0.000003993066
      10        0.000002668432    -0.000000658902    -0.000001074576
      11       -0.000002025840     0.000001297395     0.000000229109
      12        0.000000369131     0.000000741059    -0.000001600856
      13        0.000000276243    -0.000000039085    -0.000001658323
      14        0.000000182046    -0.000001658217    -0.000000653585
      15       -0.000001556633     0.000000449189     0.000001017646
      16       -0.000000032245     0.000001168064     0.000000587830
      17       -0.000000614027    -0.000000142760     0.000000125315
      18        0.000000880106     0.000000288944    -0.000000036599
      19        0.000000527756    -0.000000397081     0.000000494218
      20        0.000006433196    -0.000004521200     0.000001410005
      21       -0.000001990984     0.000000678008    -0.000002685122
      22        0.000001885332     0.000003401255     0.000005807328

  **** Optimization is complete! (in 10 steps) ****
    Final optimized geometry and variables:
    Molecular point group: c1

    Geometry (in Angstrom), charge = 0, multiplicity = 1:

    O           -2.837732022347     0.641567774217     0.405994236377
    C           -2.117014928230    -0.237725724911     0.061511097152
    C           -0.926207203697     0.023676709593    -0.838283788702
    C           -2.339989301896    -1.663392492080     0.510930687720
    C            0.347946216067     0.278437048620    -0.001174621203
    H           -1.172177063627     0.898542317137    -1.423480385550
    H           -0.778267443008    -0.819201922697    -1.503424248835
    C            1.603566082335    -0.326291747746    -0.627316075886
    H            0.458487776762     1.344151004007     0.143671814655
    H            0.228452693484    -0.146369253210     0.992027734696
    C            2.886689766708    -0.102011050717     0.173933848647
    H            1.734205854872     0.069998494938    -1.631933237901
    H            1.447799652171    -1.395326590567    -0.741820536776
    C            3.353591365487     1.350262563618     0.236673157404
    H            3.674959675122    -0.701855507722    -0.269990290414
    H            2.750222655009    -0.481660914670     1.183207447786
    H            3.495851339115     1.756395340393    -0.759565129080
    H            4.298932865615     1.426334306819     0.761229234475
    H            2.643852612854     1.984125111132     0.754141465185
    H           -2.694930925870    -2.245030849547    -0.334039534310
    H           -3.076693341977    -1.693505634188     1.298986589664
    H           -1.415134544183    -2.117286874743     0.847204901048

  Mulliken Charges: (a.u.)
   Center  Symbol    Alpha    Beta     Spin     Total
       1     O     4.17755  4.17755  0.00000 -0.35510
       2     C     2.85674  2.85674  0.00000  0.28653
       3     C     3.09948  3.09948  0.00000 -0.19895
       4     C     3.15666  3.15666  0.00000 -0.31331
       5     C     3.10665  3.10665  0.00000 -0.21331
       6     H     0.43775  0.43775  0.00000  0.12449
       7     H     0.44855  0.44855  0.00000  0.10289
       8     C     3.09785  3.09785  0.00000 -0.19570
       9     H     0.43720  0.43720  0.00000  0.12559
      10     H     0.44988  0.44988  0.00000  0.10024
      11     C     3.09114  3.09114  0.00000 -0.18229
      12     H     0.45083  0.45083  0.00000  0.09834
      13     H     0.44933  0.44933  0.00000  0.10134
      14     C     3.15172  3.15172  0.00000 -0.30343
      15     H     0.44752  0.44752  0.00000  0.10495
      16     H     0.45410  0.45410  0.00000  0.09181
      17     H     0.45427  0.45427  0.00000  0.09146
      18     H     0.44570  0.44570  0.00000  0.10861
      19     H     0.45267  0.45267  0.00000  0.09466
      20     H     0.44755  0.44755  0.00000  0.10490
      21     H     0.43579  0.43579  0.00000  0.12842
      22     H     0.45107  0.45107  0.00000  0.09787

   Total alpha = 32.00000, Total beta = 32.00000, Total charge = -0.00000

*** Psi4 exiting successfully. Buy a developer a beer!
