                              Psi4 1.0.54 Driver

  ==> Input File <==

--------------------------------------------------------------------------
set {
	reference rhf
	basis cc-pvtz
}

set_num_threads( 4 )
memory 2 gb

molecule MOL {
0 1

O	 1.847685	 1.294399	 -0.000190
C	 1.704209	 0.119472	 -0.000093
C	 0.380337	 -0.600947	 -0.000234
O	 2.715427	 -0.733672	 0.000025
C	 -0.824290	 0.329213	 -0.000115
H	 0.371455	 -1.255476	 -0.865660
H	 0.371410	 -1.255787	 0.864952
C	 -2.146151	 -0.432825	 -0.000068
H	 -0.773936	 0.979158	 -0.866319
H	 -0.773838	 0.979034	 0.866186
C	 -3.366283	 0.483552	 0.000557
H	 -2.189286	 -1.084450	 -0.869996
H	 -2.188867	 -1.085083	 0.869399
C	 -4.541055	 -0.083640	 0.790250
H	 -3.676012	 0.667762	 -1.024280
H	 -3.088017	 1.449695	 0.412013
H	 -4.865308	 -1.034818	 0.381161
H	 -5.389379	 0.590659	 0.770201
H	 -4.272792	 -0.246335	 1.828903
C	 4.020999	 -0.192556	 0.000019
H	 4.182809	 0.412891	 -0.879449
H	 4.692590	 -1.035653	 0.000152
H	 4.182726	 0.413087	 0.879368

	symmetry c1
}
set optking {
	frozen_dihedral = ("
		15 11 8 12
	")
}

ee,wfn = optimize('scf', return_wfn=True)
oeprop( wfn, 'DIPOLE', 'QUADRUPOLE', 'MULLIKEN_CHARGES')
f=open( 'psi4out.xyz', 'w' )
f.write( "23  " )
f.write( str(ee) + "\n" )
f.write( MOL.save_string_xyz() )
f.close()
--------------------------------------------------------------------------

    Molecular point group: c1
  Charge       = 0
  Multiplicity = 1
  Basis Set: CC-PVTZ
  Basis Set:
  @DF-RHF Final Energy:  -423.12756987678432
    Total Energy =                       -423.1275698767842641
    Molecular point group: c1
  Basis Set: CC-PVTZ
  Basis Set:
  Basis Set: CC-PVTZ
  Basis Set:
  @DF-RHF Final Energy:  -423.12782432962467
    Total Energy =                       -423.1278243296247865
  Basis Set: CC-PVTZ
  Basis Set:
  Basis Set: CC-PVTZ
  Basis Set:
  @DF-RHF Final Energy:  -423.12791089755268
    Total Energy =                       -423.1279108975529653
  Basis Set: CC-PVTZ
  Basis Set:
  Basis Set: CC-PVTZ
  Basis Set:
  @DF-RHF Final Energy:  -423.12752189093590
    Total Energy =                       -423.1275218909354408
  Basis Set: CC-PVTZ
  Basis Set:
  Basis Set: CC-PVTZ
  Basis Set:
  @DF-RHF Final Energy:  -423.12792551087176
    Total Energy =                       -423.1279255108719326
  Basis Set: CC-PVTZ
  Basis Set:
  Charge       = 0
  Multiplicity = 1
  Basis Set: CC-PVTZ
  Basis Set:

    Orbital Energies (a.u.)
    -----------------------

    Doubly Occupied:

       1A    -20.596260     2A    -20.534066     3A    -11.364515
       4A    -11.278442     5A    -11.233546     6A    -11.217191
       7A    -11.215779     8A    -11.214468     9A    -11.207634
      10A     -1.472117    11A     -1.365729    12A     -1.093636
      13A     -1.043877    14A     -0.987928    15A     -0.932351
      16A     -0.843966    17A     -0.795242    18A     -0.769308
      19A     -0.699020    20A     -0.686735    21A     -0.675518
      22A     -0.650456    23A     -0.611732    24A     -0.600532
      25A     -0.574781    26A     -0.566142    27A     -0.550314
      28A     -0.525689    29A     -0.523329    30A     -0.505353
      31A     -0.488801    32A     -0.469073    33A     -0.465060
      34A     -0.461830    35A     -0.458374    36A     -0.437995

  @DF-RHF Final Energy:  -423.12792590385567

   => Energetics <=

    Nuclear Repulsion Energy =            453.0540747008219000
    One-Electron Energy =               -1474.1304226804895734
    Two-Electron Energy =                 597.9484220758120046
    DFT Exchange-Correlation Energy =       0.0000000000000000
    Empirical Dispersion Energy =           0.0000000000000000
    PCM Polarization Energy =               0.0000000000000000
    EFP Energy =                            0.0000000000000000
    Total Energy =                       -423.1279259038556120
    Molecular point group: c1
  Basis Set: CC-PVTZ
  Basis Set:

  -Total Gradient:
     Atom            X                  Y                   Z
    ------   -----------------  -----------------  -----------------
       1       -0.000069428519     0.000056209559     0.000003644421
       2        0.000026739638     0.000002425654    -0.000017273316
       3        0.000040423020    -0.000009202552    -0.000007832567
       4        0.000003108642    -0.000088970340     0.000000893273
       5       -0.000019261298     0.000001435321     0.000052389744
       6        0.000010404406     0.000002892819    -0.000000130670
       7        0.000004899001     0.000006635926    -0.000000574759
       8       -0.003370199194    -0.004316814370     0.002798321627
       9       -0.000004074098     0.000008042192    -0.000001405629
      10        0.000014103278     0.000001895799     0.000000088541
      11        0.003715171873     0.004875971452    -0.000711102894
      12        0.002250243588     0.002862360037    -0.002255858330
      13       -0.000003758898     0.000017625960     0.000000477156
      14        0.000014628773     0.000008382888     0.000012013538
      15       -0.002597040124    -0.003417729559     0.000126188520
      16       -0.000000090902    -0.000018976165    -0.000003386932
      17        0.000001553275     0.000012717122     0.000006310167
      18        0.000007655488    -0.000009917001     0.000006934676
      19       -0.000013107841    -0.000006343937    -0.000011460735
      20       -0.000010059622     0.000030274137     0.000003200757
      21        0.000006224742    -0.000004674766     0.000003868264
      22       -0.000015094831    -0.000009744905    -0.000000316972
      23        0.000006959599    -0.000004495266    -0.000004987885

  **** Optimization is complete! (in 6 steps) ****
    Final optimized geometry and variables:
    Molecular point group: c1

    Geometry (in Angstrom), charge = 0, multiplicity = 1:

    O            1.836985364176     1.270069110020    -0.082982949824
    C            1.692877153169     0.095242735170    -0.093524620415
    C            0.368745338171    -0.624435936631    -0.081222622900
    O            2.703439799123    -0.758475236692    -0.118171097111
    C           -0.835135840089     0.305949603685    -0.052958485726
    H            0.346824847329    -1.270165907406    -0.952994069631
    H            0.372391854219    -1.288216548253     0.777312170733
    C           -2.159598162605    -0.455580723262    -0.031415230231
    H           -0.801935580672     0.960765700168    -0.916805891097
    H           -0.768382299465     0.951480546648     0.815313914836
    C           -3.380847243714     0.473227157194    -0.074835167652
    H           -2.181608654193    -1.116202960228    -0.893757900278
    H           -2.199477126701    -1.082443189683     0.854632981702
    C           -4.595022739935    -0.105637275010     0.648067064058
    H           -3.660712165405     0.647790795261    -1.108723642613
    H           -3.131564228522     1.435973172568     0.358203731609
    H           -4.873583599548    -1.069166972920     0.233479608402
    H           -5.453520485985     0.550770087178     0.562777119073
    H           -4.390337506378    -0.248944378934     1.703799515901
    C            4.009180169152    -0.218185736153    -0.132134535952
    H            4.158211467712     0.396769966153    -1.007263760382
    H            4.680007739390    -1.061693097206    -0.151510487053
    H            4.184938462350     0.377632087913     0.751235574209

  Mulliken Charges: (a.u.)
   Center  Symbol    Alpha    Beta     Spin     Total
       1     O     4.19696  4.19696  0.00000 -0.39392
       2     C     2.80639  2.80639  0.00000  0.38723
       3     C     3.10253  3.10253  0.00000 -0.20506
       4     O     4.14650  4.14650  0.00000 -0.29300
       5     C     3.08392  3.08392  0.00000 -0.16783
       6     H     0.44010  0.44010  0.00000  0.11981
       7     H     0.43992  0.43992  0.00000  0.12016
       8     C     3.09151  3.09151  0.00000 -0.18302
       9     H     0.44557  0.44557  0.00000  0.10886
      10     H     0.44674  0.44674  0.00000  0.10653
      11     C     3.08569  3.08569  0.00000 -0.17139
      12     H     0.45453  0.45453  0.00000  0.09095
      13     H     0.45506  0.45506  0.00000  0.08988
      14     C     3.14888  3.14888  0.00000 -0.29775
      15     H     0.45252  0.45252  0.00000  0.09496
      16     H     0.45192  0.45192  0.00000  0.09616
      17     H     0.45491  0.45491  0.00000  0.09019
      18     H     0.44877  0.44877  0.00000  0.10246
      19     H     0.45581  0.45581  0.00000  0.08838
      20     C     3.03772  3.03772  0.00000 -0.07544
      21     H     0.45437  0.45437  0.00000  0.09126
      22     H     0.44535  0.44535  0.00000  0.10929
      23     H     0.45436  0.45436  0.00000  0.09129

   Total alpha = 36.00000, Total beta = 36.00000, Total charge =  0.00000

*** Psi4 exiting successfully. Buy a developer a beer!
