  ==> Input File <==

--------------------------------------------------------------------------
set {
	reference rhf
	basis 6-31G*
}

set_num_threads( 4 )
memory 2 gb

molecule MOL {
0 1

H	 3.365182	 -1.262353	 -0.655825
O	 2.826016	 -1.159218	 0.122261
C	 2.077727	 -0.067559	 -0.035091
C	 0.624473	 -0.343591	 0.253101
O	 2.542965	 0.974826	 -0.363729
C	 -0.265902	 0.883932	 0.072916
H	 0.324016	 -1.163849	 -0.390541
H	 0.565024	 -0.726111	 1.268924
C	 -1.728698	 0.646073	 0.462102
H	 -0.209144	 1.219470	 -0.958188
H	 0.135059	 1.692851	 0.673903
C	 -2.482460	 -0.343073	 -0.431425
H	 -2.245265	 1.602650	 0.432430
H	 -1.779332	 0.308348	 1.496285
C	 -3.960546	 -0.461025	 -0.060175
H	 -2.395034	 -0.026811	 -1.468912
H	 -2.024850	 -1.327147	 -0.371646
H	 -4.472726	 -1.168004	 -0.705284
H	 -4.465146	 0.496508	 -0.151489
H	 -4.081218	 -0.800940	 0.964585

	symmetry c1
}
set optking {
	frozen_dihedral = ("
		1 2 3 5
	")
}

ee = optimize('scf')
oeprop('DIPOLE', 'QUADRUPOLE', 'MULLIKEN_CHARGES')
f=open( 'psi4out.xyz', 'w' )
f.write( "20  " )
f.write( str(ee) + "\n" )
f.write( MOL.save_string_xyz() )
f.close()
--------------------------------------------------------------------------

    Molecular point group: c1
  Charge       = 0
  Multiplicity = 1
  Basis Set: 6-31G*
  Basis Set:
  @DF-RHF Final Energy:  -383.93590565033008
    Total Energy =                       -383.9359056503302554
    Molecular point group: c1
  Basis Set: 6-31G*
  Basis Set:
  Basis Set: 6-31G*
  Basis Set:
  @DF-RHF Final Energy:  -383.93403284444850
    Total Energy =                       -383.9340328444483816
  Basis Set: 6-31G*
  Basis Set:
  Basis Set: 6-31G*
  Basis Set:
  @DF-RHF Final Energy:  -383.93695650422274
    Total Energy =                       -383.9369565042226213
  Basis Set: 6-31G*
  Basis Set:
  Basis Set: 6-31G*
  Basis Set:
  @DF-RHF Final Energy:  -383.93705635333447
    Total Energy =                       -383.9370563533343557
  Basis Set: 6-31G*
  Basis Set:
  @DF-RHF Final Energy:  -383.93706350187517
    Total Energy =                       -383.9370635018752864
  @DF-RHF Final Energy:  -383.93704809897235
    Total Energy =                       -383.9370480989729231
  @DF-RHF Final Energy:  -383.93697512909250
    Total Energy =                       -383.9369751290927866
  Basis Set: 6-31G*
  Basis Set:
  @DF-RHF Final Energy:  -383.93695580826903
    Total Energy =                       -383.9369558082692038
  Basis Set: 6-31G*
  Basis Set:
  Basis Set: 6-31G*
  Basis Set:
  @DF-RHF Final Energy:  -383.93706048806001
    Total Energy =                       -383.9370604880600695
  Basis Set: 6-31G*
  Basis Set:
  Basis Set: 6-31G*
  Basis Set:
  @DF-RHF Final Energy:  -383.93706268362496
    Total Energy =                       -383.9370626836247880
  Basis Set: 6-31G*
  Basis Set:
  Charge       = 0
  Multiplicity = 1
  Basis Set: 6-31G*
  Basis Set:

    Orbital Energies (a.u.)
    -----------------------

    Doubly Occupied:

       1A    -20.602344     2A    -20.557074     3A    -11.381205
       4A    -11.239631     5A    -11.222621     6A    -11.221019
       7A    -11.220264     8A    -11.212770     9A     -1.465354
      10A     -1.366788    11A     -1.095820    12A     -1.040249
      13A     -0.959838    14A     -0.867180    15A     -0.816230
      16A     -0.777744    17A     -0.703878    18A     -0.683666
      19A     -0.663037    20A     -0.631211    21A     -0.614800
      22A     -0.588203    23A     -0.561317    24A     -0.547624
      25A     -0.546804    26A     -0.510157    27A     -0.498655
      28A     -0.483367    29A     -0.469588    30A     -0.466648
      31A     -0.457568    32A     -0.443045

  @DF-RHF Final Energy:  -383.93706341733508

   => Energetics <=

    Nuclear Repulsion Energy =            375.4591477018562387
    One-Electron Energy =               -1266.9610227083617247
    Two-Electron Energy =                 507.5648115891706880
    DFT Exchange-Correlation Energy =       0.0000000000000000
    Empirical Dispersion Energy =           0.0000000000000000
    PCM Polarization Energy =               0.0000000000000000
    EFP Energy =                            0.0000000000000000
    Total Energy =                       -383.9370634173348549
    Molecular point group: c1
  Basis Set: 6-31G*
  Basis Set:

  -Total Gradient:
     Atom            X                  Y                   Z
    ------   -----------------  -----------------  -----------------
       1       -0.007903816841    -0.007140480407    -0.005373504474
       2        0.009935942680     0.010393846934     0.011690821630
       3       -0.002659330456    -0.006315168272    -0.016989325246
       4        0.000135328176    -0.000039241738     0.000134661865
       5        0.000419118485     0.003081422940     0.010489801502
       6        0.000042904925    -0.000033325550    -0.000020279972
       7       -0.000014131589    -0.000035399695     0.000002938937
       8       -0.000007039314     0.000066500234     0.000018900768
       9        0.000016117924    -0.000009669214    -0.000011911491
      10        0.000014754456     0.000012871803     0.000024063898
      11        0.000006932531     0.000015437658     0.000033028751
      12        0.000015529424    -0.000022657755     0.000013459980
      13        0.000012443896     0.000000930377    -0.000021558457
      14       -0.000014325749     0.000013853940     0.000008264131
      15        0.000002452827    -0.000003384606     0.000011838340
      16       -0.000007575240     0.000006500824     0.000005790815
      17        0.000004473239     0.000003696110    -0.000016542455
      18        0.000002838206     0.000001222535     0.000000154693
      19       -0.000002669598     0.000000486632    -0.000001285709
      20        0.000000052013     0.000002557250     0.000000682495

  **** Optimization is complete! (in 11 steps) ****
    Final optimized geometry and variables:
    Molecular point group: c1

    Geometry (in Angstrom), charge = 0, multiplicity = 1:

    H            3.477816923807    -1.289500728832    -0.494470465186
    O            2.856062675149    -1.136064735729     0.207644702817
    C            2.077684535377    -0.071003795122    -0.078244235762
    C            0.627479777489    -0.344134461921     0.226342345890
    O            2.527853006516     0.967631983294    -0.423733608888
    C           -0.265423451673     0.885293141883     0.078775099902
    H            0.315419131648    -1.156612734208    -0.423099970179
    H            0.585252377895    -0.744277436403     1.236296562574
    C           -1.723778223604     0.641181601878     0.480737714813
    H           -0.220691831057     1.240785303254    -0.946261327736
    H            0.142700221490     1.682877472901     0.690424006142
    C           -2.488716658898    -0.331682684833    -0.421106932050
    H           -2.240237363220     1.598246558361     0.473824968728
    H           -1.762555905031     0.285358615732     1.509293131629
    C           -3.961795757078    -0.457449559454    -0.032882050228
    H           -2.415076633203     0.003966917658    -1.453626227788
    H           -2.030059898793    -1.316478588032    -0.385598854718
    H           -4.482181218583    -1.152724881822    -0.684143805954
    H           -4.467889590426     0.501295491829    -0.099907948969
    H           -4.068843304506    -0.816216696441     0.986924662111

  Mulliken Charges: (a.u.)
   Center  Symbol    Alpha    Beta     Spin     Total
       1     H     0.26643  0.26643  0.00000  0.46713
       2     O     4.36162  4.36162  0.00000 -0.72325
       3     C     2.62803  2.62803  0.00000  0.74393
       4     C     3.21205  3.21205  0.00000 -0.42411
       5     O     4.26092  4.26092  0.00000 -0.52184
       6     C     3.15458  3.15458  0.00000 -0.30917
       7     H     0.40178  0.40178  0.00000  0.19643
       8     H     0.39771  0.39771  0.00000  0.20458
       9     C     3.15537  3.15537  0.00000 -0.31073
      10     H     0.41301  0.41301  0.00000  0.17397
      11     H     0.40806  0.40806  0.00000  0.18389
      12     C     3.15473  3.15473  0.00000 -0.30947
      13     H     0.41791  0.41791  0.00000  0.16418
      14     H     0.42333  0.42333  0.00000  0.15334
      15     C     3.23919  3.23919  0.00000 -0.47839
      16     H     0.42188  0.42188  0.00000  0.15623
      17     H     0.42318  0.42318  0.00000  0.15364
      18     H     0.41853  0.41853  0.00000  0.16293
      19     H     0.42054  0.42054  0.00000  0.15892
      20     H     0.42112  0.42112  0.00000  0.15775

   Total alpha = 32.00000, Total beta = 32.00000, Total charge = -0.00000
