  ==> Input File <==

--------------------------------------------------------------------------
set {
	reference rhf
	basis cc-pvtz
}

set_num_threads( 4 )
memory 2 gb

molecule MOL {
0 1

H	 -3.144994	 -1.202467	 -0.018751
O	 -2.321472	 -0.864941	 -0.318626
C	 -2.021813	 0.336996	 0.342658
C	 -0.669613	 0.837286	 -0.127252
H	 -2.780861	 1.084746	 0.127159
H	 -2.006390	 0.184138	 1.420053
C	 0.490865	 -0.082543	 0.241244
H	 -0.708709	 0.967192	 -1.204587
H	 -0.507562	 1.822272	 0.303070
C	 1.839800	 0.429565	 -0.255472
H	 0.305636	 -1.070211	 -0.165276
H	 0.527397	 -0.195943	 1.322876
C	 2.945011	 0.312284	 0.788818
H	 2.126658	 -0.123514	 -1.145707
H	 1.742605	 1.468247	 -0.561059
H	 3.090401	 -0.720065	 1.088875
H	 3.889459	 0.681720	 0.405623
H	 2.703937	 0.882874	 1.679747

	symmetry c1
}
set optking {
	frozen_dihedral = ("
		14 10 7 11
	")
}

ee = optimize('scf')
oeprop('DIPOLE', 'QUADRUPOLE', 'MULLIKEN_CHARGES')
f=open( 'psi4out.xyz', 'w' )
f.write( "18  " )
f.write( str(ee) + "\n" )
f.write( MOL.save_string_xyz() )
f.close()
--------------------------------------------------------------------------

    Molecular point group: c1
  Charge       = 0
  Multiplicity = 1
  Basis Set: CC-PVTZ
  Basis Set:
  @DF-RHF Final Energy:  -271.28201804601639
    Total Energy =                       -271.2820180460163897
    Molecular point group: c1
  Basis Set: CC-PVTZ
  Basis Set:
  Basis Set: CC-PVTZ
  Basis Set:
  @DF-RHF Final Energy:  -271.28230359111524
    Total Energy =                       -271.2823035911153511
  Basis Set: CC-PVTZ
  Basis Set:
  Basis Set: CC-PVTZ
  Basis Set:
  @DF-RHF Final Energy:  -271.28237236650551
    Total Energy =                       -271.2823723665056832
  Basis Set: CC-PVTZ
  Basis Set:
  Charge       = 0
  Multiplicity = 1
  Basis Set: CC-PVTZ
  Basis Set:

    Orbital Energies (a.u.)
    -----------------------

    Doubly Occupied:

       1A    -20.546330     2A    -11.265738     3A    -11.210639
       4A    -11.208986     5A    -11.204786     6A    -11.203566
       7A     -1.364185     8A     -1.074711     9A     -1.009752
      10A     -0.914005    11A     -0.819421    12A     -0.784377
      13A     -0.708625    14A     -0.639940    15A     -0.624147
      16A     -0.591096    17A     -0.574037    18A     -0.554608
      19A     -0.523186    20A     -0.502640    21A     -0.492809
      22A     -0.467188    23A     -0.455079    24A     -0.448850
      25A     -0.430440

  @DF-RHF Final Energy:  -271.28237321839487

   => Energetics <=

    Nuclear Repulsion Energy =            249.1216984171712170
    One-Electron Energy =                -861.5698562291090639
    Two-Electron Energy =                 341.1657845935428668
    DFT Exchange-Correlation Energy =       0.0000000000000000
    Empirical Dispersion Energy =           0.0000000000000000
    PCM Polarization Energy =               0.0000000000000000
    EFP Energy =                            0.0000000000000000
    Total Energy =                       -271.2823732183949232
    Molecular point group: c1
  Basis Set: CC-PVTZ
  Basis Set:

  -Total Gradient:
     Atom            X                  Y                   Z
    ------   -----------------  -----------------  -----------------
       1       -0.000001452227    -0.000000647089    -0.000001676859
       2        0.000006563781     0.000009279707     0.000036855565
       3       -0.000038003409     0.000013198437    -0.000052698937
       4        0.000051228332    -0.000040090236     0.000061362491
       5       -0.000024860915    -0.000004237095     0.000007384967
       6        0.000000078764    -0.000013268138    -0.000013151624
       7        0.002455123112    -0.002407336887     0.004060003425
       8        0.000002088200     0.000004025109     0.000007094965
       9       -0.000002764151     0.000011586758     0.000000773246
      10       -0.002489217293     0.003395740363    -0.003240232397
      11       -0.001689485933     0.001493062144    -0.002923069935
      12        0.000008479328     0.000014534504    -0.000011530098
      13       -0.000021185234     0.000018544013    -0.000045847788
      14        0.001737459154    -0.002486930869     0.002094470470
      15       -0.000008222617    -0.000005514812     0.000013102370
      16       -0.000002066277     0.000003165129     0.000004764509
      17        0.000018550926    -0.000000361259     0.000001363786
      18       -0.000002313537    -0.000004749781     0.000001031844

  **** Optimization is complete! (in 4 steps) ****
    Final optimized geometry and variables:
    Molecular point group: c1

    Geometry (in Angstrom), charge = 0, multiplicity = 1:

    H           -3.126934958042    -1.361793430108    -0.163844496027
    O           -2.302420234913    -1.015089584560    -0.449924207863
    C           -2.027969013416     0.191019993227     0.214833721432
    C           -0.673617984282     0.706231610406    -0.231943025870
    H           -2.791905176363     0.929658360087    -0.014508109614
    H           -2.029361816554     0.039340270171     1.292575510940
    C            0.493899907668    -0.196545507076     0.164724262174
    H           -0.692858792348     0.828164044337    -1.310932577045
    H           -0.531777588993     1.696267923399     0.193959870799
    C            1.848704747518     0.311340620860    -0.360179130077
    H            0.294353943993    -1.185039275249    -0.228419018228
    H            0.522333544094    -0.279664321988     1.247405917063
    C            2.979287854472     0.161349004106     0.655445987330
    H            2.123034138581    -0.246239129375    -1.249422079507
    H            1.770751817105     1.353770416415    -0.651305506646
    H            3.096820814658    -0.874310238691     0.957381751991
    H            3.925650814323     0.495272831540     0.244692945023
    H            2.781444382980     0.743359054436     1.549721573793

  Mulliken Charges: (a.u.)
   Center  Symbol    Alpha    Beta     Spin     Total
       1     H     0.39564  0.39564  0.00000  0.20872
       2     O     4.19890  4.19890  0.00000 -0.39780
       3     C     2.97399  2.97399  0.00000  0.05203
       4     C     3.09148  3.09148  0.00000 -0.18297
       5     H     0.46534  0.46534  0.00000  0.06933
       6     H     0.47367  0.47367  0.00000  0.05267
       7     C     3.09135  3.09135  0.00000 -0.18270
       8     H     0.45135  0.45135  0.00000  0.09730
       9     H     0.45426  0.45426  0.00000  0.09147
      10     C     3.08563  3.08563  0.00000 -0.17126
      11     H     0.44289  0.44289  0.00000  0.11422
      12     H     0.45861  0.45861  0.00000  0.08278
      13     C     3.14834  3.14834  0.00000 -0.29668
      14     H     0.45139  0.45139  0.00000  0.09722
      15     H     0.45574  0.45574  0.00000  0.08851
      16     H     0.45418  0.45418  0.00000  0.09163
      17     H     0.45017  0.45017  0.00000  0.09966
      18     H     0.45707  0.45707  0.00000  0.08587

   Total alpha = 25.00000, Total beta = 25.00000, Total charge = -0.00000
