                              Psi4 1.0.54 Driver

  ==> Input File <==

--------------------------------------------------------------------------
set {
	reference rhf
	basis cc-pvtz
}

set_num_threads( 4 )
memory 2 gb

molecule MOL {
0 1

H	 1.991773	 0.212700	 0.461915
C	 1.153276	 0.234259	 -0.218650
O	 0.000000	 0.000000	 0.518769
H	 1.123561	 1.206122	 -0.706967
H	 1.300979	 -0.528381	 -0.980503
C	 -1.165153	 0.000000	 -0.236961
H	 -1.229451	 0.882440	 -0.870223
H	 -2.002557	 0.000000	 0.445289
H	 -1.229451	 -0.882440	 -0.870223

	symmetry c1
}
set optking {
	frozen_dihedral = ("
		2 3 6 7
	")
}

ee,wfn = optimize('scf', return_wfn=True)
oeprop( wfn, 'DIPOLE', 'QUADRUPOLE', 'MULLIKEN_CHARGES')
f=open( 'psi4out.xyz', 'w' )
f.write( "9  " )
f.write( str(ee) + "\n" )
f.write( MOL.save_string_xyz() )
f.close()
--------------------------------------------------------------------------

    Molecular point group: c1
  Charge       = 0
  Multiplicity = 1
  Basis Set: CC-PVTZ
  Basis Set:
  @DF-RHF Final Energy:  -154.12690721040784
    Total Energy =                       -154.1269072104076940
    Molecular point group: c1
  Basis Set: CC-PVTZ
  Basis Set:
  Basis Set: CC-PVTZ
  Basis Set:
  @DF-RHF Final Energy:  -154.12691918665791
    Total Energy =                       -154.1269191866578012
  Basis Set: CC-PVTZ
  Basis Set:
  Charge       = 0
  Multiplicity = 1
  Basis Set: CC-PVTZ
  Basis Set:

    Orbital Energies (a.u.)
    -----------------------

    Doubly Occupied:

       1A    -20.550180     2A    -11.263322     3A    -11.263243
       4A     -1.382559     5A     -0.975849     6A     -0.872839
       7A     -0.663668     8A     -0.655972     9A     -0.647069
      10A     -0.551625    11A     -0.530094    12A     -0.477190
      13A     -0.419850

  @DF-RHF Final Energy:  -154.12692150771028

   => Energetics <=

    Nuclear Repulsion Energy =             84.8454406613068528
    One-Electron Energy =                -377.4378062969822167
    Two-Electron Energy =                 138.4654441279650996
    DFT Exchange-Correlation Energy =       0.0000000000000000
    Empirical Dispersion Energy =           0.0000000000000000
    PCM Polarization Energy =               0.0000000000000000
    EFP Energy =                            0.0000000000000000
    Total Energy =                       -154.1269215077102785
    Molecular point group: c1
  Basis Set: CC-PVTZ
  Basis Set:

  -Total Gradient:
     Atom            X                  Y                   Z
    ------   -----------------  -----------------  -----------------
       1       -0.000025624872    -0.000009080398     0.000024971394
       2       -0.000127539093     0.001192714212     0.000113642813
       3        0.000401029258    -0.001896400974    -0.000495844400
       4       -0.000000069698     0.000003369078     0.000004705431
       5        0.000005772006    -0.000001452795     0.000001951196
       6       -0.000934314257     0.001457383212     0.001426929831
       7        0.000702261681    -0.000771451318    -0.001116499954
       8       -0.000015363376    -0.000007281110     0.000035544025
       9       -0.000006151650     0.000032200092     0.000004599664

  **** Optimization is complete! (in 3 steps) ****
    Final optimized geometry and variables:
    Molecular point group: c1

    Geometry (in Angstrom), charge = 0, multiplicity = 1:

    H            1.997027699596     0.125678876534     0.454529986137
    C            1.158209006370     0.151523070367    -0.225802502988
    O            0.004322406161    -0.077231525958     0.512304867645
    H            1.131645023316     1.123733138024    -0.713286137593
    H            1.303849441651    -0.611081140432    -0.988560190318
    C           -1.162520247989    -0.080977095876    -0.241609335952
    H           -1.228339230090     0.797145421484    -0.880382738273
    H           -2.001087485773    -0.086947044758     0.439355522302
    H           -1.220361955804    -0.962787720949    -0.876913771279

  Mulliken Charges: (a.u.)
   Center  Symbol    Alpha    Beta     Spin     Total
       1     H     0.44840  0.44840  0.00000  0.10320
       2     C     3.02205  3.02205  0.00000 -0.04411
       3     O     4.16758  4.16758  0.00000 -0.33516
       4     H     0.47236  0.47236  0.00000  0.05529
       5     H     0.47364  0.47364  0.00000  0.05272
       6     C     3.02151  3.02151  0.00000 -0.04303
       7     H     0.47480  0.47480  0.00000  0.05039
       8     H     0.44860  0.44860  0.00000  0.10280
       9     H     0.47105  0.47105  0.00000  0.05790

   Total alpha = 13.00000, Total beta = 13.00000, Total charge =  0.00000

*** Psi4 exiting successfully. Buy a developer a beer!
