  ==> Input File <==

--------------------------------------------------------------------------
set {
	reference rhf
	basis 6-31G*
}

set_num_threads( 4 )
memory 2 gb

molecule MOL {
0 1

H	 -1.064089	 0.069849	 -1.843055
C	 -0.605803	 -0.484033	 -1.049282
C	 -0.601806	 -1.867295	 -1.042359
C	 0.000000	 0.183220	 0.000000
H	 -1.066948	 -2.404452	 -1.848008
C	 0.000000	 -2.555744	 0.000000
N	 0.000000	 1.642018	 0.000000
C	 0.605803	 -0.484034	 1.049282
H	 0.000000	 -3.630640	 0.000000
C	 0.601806	 -1.867295	 1.042359
O	 1.057097	 2.196749	 0.000000
O	 -1.057097	 2.196749	 0.000000
H	 1.064089	 0.069849	 1.843055
H	 1.066948	 -2.404452	 1.848008

	symmetry c1
}
set optking {
	frozen_dihedral = ("
		2 4 7 11
	")
}

ee = optimize('scf')
oeprop('DIPOLE', 'QUADRUPOLE', 'MULLIKEN_CHARGES')
f=open( 'psi4out.xyz', 'w' )
f.write( "14  " )
f.write( str(ee) + "\n" )
f.write( MOL.save_string_xyz() )
f.close()
--------------------------------------------------------------------------

    Molecular point group: c1
  Charge       = 0
  Multiplicity = 1
  Basis Set: 6-31G*
  Basis Set:
  @DF-RHF Final Energy:  -434.16613392656120
    Total Energy =                       -434.1661339265610877
    Molecular point group: c1
  Basis Set: 6-31G*
  Basis Set:
  Basis Set: 6-31G*
  Basis Set:
  @DF-RHF Final Energy:  -434.16099450910855
    Total Energy =                       -434.1609945091087184
  Basis Set: 6-31G*
  Basis Set:
  Basis Set: 6-31G*
  Basis Set:
  @DF-RHF Final Energy:  -434.16657616699626
    Total Energy =                       -434.1665761669964922
  Basis Set: 6-31G*
  Basis Set:
  Basis Set: 6-31G*
  Basis Set:
  @DF-RHF Final Energy:  -434.16679940633946
    Total Energy =                       -434.1667994063394644
  Basis Set: 6-31G*
  Basis Set:
  Basis Set: 6-31G*
  Basis Set:
  @DF-RHF Final Energy:  -434.16680346222932
    Total Energy =                       -434.1668034622292680
  Basis Set: 6-31G*
  Basis Set:
  Charge       = 0
  Multiplicity = 1
  Basis Set: 6-31G*
  Basis Set:

    Orbital Energies (a.u.)
    -----------------------

    Doubly Occupied:

       1A    -20.605590     2A    -20.605228     3A    -15.855445
       4A    -11.307699     5A    -11.271486     6A    -11.271183
       7A    -11.264459     8A    -11.262928     9A    -11.262434
      10A     -1.636861    11A     -1.420732    12A     -1.203022
      13A     -1.095145    14A     -1.054080    15A     -0.957554
      16A     -0.870515    17A     -0.826713    18A     -0.781338
      19A     -0.733585    20A     -0.730139    21A     -0.714400
      22A     -0.649285    23A     -0.649011    24A     -0.624174
      25A     -0.558101    26A     -0.544411    27A     -0.531794
      28A     -0.493048    29A     -0.485073    30A     -0.451307
      31A     -0.369393    32A     -0.366546

  @DF-RHF Final Energy:  -434.16680386195134

   => Energetics <=

    Nuclear Repulsion Energy =            416.6424823596739202
    One-Electron Energy =               -1416.7132067300090057
    Two-Electron Energy =                 565.9039205083837487
    DFT Exchange-Correlation Energy =       0.0000000000000000
    Empirical Dispersion Energy =           0.0000000000000000
    PCM Polarization Energy =               0.0000000000000000
    EFP Energy =                            0.0000000000000000
    Total Energy =                       -434.1668038619512799
    Molecular point group: c1
  Basis Set: 6-31G*
  Basis Set:

  -Total Gradient:
     Atom            X                  Y                   Z
    ------   -----------------  -----------------  -----------------
       1        0.000001457249     0.000009253668    -0.000005395405
       2        0.004927450184    -0.000188311061    -0.002608910346
       3        0.000050159820     0.000010885263    -0.000018850017
       4       -0.006885855456     0.000209930445     0.001251840088
       5       -0.000003535902     0.000000409744     0.000007031711
       6       -0.000002785638     0.000000280218     0.000011526105
       7        0.001863908461     0.000011063208     0.007927041028
       8       -0.000123850089    -0.000011407790     0.000040313221
       9        0.000000268038    -0.000003833461    -0.000001634478
      10       -0.000044515352     0.000005626628     0.000006393594
      11        0.000194696108    -0.000088177610    -0.006615952618
      12        0.000017496101     0.000033224831     0.000005275396
      13       -0.000000898667     0.000007824297     0.000008222154
      14        0.000006005145     0.000003231615    -0.000006900432

  **** Optimization is complete! (in 6 steps) ****
    Final optimized geometry and variables:
    Molecular point group: c1

    Geometry (in Angstrom), charge = 0, multiplicity = 1:

    H           -1.101754447126     0.082406380236    -1.812967175825
    C           -0.626970826831    -0.474695404287    -1.028128921116
    C           -0.597510106116    -1.858922116972    -1.039173896947
    C           -0.036853803566     0.182203040046     0.031386583860
    H           -1.046336618142    -2.393432680242    -1.855797210551
    C            0.007063178562    -2.550320915424    -0.000881958165
    N            0.000730931466     1.640318664760     0.007014700377
    C            0.604221904723    -0.480161063617     1.057726015177
    H            0.019719580595    -3.624930839829    -0.010975211725
    C            0.602521656438    -1.864185433135     1.046751144338
    O            1.074734535126     2.158682528385     0.032029999134
    O           -1.041869407514     2.212339204311    -0.089407011096
    H            1.086532558953     0.073176447620     1.840714349510
    H            1.075997398523    -2.403178261998     1.846333494532

  Mulliken Charges: (a.u.)
   Center  Symbol    Alpha    Beta     Spin     Total
       1     H     0.37327  0.37327  0.00000  0.25346
       2     C     3.08657  3.08657  0.00000 -0.17314
       3     C     3.10499  3.10499  0.00000 -0.20998
       4     C     2.90236  2.90236  0.00000  0.19527
       5     H     0.38850  0.38850  0.00000  0.22301
       6     C     3.09114  3.09114  0.00000 -0.18227
       7     N     3.25757  3.25757  0.00000  0.48486
       8     C     3.08687  3.08687  0.00000 -0.17374
       9     H     0.38978  0.38978  0.00000  0.22043
      10     C     3.10530  3.10530  0.00000 -0.21060
      11     O     4.22561  4.22561  0.00000 -0.45122
      12     O     4.22504  4.22504  0.00000 -0.45008
      13     H     0.37451  0.37451  0.00000  0.25098
      14     H     0.38849  0.38849  0.00000  0.22301

   Total alpha = 32.00000, Total beta = 32.00000, Total charge =  0.00000
