  ==> Input File <==

--------------------------------------------------------------------------
set {
	reference rhf
	basis 6-31G*
}

set_num_threads( 1 )
memory 2 gb

molecule MOL {
0 1

H	 1.136379	 0.211822	 1.465562
C	 1.135357	 0.094285	 0.374742
C	 0.065331	 0.871482	 -0.349150
O	 1.941633	 -0.601957	 -0.151457
C	 -0.255394	 2.206435	 0.338250
H	 -0.815962	 0.245696	 -0.430558
H	 0.433248	 1.065466	 -1.355712
C	 -0.910089	 2.038062	 1.709909
H	 -0.913200	 2.777603	 -0.309104
H	 0.656874	 2.791205	 0.435471
H	 -1.841562	 1.486174	 1.630516
H	 -1.130986	 3.003412	 2.153330
H	 -0.267747	 1.498055	 2.399241

	symmetry c1
}
set optking {
	frozen_dihedral = ("
		6 3 5 9
	")
}

ee = energy('scf')
oeprop('DIPOLE', 'QUADRUPOLE', 'MULLIKEN_CHARGES')
f=open( 'psi4out.xyz', 'w' )
f.write( "13  " )
f.write( str(ee) + "\n" )
f.write( MOL.save_string_xyz() )
f.close()
--------------------------------------------------------------------------

    Molecular point group: c1

    Geometry (in Angstrom), charge = 0, multiplicity = 1:

       Center              X                  Y                   Z               Mass
    ------------   -----------------  -----------------  -----------------  -----------------
           H          0.737887678335    -0.705177389677     1.070071281302     1.007825032070
           C          0.736865678335    -0.822714389677    -0.020748718698    12.000000000000
           C         -0.333160321665    -0.045517389677    -0.744640718698    12.000000000000
           O          1.543141678335    -1.518956389677    -0.546947718698    15.994914619560
           C         -0.653885321665     1.289435610323    -0.057240718698    12.000000000000
           H         -1.214453321665    -0.671303389677    -0.826048718698     1.007825032070
           H          0.034756678335     0.148466610323    -1.751202718698     1.007825032070
           C         -1.308580321665     1.121062610323     1.314418281302    12.000000000000
           H         -1.311691321665     1.860603610323    -0.704594718698     1.007825032070
           H          0.258382678335     1.874205610323     0.039980281302     1.007825032070
           H         -2.240053321665     0.569174610323     1.235025281302     1.007825032070
           H         -1.529477321665     2.086412610323     1.757839281302     1.007825032070
           H         -0.666238321665     0.581055610323     2.003750281302     1.007825032070

  Charge       = 0
  Multiplicity = 1
  Basis Set: 6-31G*
  Basis Set:

    Orbital Energies (a.u.)
    -----------------------

    Doubly Occupied:

       1A    -20.562157     2A    -11.326404     3A    -11.238369
       4A    -11.235933     5A    -11.225699     6A     -1.402204
       7A     -1.088922     8A     -0.972999     9A     -0.853107
      10A     -0.787111    11A     -0.670592    12A     -0.651404
      13A     -0.612517    14A     -0.593185    15A     -0.582882
      16A     -0.527221    17A     -0.508586    18A     -0.491322
      19A     -0.487041    20A     -0.407714

  @DF-RHF Final Energy:  -230.98157969814957

   => Energetics <=

    Nuclear Repulsion Energy =            172.7802882304756054
    One-Electron Energy =                -655.0727698632326792
    Two-Electron Energy =                 251.3109019346077275
    DFT Exchange-Correlation Energy =       0.0000000000000000
    Empirical Dispersion Energy =           0.0000000000000000
    PCM Polarization Energy =               0.0000000000000000
    EFP Energy =                            0.0000000000000000
    Total Energy =                       -230.9815796981493463

  Mulliken Charges: (a.u.)
   Center  Symbol    Alpha    Beta     Spin     Total
       1     H     0.43108  0.43108  0.00000  0.13785
       2     C     2.83100  2.83100  0.00000  0.33800
       3     C     3.20915  3.20915  0.00000 -0.41830
       4     O     4.23974  4.23974  0.00000 -0.47947
       5     C     3.16719  3.16719  0.00000 -0.33438
       6     H     0.40237  0.40237  0.00000  0.19526
       7     H     0.39819  0.39819  0.00000  0.20361
       8     C     3.24585  3.24585  0.00000 -0.49171
       9     H     0.41093  0.41093  0.00000  0.17814
      10     H     0.41478  0.41478  0.00000  0.17043
      11     H     0.41793  0.41793  0.00000  0.16414
      12     H     0.41314  0.41314  0.00000  0.17372
      13     H     0.41865  0.41865  0.00000  0.16269

   Total alpha = 20.00000, Total beta = 20.00000, Total charge =  0.00000
