                              Psi4 1.0.54 Driver

  ==> Input File <==

--------------------------------------------------------------------------
set {
	reference rhf
	basis cc-pvtz
}

set_num_threads( 4 )
memory 2 gb

molecule MOL {
0 1

H	 -4.134390	 -0.047672	 0.499291
O	 -3.515113	 -0.019339	 -0.206321
C	 -2.302264	 0.528872	 0.237390
C	 -1.175688	 -0.398187	 -0.171891
H	 -2.148018	 1.514076	 -0.197759
H	 -2.310727	 0.646384	 1.319032
C	 0.196029	 0.106276	 0.266738
H	 -1.201873	 -0.515469	 -1.250677
H	 -1.365975	 -1.378728	 0.252664
C	 1.330220	 -0.826136	 -0.155230
H	 0.359542	 1.097229	 -0.145561
H	 0.212134	 0.218135	 1.348778
C	 2.719700	 -0.407669	 0.328325
H	 1.339388	 -0.911200	 -1.239363
H	 1.119001	 -1.821953	 0.224128
C	 3.241564	 0.893452	 -0.276737
H	 3.418299	 -1.204729	 0.093035
H	 2.711776	 -0.323368	 1.411960
H	 3.254204	 0.841071	 -1.360784
H	 2.634460	 1.745075	 0.005842
H	 4.254264	 1.092401	 0.054971

	symmetry c1
}
set optking {
	frozen_dihedral = ("
		1 2 3 5
	")
}

ee,wfn = optimize('scf', return_wfn=True)
oeprop( wfn, 'DIPOLE', 'QUADRUPOLE', 'MULLIKEN_CHARGES')
f=open( 'psi4out.xyz', 'w' )
f.write( "21  " )
f.write( str(ee) + "\n" )
f.write( MOL.save_string_xyz() )
f.close()
--------------------------------------------------------------------------

    Molecular point group: c1
  Charge       = 0
  Multiplicity = 1
  Basis Set: CC-PVTZ
  Basis Set:
  @DF-RHF Final Energy:  -310.33114053177951
    Total Energy =                       -310.3311405317795106
    Molecular point group: c1
  Basis Set: CC-PVTZ
  Basis Set:
  Basis Set: CC-PVTZ
  Basis Set:
  @DF-RHF Final Energy:  -310.33135041545637
    Total Energy =                       -310.3313504154564271
  Basis Set: CC-PVTZ
  Basis Set:
  Basis Set: CC-PVTZ
  Basis Set:
  @DF-RHF Final Energy:  -310.33141934606681
    Total Energy =                       -310.3314193460665820
  Basis Set: CC-PVTZ
  Basis Set:
  Charge       = 0
  Multiplicity = 1
  Basis Set: CC-PVTZ
  Basis Set:

    Orbital Energies (a.u.)
    -----------------------

    Doubly Occupied:

       1A    -20.544211     2A    -11.265397     3A    -11.213447
       4A    -11.213340     5A    -11.211682     6A    -11.208741
       7A    -11.206151     8A     -1.361757     9A     -1.087561
      10A     -1.034388    11A     -0.955596    12A     -0.877205
      13A     -0.809620    14A     -0.779321    15A     -0.702371
      16A     -0.653604    17A     -0.620306    18A     -0.610554
      19A     -0.588664    20A     -0.568978    21A     -0.542922
      22A     -0.524187    23A     -0.504317    24A     -0.495504
      25A     -0.473874    26A     -0.460724    27A     -0.460445
      28A     -0.455764    29A     -0.425307

  @DF-RHF Final Energy:  -310.33141880034356

   => Energetics <=

    Nuclear Repulsion Energy =            312.6355007498888767
    One-Electron Energy =               -1040.2219653246902453
    Two-Electron Energy =                 417.2550457744576988
    DFT Exchange-Correlation Energy =       0.0000000000000000
    Empirical Dispersion Energy =           0.0000000000000000
    PCM Polarization Energy =               0.0000000000000000
    EFP Energy =                            0.0000000000000000
    Total Energy =                       -310.3314188003436129
    Molecular point group: c1
  Basis Set: CC-PVTZ
  Basis Set:

  -Total Gradient:
     Atom            X                  Y                   Z
    ------   -----------------  -----------------  -----------------
       1        0.000247633356    -0.000756247745     0.000116188049
       2       -0.000322832987     0.000822261150    -0.000317475246
       3       -0.000284265695     0.000166169368     0.000747808438
       4        0.000020981974     0.000046936324     0.000013767927
       5        0.000351507774    -0.000300621933    -0.000535254358
       6        0.000011103797     0.000000876017    -0.000011593148
       7       -0.000055109862    -0.000007801953    -0.000000351078
       8       -0.000012317976     0.000003808877    -0.000004082428
       9       -0.000016412094     0.000013690217     0.000005054100
      10        0.000012451000     0.000049228412    -0.000044901816
      11       -0.000043365314    -0.000067508888     0.000004026220
      12        0.000010414842     0.000022390691     0.000004757741
      13       -0.000031227087     0.000014257163     0.000051908715
      14       -0.000006527932     0.000024001261    -0.000005771903
      15        0.000016597488    -0.000005842352    -0.000020722510
      16        0.000036379175    -0.000002832135    -0.000022250429
      17        0.000025357442    -0.000026929051     0.000019698903
      18       -0.000011958197     0.000019500574     0.000022278432
      19       -0.000005012516     0.000013182254    -0.000019669469
      20        0.000051322194    -0.000011996950     0.000011986594
      21        0.000005280620    -0.000016521302    -0.000015402733

  **** Optimization is complete! (in 4 steps) ****
    Final optimized geometry and variables:
    Molecular point group: c1

    Geometry (in Angstrom), charge = 0, multiplicity = 1:

    H           -4.162545448896     0.006949592066     0.492921530898
    O           -3.532812098952     0.053932493443    -0.199842539646
    C           -2.298994198831     0.525648914028     0.282718742350
    C           -1.178151066037    -0.396314603515    -0.160733505063
    H           -2.127411266688     1.525004341298    -0.106520258762
    H           -2.312708798052     0.598212022467     1.366532576600
    C            0.201099992017     0.097771496728     0.265584355396
    H           -1.221749922881    -0.489775770233    -1.241471365395
    H           -1.361648842131    -1.387247314808     0.243459561646
    C            1.327828618829    -0.828885329922    -0.187869532466
    H            0.359593429699     1.095138325919    -0.132561679339
    H            0.233789882419     0.192293316258     1.349211346925
    C            2.723947826101    -0.425684765294     0.289615707258
    H            1.324994420389    -0.890847682083    -1.273539141662
    H            1.117280547646    -1.831941092029     0.172434139924
    C            3.248184033722     0.881369553129    -0.300336679703
    H            3.415846039576    -1.222996164274     0.035943847840
    H            2.726200571388    -0.357912991499     1.374474603664
    H            3.247605236607     0.846641169476    -1.385132064936
    H            2.650803755452     1.732572132330     0.003294688800
    H            4.266173111247     1.067487285724     0.022456717232

  Mulliken Charges: (a.u.)
   Center  Symbol    Alpha    Beta     Spin     Total
       1     H     0.39131  0.39131  0.00000  0.21738
       2     O     4.20368  4.20368  0.00000 -0.40737
       3     C     2.96896  2.96896  0.00000  0.06209
       4     C     3.08001  3.08001  0.00000 -0.16002
       5     H     0.46641  0.46641  0.00000  0.06719
       6     H     0.47428  0.47428  0.00000  0.05144
       7     C     3.10403  3.10403  0.00000 -0.20805
       8     H     0.45043  0.45043  0.00000  0.09914
       9     H     0.45531  0.45531  0.00000  0.08938
      10     C     3.09376  3.09376  0.00000 -0.18751
      11     H     0.45242  0.45242  0.00000  0.09515
      12     H     0.45634  0.45634  0.00000  0.08733
      13     C     3.08994  3.08994  0.00000 -0.17988
      14     H     0.45284  0.45284  0.00000  0.09432
      15     H     0.44919  0.44919  0.00000  0.10161
      16     C     3.15226  3.15226  0.00000 -0.30452
      17     H     0.44846  0.44846  0.00000  0.10308
      18     H     0.45524  0.45524  0.00000  0.08952
      19     H     0.45451  0.45451  0.00000  0.09097
      20     H     0.45409  0.45409  0.00000  0.09182
      21     H     0.44653  0.44653  0.00000  0.10694

   Total alpha = 29.00000, Total beta = 29.00000, Total charge =  0.00000

*** Psi4 exiting successfully. Buy a developer a beer!
