  ==> Input File <==

--------------------------------------------------------------------------
set {
	reference rhf
	basis 6-31G*
}

set_num_threads( 1 )
memory 2 gb

molecule MOL {
0 1

O	 3.306436	 1.092029	 -0.265793
C	 2.744181	 0.122794	 0.131088
C	 1.282830	 0.042383	 0.500922
O	 3.347903	 -1.046386	 0.304773
C	 0.541080	 1.362910	 0.305647
H	 0.849062	 -0.758844	 -0.088206
H	 1.229080	 -0.287207	 1.535416
C	 -0.917279	 1.326865	 0.775099
H	 0.583457	 1.646563	 -0.741666
H	 1.069572	 2.139699	 0.847604
C	 -1.832622	 0.402341	 -0.032683
H	 -1.312735	 2.338643	 0.723701
H	 -0.953030	 1.042389	 1.825720
C	 -3.296717	 0.484978	 0.403892
H	 -1.757374	 0.657915	 -1.088542
H	 -1.497283	 -0.628444	 0.056773
C	 -4.219878	 -0.438556	 -0.392971
H	 -3.644306	 1.511897	 0.304629
H	 -3.371274	 0.239956	 1.462242
C	 -5.680738	 -0.347184	 0.046616
H	 -4.145845	 -0.195739	 -1.450895
H	 -3.876610	 -1.465999	 -0.291439
H	 -6.309719	 -1.012959	 -0.536251
H	 -6.064567	 0.661723	 -0.075764
H	 -5.793058	 -0.617742	 1.092779
C	 4.728119	 -1.109107	 -0.004993
H	 4.882018	 -1.033965	 -1.071845
H	 5.068212	 -2.067527	 0.355250
H	 5.265056	 -0.311663	 0.488280

	symmetry c1
}
set optking {
	frozen_dihedral = ("
		21 17 14 11,
		17 14 11 15,
		15 11 8 5,
		6 3 5 9,
		11 8 5 9,
		1 2 4 26,
		6 3 2 1
	")
}

ee = energy('scf')
oeprop('DIPOLE', 'QUADRUPOLE', 'MULLIKEN_CHARGES')
f=open( 'psi4out.xyz', 'w' )
f.write( "29  " )
f.write( str(ee) + "\n" )
f.write( MOL.save_string_xyz() )
f.close()
--------------------------------------------------------------------------

    Molecular point group: c1

    Geometry (in Angstrom), charge = 0, multiplicity = 1:

       Center              X                  Y                   Z               Mass
    ------------   -----------------  -----------------  -----------------  -----------------
           O          3.264134416517     0.935371327545    -0.422554915736    15.994914619560
           C          2.701879416517    -0.033863672455    -0.025673915736    12.000000000000
           C          1.240528416517    -0.114274672455     0.344160084264    12.000000000000
           O          3.305601416517    -1.203043672455     0.148011084264    15.994914619560
           C          0.498778416517     1.206252327545     0.148885084264    12.000000000000
           H          0.806760416517    -0.915501672455    -0.244967915736     1.007825032070
           H          1.186778416517    -0.443864672455     1.378654084264     1.007825032070
           C         -0.959580583483     1.170207327545     0.618337084264    12.000000000000
           H          0.541155416517     1.489905327545    -0.898427915736     1.007825032070
           H          1.027270416517     1.983041327545     0.690842084264     1.007825032070
           C         -1.874923583483     0.245683327545    -0.189444915736    12.000000000000
           H         -1.355036583483     2.181985327545     0.566939084264     1.007825032070
           H         -0.995331583483     0.885731327545     1.668958084264     1.007825032070
           C         -3.339018583483     0.328320327545     0.247130084264    12.000000000000
           H         -1.799675583483     0.501257327545    -1.245303915736     1.007825032070
           H         -1.539584583483    -0.785101672455    -0.099988915736     1.007825032070
           C         -4.262179583483    -0.595213672455    -0.549732915736    12.000000000000
           H         -3.686607583483     1.355239327545     0.147867084264     1.007825032070
           H         -3.413575583483     0.083298327545     1.305480084264     1.007825032070
           C         -5.723039583483    -0.503841672455    -0.110145915736    12.000000000000
           H         -4.188146583483    -0.352396672455    -1.607656915736     1.007825032070
           H         -3.918911583483    -1.622656672455    -0.448200915736     1.007825032070
           H         -6.352020583483    -1.169616672455    -0.693012915736     1.007825032070
           H         -6.106868583483     0.505065327545    -0.232525915736     1.007825032070
           H         -5.835359583483    -0.774399672455     0.936017084264     1.007825032070
           C          4.685817416517    -1.265764672455    -0.161754915736    12.000000000000
           H          4.839716416517    -1.190622672455    -1.228606915736     1.007825032070
           H          5.025910416517    -2.224184672455     0.198488084264     1.007825032070
           H          5.222754416517    -0.468320672455     0.331518084264     1.007825032070

  Charge       = 0
  Multiplicity = 1
  Basis Set: 6-31G*
  Basis Set:

    Orbital Energies (a.u.)
    -----------------------

    Doubly Occupied:

       1A    -20.603366     2A    -20.545137     3A    -11.372072
       4A    -11.280395     5A    -11.234769     6A    -11.219103
       7A    -11.217646     8A    -11.216004     9A    -11.215856
      10A    -11.214459    11A    -11.209071    12A     -1.469087
      13A     -1.362517    14A     -1.098084    15A     -1.066822
      16A     -1.019504    17A     -0.977192    18A     -0.928545
      19A     -0.861591    20A     -0.799265    21A     -0.790497
      22A     -0.763774    23A     -0.700919    24A     -0.682212
      25A     -0.672206    26A     -0.650928    27A     -0.628851
      28A     -0.604677    29A     -0.594686    30A     -0.580860
      31A     -0.567293    32A     -0.549153    33A     -0.532283
      34A     -0.530025    35A     -0.515625    36A     -0.512031
      37A     -0.496395    38A     -0.477817    39A     -0.470203
      40A     -0.462386    41A     -0.458767    42A     -0.455878
      43A     -0.440965    44A     -0.435500

  @DF-RHF Final Energy:  -501.04395167543066

   => Energetics <=

    Nuclear Repulsion Energy =            610.1982967782357719
    One-Electron Energy =               -1891.5157156614666292
    Two-Electron Energy =                 780.2734672077995128
    DFT Exchange-Correlation Energy =       0.0000000000000000
    Empirical Dispersion Energy =           0.0000000000000000
    PCM Polarization Energy =               0.0000000000000000
    EFP Energy =                            0.0000000000000000
    Total Energy =                       -501.0439516754313445

  Mulliken Charges: (a.u.)
   Center  Symbol    Alpha    Beta     Spin     Total
       1     O     4.28600  4.28600  0.00000 -0.57199
       2     C     2.60484  2.60484  0.00000  0.79033
       3     C     3.20977  3.20977  0.00000 -0.41954
       4     O     4.30744  4.30744  0.00000 -0.61488
       5     C     3.15378  3.15378  0.00000 -0.30757
       6     H     0.39874  0.39874  0.00000  0.20252
       7     H     0.40127  0.40127  0.00000  0.19746
       8     C     3.15663  3.15663  0.00000 -0.31326
       9     H     0.41307  0.41307  0.00000  0.17386
      10     H     0.40875  0.40875  0.00000  0.18249
      11     C     3.15508  3.15508  0.00000 -0.31016
      12     H     0.41823  0.41823  0.00000  0.16355
      13     H     0.42386  0.42386  0.00000  0.15227
      14     C     3.15029  3.15029  0.00000 -0.30059
      15     H     0.42260  0.42260  0.00000  0.15480
      16     H     0.42361  0.42361  0.00000  0.15278
      17     C     3.15146  3.15146  0.00000 -0.30292
      18     H     0.42332  0.42332  0.00000  0.15336
      19     H     0.42397  0.42397  0.00000  0.15205
      20     C     3.23935  3.23935  0.00000 -0.47871
      21     H     0.42280  0.42280  0.00000  0.15441
      22     H     0.42343  0.42343  0.00000  0.15314
      23     H     0.41923  0.41923  0.00000  0.16155
      24     H     0.42154  0.42154  0.00000  0.15691
      25     H     0.42183  0.42183  0.00000  0.15634
      26     C     3.09287  3.09287  0.00000 -0.18575
      27     H     0.41103  0.41103  0.00000  0.17793
      28     H     0.40874  0.40874  0.00000  0.18251
      29     H     0.40646  0.40646  0.00000  0.18707

   Total alpha = 44.00000, Total beta = 44.00000, Total charge =  0.00000
