                              Psi4 1.0.54 Driver

  ==> Input File <==

--------------------------------------------------------------------------
set {
	reference rhf
	basis cc-pvtz
}

set_num_threads( 4 )
memory 2 gb

molecule MOL {
0 1

H	 -2.357552	 1.897673	 -2.225197
C	 -3.051563	 1.859971	 -1.374425
C	 -2.653809	 0.914422	 -0.273689
O	 -4.028793	 2.525037	 -1.378429
C	 -1.216901	 1.136108	 0.207794
H	 -3.365294	 1.009916	 0.536253
H	 -2.743283	 -0.090462	 -0.680514
C	 -0.247837	 0.040196	 -0.230469
H	 -0.872882	 2.093195	 -0.169002
H	 -1.209325	 1.218376	 1.291938
C	 1.181757	 0.280428	 0.247371
H	 -0.259600	 -0.030819	 -1.314870
H	 -0.591284	 -0.923375	 0.136958
C	 2.151032	 -0.811012	 -0.202643
H	 1.515939	 1.247397	 -0.115449
H	 1.191514	 0.341223	 1.333422
C	 3.580021	 -0.656538	 0.320835
H	 2.170545	 -0.847575	 -1.289412
H	 1.766632	 -1.772905	 0.124928
C	 4.327657	 0.562694	 -0.213579
H	 4.138806	 -1.549270	 0.057813
H	 3.561991	 -0.620783	 1.406976
H	 4.355973	 0.557257	 -1.298551
H	 3.867136	 1.491650	 0.100501
H	 5.351524	 0.571613	 0.142204

	symmetry c1
}
set optking {
	frozen_dihedral = ("
		6 3 5 8
	")
}

ee,wfn = optimize('scf', return_wfn=True)
oeprop( wfn, 'DIPOLE', 'QUADRUPOLE', 'MULLIKEN_CHARGES')
f=open( 'psi4out.xyz', 'w' )
f.write( "25  " )
f.write( str(ee) + "\n" )
f.write( MOL.save_string_xyz() )
f.close()
--------------------------------------------------------------------------

    Molecular point group: c1
  Charge       = 0
  Multiplicity = 1
  Basis Set: CC-PVTZ
  Basis Set:
  @DF-RHF Final Energy:  -387.25604953803906
    Total Energy =                       -387.2560495380389511
    Molecular point group: c1
  Basis Set: CC-PVTZ
  Basis Set:
  Basis Set: CC-PVTZ
  Basis Set:
  @DF-RHF Final Energy:  -387.25562120396904
    Total Energy =                       -387.2556212039694401
  Basis Set: CC-PVTZ
  Basis Set:
  Basis Set: CC-PVTZ
  Basis Set:
  @DF-RHF Final Energy:  -387.25403188463213
    Total Energy =                       -387.2540318846320133
  Basis Set: CC-PVTZ
  Basis Set:
  Basis Set: CC-PVTZ
  Basis Set:
  @DF-RHF Final Energy:  -387.25637599385709
    Total Energy =                       -387.2563759938567500
  Basis Set: CC-PVTZ
  Basis Set:
  Basis Set: CC-PVTZ
  Basis Set:
  @DF-RHF Final Energy:  -387.25639908462455
    Total Energy =                       -387.2563990846244906
  Basis Set: CC-PVTZ
  Basis Set:
  Basis Set: CC-PVTZ
  Basis Set:
  @DF-RHF Final Energy:  -387.25640056931474
    Total Energy =                       -387.2564005693147919
  Basis Set: CC-PVTZ
  Basis Set:
  Basis Set: CC-PVTZ
  Basis Set:
  @DF-RHF Final Energy:  -387.25640393753503
    Total Energy =                       -387.2564039375350831
  Basis Set: CC-PVTZ
  Basis Set:
  Charge       = 0
  Multiplicity = 1
  Basis Set: CC-PVTZ
  Basis Set:

    Orbital Energies (a.u.)
    -----------------------

    Doubly Occupied:

       1A    -20.550827     2A    -11.321156     3A    -11.233668
       4A    -11.233092     5A    -11.225609     6A    -11.219739
       7A    -11.218412     8A    -11.217747     9A    -11.210420
      10A     -1.406121    11A     -1.106148    12A     -1.071452
      13A     -1.016161    14A     -0.945976    15A     -0.877203
      16A     -0.819360    17A     -0.793241    18A     -0.784086
      19A     -0.671816    20A     -0.664888    21A     -0.636427
      22A     -0.622285    23A     -0.605562    24A     -0.596196
      25A     -0.573956    26A     -0.559102    27A     -0.541397
      28A     -0.522660    29A     -0.510118    30A     -0.503254
      31A     -0.486673    32A     -0.479405    33A     -0.467425
      34A     -0.461718    35A     -0.448849    36A     -0.410842

  @DF-RHF Final Energy:  -387.25640415812353

   => Energetics <=

    Nuclear Repulsion Energy =            434.1392666958093400
    One-Electron Energy =               -1384.7653610794745873
    Two-Electron Energy =                 563.3696902255419445
    DFT Exchange-Correlation Energy =       0.0000000000000000
    Empirical Dispersion Energy =           0.0000000000000000
    PCM Polarization Energy =               0.0000000000000000
    EFP Energy =                            0.0000000000000000
    Total Energy =                       -387.2564041581233596
    Molecular point group: c1
  Basis Set: CC-PVTZ
  Basis Set:

  -Total Gradient:
     Atom            X                  Y                   Z
    ------   -----------------  -----------------  -----------------
       1       -0.000004847212     0.000021612407     0.000014417548
       2       -0.000044476973    -0.000011852085    -0.000032813282
       3       -0.000352601245     0.001601156386     0.000084350005
       4        0.000008360248     0.000051942631    -0.000025625872
       5        0.000515566108     0.000569023297    -0.001348054269
       6        0.000126106957    -0.001608094015     0.000294216311
       7       -0.000007936279     0.000005090621     0.000008068185
       8       -0.000256577601    -0.000638726542     0.001036190479
       9        0.000055101299     0.000069154799     0.000033470828
      10       -0.000016442985    -0.000030776518    -0.000064803686
      11       -0.000030864415    -0.000019703068     0.000017472186
      12       -0.000021781723     0.000027873451     0.000005572649
      13        0.000029050285    -0.000043402244    -0.000016531283
      14        0.000003872944     0.000012582482    -0.000016297448
      15       -0.000046582199    -0.000029586957    -0.000011214294
      16        0.000017585042     0.000013494936     0.000009735028
      17       -0.000017160372     0.000027109445     0.000042124031
      18        0.000000545408     0.000017183696    -0.000007453380
      19        0.000009598149    -0.000006816063    -0.000013856103
      20        0.000011065687    -0.000012191279    -0.000013530514
      21       -0.000004138339    -0.000004244515     0.000010217635
      22       -0.000005510606     0.000010779230     0.000004515813
      23       -0.000002419183     0.000008926254    -0.000009844959
      24        0.000033515477    -0.000020761425     0.000006859686
      25        0.000000971528    -0.000009774924    -0.000007185293

  **** Optimization is complete! (in 8 steps) ****
    Final optimized geometry and variables:
    Molecular point group: c1

    Geometry (in Angstrom), charge = 0, multiplicity = 1:

    H           -2.318607556972     1.312760295049    -1.870216289774
    C           -3.057528790088     1.207461207762    -1.064420445820
    C           -2.667560185197     0.261768447440     0.037979002353
    O           -4.070776627617     1.814413929031    -1.108626925390
    C           -1.222426375267     0.484384838283     0.531327097401
    H           -3.390835569151     0.349535653697     0.836267248890
    H           -2.765370067410    -0.743175291931    -0.366161712101
    C           -0.245918117111    -0.605170490711     0.094372524205
    H           -0.859628370739     1.450916018267     0.191764730020
    H           -1.229312826350     0.538137127834     1.613560980795
    C            1.180033030224    -0.369179448790     0.583051353104
    H           -0.246691792620    -0.677801599384    -0.991119315327
    H           -0.600931835157    -1.564502406772     0.462031766501
    C            2.147650345037    -1.469338441685     0.150798847866
    H            1.523083708336     0.593151766100     0.216510152334
    H            1.178935073427    -0.300133185596     1.668536675259
    C            3.571231030531    -1.321043991442     0.690538878418
    H            2.180360069546    -1.512424208769    -0.935543996763
    H            1.753346761822    -2.426962168914     0.479591852214
    C            4.334814101344    -0.112635591580     0.154205026992
    H            4.126172204714    -2.220495796866     0.442633974675
    H            3.539809305871    -1.275120366188     1.775924350894
    H            4.374323803109    -0.126952597268    -0.930348484776
    H            3.879474319966     0.822752372116     0.456312491270
    H            5.354951075120    -0.109948347280     0.520484026094

  Mulliken Charges: (a.u.)
   Center  Symbol    Alpha    Beta     Spin     Total
       1     H     0.46606  0.46606  0.00000  0.06788
       2     C     2.90326  2.90326  0.00000  0.19348
       3     C     3.08788  3.08788  0.00000 -0.17577
       4     O     4.16486  4.16486  0.00000 -0.32972
       5     C     3.11229  3.11229  0.00000 -0.22458
       6     H     0.43630  0.43630  0.00000  0.12740
       7     H     0.44916  0.44916  0.00000  0.10169
       8     C     3.09000  3.09000  0.00000 -0.17999
       9     H     0.44938  0.44938  0.00000  0.10125
      10     H     0.44117  0.44117  0.00000  0.11766
      11     C     3.09407  3.09407  0.00000 -0.18814
      12     H     0.45339  0.45339  0.00000  0.09322
      13     H     0.45060  0.45060  0.00000  0.09881
      14     C     3.09553  3.09553  0.00000 -0.19107
      15     H     0.45088  0.45088  0.00000  0.09824
      16     H     0.45317  0.45317  0.00000  0.09367
      17     C     3.09056  3.09056  0.00000 -0.18112
      18     H     0.45354  0.45354  0.00000  0.09291
      19     H     0.44914  0.44914  0.00000  0.10173
      20     C     3.15261  3.15261  0.00000 -0.30521
      21     H     0.44776  0.44776  0.00000  0.10449
      22     H     0.45430  0.45430  0.00000  0.09141
      23     H     0.45466  0.45466  0.00000  0.09067
      24     H     0.45386  0.45386  0.00000  0.09228
      25     H     0.44560  0.44560  0.00000  0.10881

   Total alpha = 36.00000, Total beta = 36.00000, Total charge = -0.00000

*** Psi4 exiting successfully. Buy a developer a beer!
