                              Psi4 1.0.54 Driver

  ==> Input File <==

--------------------------------------------------------------------------
set {
	reference rhf
	basis cc-pvtz
}

set_num_threads( 4 )
memory 2 gb

molecule MOL {
0 1

O	 -2.817688	 1.304181	 0.004605
C	 -2.664672	 0.129869	 0.003507
C	 -3.797903	 -0.860069	 -0.006158
O	 -1.481217	 -0.452708	 0.001092
H	 -4.407436	 -0.676822	 -0.880784
H	 -3.443483	 -1.878405	 -0.010516
H	 -4.413508	 -0.686479	 0.866178
C	 -0.332055	 0.384012	 -0.000250
C	 0.892252	 -0.506059	 -0.000295
H	 -0.360822	 1.020205	 -0.874146
H	 -0.359817	 1.021310	 0.872861
C	 2.188199	 0.299473	 -0.001416
H	 0.857046	 -1.152781	 -0.871031
H	 0.857910	 -1.151798	 0.871202
C	 3.437151	 -0.577593	 -0.000991
H	 2.209565	 0.950707	 -0.871712
H	 2.210062	 0.952234	 0.867721
C	 4.732399	 0.226982	 -0.000914
H	 3.417321	 -1.229122	 -0.869998
H	 3.416993	 -1.228707	 0.868337
H	 4.797903	 0.863451	 -0.876963
H	 5.598517	 -0.424436	 -0.000420
H	 4.797415	 0.864118	 0.874691

	symmetry c1
}
set optking {
	frozen_dihedral = ("
		1 2 4 8
	")
}

ee,wfn = optimize('scf', return_wfn=True)
oeprop( wfn, 'DIPOLE', 'QUADRUPOLE', 'MULLIKEN_CHARGES')
f=open( 'psi4out.xyz', 'w' )
f.write( "23  " )
f.write( str(ee) + "\n" )
f.write( MOL.save_string_xyz() )
f.close()
--------------------------------------------------------------------------

    Molecular point group: c1
  Charge       = 0
  Multiplicity = 1
  Basis Set: CC-PVTZ
  Basis Set:
  @DF-RHF Final Energy:  -423.13481460532824
    Total Energy =                       -423.1348146053285291
    Molecular point group: c1
  Basis Set: CC-PVTZ
  Basis Set:
  Basis Set: CC-PVTZ
  Basis Set:
  @DF-RHF Final Energy:  -423.13470119273222
    Total Energy =                       -423.1347011927322228
  Basis Set: CC-PVTZ
  Basis Set:
  Basis Set: CC-PVTZ
  Basis Set:
  @DF-RHF Final Energy:  -423.13481867043504
    Total Energy =                       -423.1348186704352656
  Basis Set: CC-PVTZ
  Basis Set:
  Charge       = 0
  Multiplicity = 1
  Basis Set: CC-PVTZ
  Basis Set:

    Orbital Energies (a.u.)
    -----------------------

    Doubly Occupied:

       1A    -20.595944     2A    -20.529533     3A    -11.366398
       4A    -11.279451     5A    -11.230663     6A    -11.222317
       7A    -11.221350     8A    -11.219477     9A    -11.210902
      10A     -1.471176    11A     -1.364025    12A     -1.095334
      13A     -1.043283    14A     -1.004264    15A     -0.931712
      16A     -0.842344    17A     -0.803095    18A     -0.776077
      19A     -0.694891    20A     -0.688315    21A     -0.671194
      22A     -0.648199    23A     -0.607056    24A     -0.589207
      25A     -0.584100    26A     -0.567188    27A     -0.559684
      28A     -0.538590    29A     -0.524104    30A     -0.505629
      31A     -0.491747    32A     -0.478268    33A     -0.471369
      34A     -0.466881    35A     -0.455248    36A     -0.438915

  @DF-RHF Final Energy:  -423.13481911423423

   => Energetics <=

    Nuclear Repulsion Energy =            450.4621461840267784
    One-Electron Energy =               -1468.8180704246005917
    Two-Electron Energy =                 595.2211051263395802
    DFT Exchange-Correlation Energy =       0.0000000000000000
    Empirical Dispersion Energy =           0.0000000000000000
    PCM Polarization Energy =               0.0000000000000000
    EFP Energy =                            0.0000000000000000
    Total Energy =                       -423.1348191142342330
    Molecular point group: c1
  Basis Set: CC-PVTZ
  Basis Set:

  -Total Gradient:
     Atom            X                  Y                   Z
    ------   -----------------  -----------------  -----------------
       1       -0.000015987933    -0.000039508841     0.000013888401
       2        0.000034299058     0.000048764569    -0.000029885506
       3       -0.000015425486    -0.000000053178     0.000012749154
       4       -0.000058571040    -0.000032117930     0.000013680630
       5        0.000018939284     0.000006657730     0.000005148889
       6        0.000009980058    -0.000001922229     0.000000484261
       7        0.000014773324     0.000004686108    -0.000006772441
       8        0.000028844781     0.000030261389    -0.000029799427
       9       -0.000004388241    -0.000003580932     0.000012576111
      10       -0.000005098674    -0.000005473482     0.000008550034
      11       -0.000012618760    -0.000005493547     0.000003672723
      12       -0.000002639762    -0.000000220253    -0.000003307360
      13        0.000000529279     0.000006560473     0.000002316410
      14        0.000005003246    -0.000003329153    -0.000001590554
      15        0.000001548836     0.000000380226    -0.000004211251
      16       -0.000001955594    -0.000002860195    -0.000000031701
      17       -0.000001644582    -0.000000260101    -0.000002810315
      18        0.000002612565    -0.000003622061     0.000005670783
      19        0.000001526450     0.000002721112     0.000000225593
      20        0.000001897271     0.000000332586    -0.000002191814
      21       -0.000002943386    -0.000003138943     0.000000893259
      22        0.000002144969     0.000000514635     0.000001578524
      23       -0.000000825663     0.000000702016    -0.000000834402

  **** Optimization is complete! (in 4 steps) ****
    Final optimized geometry and variables:
    Molecular point group: c1

    Geometry (in Angstrom), charge = 0, multiplicity = 1:

    O           -2.817162363824     1.304241425019     0.001471130025
    C           -2.664465595242     0.129873463009    -0.000489599397
    C           -3.798076401538    -0.859864796122    -0.001576579847
    O           -1.481188074963    -0.452855148502    -0.001674576386
    H           -4.411332840289    -0.679301074726    -0.874195504228
    H           -3.443870937050    -1.878322656800    -0.004055628907
    H           -4.409689933645    -0.683058302092     0.872973802448
    C           -0.332144983916     0.383687978072    -0.000511182624
    C            0.892205492618    -0.506330197057    -0.000943685922
    H           -0.359726866467     1.021484817570    -0.873353775752
    H           -0.360327805708     1.019730554997     0.873601109041
    C            2.188046781444     0.299410832712     0.000415807411
    H            0.857823949818    -1.151691140156    -0.872780481384
    H            0.857139088407    -1.153537945389     0.869501263556
    C            3.437031538772    -0.577499743947     0.000473756088
    H            2.210031452516     0.952135884712    -0.868824078220
    H            2.209020823480     0.950768656428     0.870705069688
    C            4.732119815900     0.227310269880     0.002682204025
    H            3.417993721132    -1.227797666131    -0.869557221019
    H            3.416392591042    -1.229931909170     0.868868697994
    H            4.798235537817     0.865092513998    -0.872428856932
    H            5.598269262990    -0.424131009131     0.002876254108
    H            4.796434692979     0.863215449960     0.879294279828

  Mulliken Charges: (a.u.)
   Center  Symbol    Alpha    Beta     Spin     Total
       1     O     4.20243  4.20243  0.00000 -0.40485
       2     C     2.81528  2.81528  0.00000  0.36943
       3     C     3.14004  3.14004  0.00000 -0.28009
       4     O     4.14456  4.14456  0.00000 -0.28911
       5     H     0.44212  0.44212  0.00000  0.11577
       6     H     0.44186  0.44186  0.00000  0.11629
       7     H     0.44213  0.44213  0.00000  0.11575
       8     C     2.97899  2.97899  0.00000  0.04202
       9     C     3.08097  3.08097  0.00000 -0.16193
      10     H     0.45405  0.45405  0.00000  0.09190
      11     H     0.45404  0.45404  0.00000  0.09192
      12     C     3.09769  3.09769  0.00000 -0.19538
      13     H     0.45084  0.45084  0.00000  0.09833
      14     H     0.45084  0.45084  0.00000  0.09832
      15     C     3.08502  3.08502  0.00000 -0.17004
      16     H     0.45291  0.45291  0.00000  0.09418
      17     H     0.45291  0.45291  0.00000  0.09417
      18     C     3.14956  3.14956  0.00000 -0.29912
      19     H     0.45349  0.45349  0.00000  0.09303
      20     H     0.45349  0.45349  0.00000  0.09301
      21     H     0.45455  0.45455  0.00000  0.09090
      22     H     0.44769  0.44769  0.00000  0.10461
      23     H     0.45455  0.45455  0.00000  0.09089

   Total alpha = 36.00000, Total beta = 36.00000, Total charge =  0.00000

*** Psi4 exiting successfully. Buy a developer a beer!
