  ==> Input File <==

--------------------------------------------------------------------------
set {
	reference rhf
	basis 6-31G*
}

set_num_threads( 4 )
memory 2 gb

molecule MOL {
0 1

H	 2.380739	 -1.844662	 -0.662409
N	 1.394827	 -1.673993	 -0.676928
C	 1.113269	 -0.374243	 -1.258380
C	 0.840103	 -1.789105	 0.659388
H	 1.528789	 -0.339240	 -2.259823
H	 1.550999	 0.444687	 -0.682718
C	 -0.393324	 -0.173464	 -1.323921
H	 1.057803	 -2.778714	 1.046752
H	 1.261289	 -1.055868	 1.351203
C	 -0.666320	 -1.587449	 0.592660
H	 -0.820201	 -0.900338	 -2.021436
H	 -0.611162	 0.818648	 -1.705767
N	 -0.975995	 -0.298722	 0.000000
H	 -1.081307	 -1.616469	 1.594903
H	 -1.111487	 -2.409055	 0.023548
C	 -2.393863	 -0.024976	 0.000000
H	 -2.854032	 -0.467193	 -0.876721
H	 -2.854032	 -0.467193	 0.876721
H	 -2.623281	 1.044943	 0.000000

	symmetry c1
}
set optking {
	frozen_dihedral = ("
		7 13 16 19
	")
}

ee = optimize('scf')
oeprop('DIPOLE', 'QUADRUPOLE', 'MULLIKEN_CHARGES')
f=open( 'psi4out.xyz', 'w' )
f.write( "19  " )
f.write( str(ee) + "\n" )
f.write( MOL.save_string_xyz() )
f.close()
--------------------------------------------------------------------------

    Molecular point group: c1
  Charge       = 0
  Multiplicity = 1
  Basis Set: 6-31G*
  Basis Set:
  @DF-RHF Final Energy:  -305.19683012103570
    Total Energy =                       -305.1968301210358732
    Molecular point group: c1
  Basis Set: 6-31G*
  Basis Set:
  Basis Set: 6-31G*
  Basis Set:
  @DF-RHF Final Energy:  -305.19770588749867
    Total Energy =                       -305.1977058874992395
  Basis Set: 6-31G*
  Basis Set:
  Basis Set: 6-31G*
  Basis Set:
  @DF-RHF Final Energy:  -305.19781114318772
    Total Energy =                       -305.1978111431877778
  Basis Set: 6-31G*
  Basis Set:
  Charge       = 0
  Multiplicity = 1
  Basis Set: 6-31G*
  Basis Set:

    Orbital Energies (a.u.)
    -----------------------

    Doubly Occupied:

       1A    -15.541225     2A    -15.536401     3A    -11.238400
       4A    -11.238353     5A    -11.237157     6A    -11.236942
       7A    -11.234738     8A     -1.246699     9A     -1.185175
      10A     -1.022424    11A     -0.964350    12A     -0.860139
      13A     -0.857472    14A     -0.757735    15A     -0.691011
      16A     -0.632649    17A     -0.625097    18A     -0.608680
      19A     -0.602367    20A     -0.579421    21A     -0.542614
      22A     -0.532605    23A     -0.510395    24A     -0.489693
      25A     -0.464850    26A     -0.456387    27A     -0.363156
      28A     -0.346667

  @DF-RHF Final Energy:  -305.19781305047843

   => Energetics <=

    Nuclear Repulsion Energy =            339.7600368513727744
    One-Electron Energy =               -1086.7100949809769190
    Two-Electron Energy =                 441.7522450791256574
    DFT Exchange-Correlation Energy =       0.0000000000000000
    Empirical Dispersion Energy =           0.0000000000000000
    PCM Polarization Energy =               0.0000000000000000
    EFP Energy =                            0.0000000000000000
    Total Energy =                       -305.1978130504784872
    Molecular point group: c1
  Basis Set: 6-31G*
  Basis Set:

  -Total Gradient:
     Atom            X                  Y                   Z
    ------   -----------------  -----------------  -----------------
       1       -0.000020892470     0.000010758997    -0.000004046964
       2       -0.000007765108    -0.000011617333    -0.000031389383
       3        0.000063257810     0.000008933078     0.000001122145
       4        0.000034526280    -0.000054532210    -0.000009345855
       5        0.000012812649    -0.000016351216     0.000008454880
       6        0.000005430202     0.000011456046    -0.000005166921
       7       -0.000659287472    -0.003307244630    -0.000469201531
       8        0.000033636804    -0.000011210566    -0.000007874981
       9       -0.000031970925    -0.000008625577    -0.000000430647
      10        0.000005993990     0.000142213286     0.000098178235
      11       -0.000025918164    -0.000009490322     0.000018411573
      12        0.000017559944     0.000004840466    -0.000059327125
      13        0.000743439956     0.004489661411     0.001871767038
      14       -0.000002422989    -0.000046241663     0.000015212136
      15        0.000027208627     0.000014215744     0.000000190056
      16       -0.000106018762    -0.001222376718    -0.006063082319
      17       -0.000031704064    -0.000025383400    -0.000026142924
      18       -0.000001105602     0.000003128193     0.000002765224
      19       -0.000056780708     0.000027866413     0.004659907362

  **** Optimization is complete! (in 4 steps) ****
    Final optimized geometry and variables:
    Molecular point group: c1

    Geometry (in Angstrom), charge = 0, multiplicity = 1:

    H            2.553856744486    -0.983853573794    -0.366937921332
    N            1.566740454891    -0.821118194823    -0.387460254012
    C            1.277488245919     0.477798210429    -0.966579554035
    C            1.003750354358    -0.945751869685     0.944424294061
    H            1.691458521607     0.516508174213    -1.968613060098
    H            1.710676441329     1.298986566799    -0.390825049479
    C           -0.230299155684     0.667856556512    -1.029729614958
    H            1.224016687431    -1.936271713588     1.328271230764
    H            1.416535696668    -0.213991883431     1.642824884836
    C           -0.503487107399    -0.750599841232     0.872428329659
    H           -0.654885350170    -0.067587797202    -1.718908195470
    H           -0.456153096658     1.655161290551    -1.420815094302
    N           -0.814781670953     0.547728938850     0.295189047450
    H           -0.919558198430    -0.794571973505     1.873169257669
    H           -0.940655042367    -1.568189489134     0.291814426803
    C           -2.237429519595     0.819494597100     0.274841344783
    H           -2.752012653422     0.359874386615    -0.571352731128
    H           -2.692433133374     0.441598908164     1.183517198590
    H           -2.413385241987     1.890375580086     0.264173050005

  Mulliken Charges: (a.u.)
   Center  Symbol    Alpha    Beta     Spin     Total
       1     H     0.32956  0.32956  0.00000  0.34088
       2     N     3.85424  3.85424  0.00000 -0.70848
       3     C     3.06299  3.06299  0.00000 -0.12598
       4     C     3.06339  3.06339  0.00000 -0.12678
       5     H     0.41766  0.41766  0.00000  0.16468
       6     H     0.42754  0.42754  0.00000  0.14492
       7     C     3.05709  3.05709  0.00000 -0.11418
       8     H     0.41768  0.41768  0.00000  0.16465
       9     H     0.42757  0.42757  0.00000  0.14487
      10     C     3.05669  3.05669  0.00000 -0.11338
      11     H     0.42729  0.42729  0.00000  0.14541
      12     H     0.41826  0.41826  0.00000  0.16348
      13     N     3.78725  3.78725  0.00000 -0.57449
      14     H     0.41834  0.41834  0.00000  0.16332
      15     H     0.42804  0.42804  0.00000  0.14392
      16     C     3.14074  3.14074  0.00000 -0.28148
      17     H     0.43080  0.43080  0.00000  0.13839
      18     H     0.41921  0.41921  0.00000  0.16158
      19     H     0.41566  0.41566  0.00000  0.16869

   Total alpha = 28.00000, Total beta = 28.00000, Total charge =  0.00000
