  ==> Input File <==

--------------------------------------------------------------------------
set {
	reference rhf
	basis 6-31G*
}

set_num_threads( 4 )
memory 2 gb

molecule MOL {
0 1

H	 2.845955	 -0.323208	 0.022310
C	 1.900140	 0.071967	 -0.330070
C	 0.778463	 -0.508087	 0.517968
H	 1.782469	 -0.206877	 -1.370777
H	 1.922247	 1.149867	 -0.254252
N	 -0.540928	 0.005139	 0.058438
H	 0.716718	 -1.581298	 0.454712
H	 0.859711	 -0.198647	 1.550086
O	 -1.490444	 -0.219856	 0.741863
O	 -0.555686	 0.611793	 -0.969304

	symmetry c1
}
set optking {
	frozen_dihedral = ("
		9 6 3 2
	")
}

ee = optimize('scf')
oeprop('DIPOLE', 'QUADRUPOLE', 'MULLIKEN_CHARGES')
f=open( 'psi4out.xyz', 'w' )
f.write( "10  " )
f.write( str(ee) + "\n" )
f.write( MOL.save_string_xyz() )
f.close()
--------------------------------------------------------------------------

    Molecular point group: c1
  Charge       = 0
  Multiplicity = 1
  Basis Set: 6-31G*
  Basis Set:
  @DF-RHF Final Energy:  -282.69919349920508
    Total Energy =                       -282.6991934992051370
    Molecular point group: c1
  Basis Set: 6-31G*
  Basis Set:
  Basis Set: 6-31G*
  Basis Set:
  @DF-RHF Final Energy:  -282.69931713504531
    Total Energy =                       -282.6993171350453622
  Basis Set: 6-31G*
  Basis Set:
  Basis Set: 6-31G*
  Basis Set:
  @DF-RHF Final Energy:  -282.69603322977071
    Total Energy =                       -282.6960332297708760
  Basis Set: 6-31G*
  Basis Set:
  Basis Set: 6-31G*
  Basis Set:
  @DF-RHF Final Energy:  -282.70023218550847
    Total Energy =                       -282.7002321855084119
  Basis Set: 6-31G*
  Basis Set:
  Basis Set: 6-31G*
  Basis Set:
  @DF-RHF Final Energy:  -282.70030639587742
    Total Energy =                       -282.7003063958774192
  Basis Set: 6-31G*
  Basis Set:
  Basis Set: 6-31G*
  Basis Set:
  @DF-RHF Final Energy:  -282.70037079397105
    Total Energy =                       -282.7003707939711603
  Basis Set: 6-31G*
  Basis Set:
  Charge       = 0
  Multiplicity = 1
  Basis Set: 6-31G*
  Basis Set:

    Orbital Energies (a.u.)
    -----------------------

    Doubly Occupied:

       1A    -20.605741     2A    -20.599557     3A    -15.850196
       4A    -11.305224     5A    -11.246311     6A     -1.633356
       7A     -1.418959     8A     -1.125542     9A     -0.967355
      10A     -0.833410    11A     -0.760096    12A     -0.750028
      13A     -0.727114    14A     -0.637917    15A     -0.594781
      16A     -0.564310    17A     -0.539432    18A     -0.487332
      19A     -0.478383    20A     -0.450378

  @DF-RHF Final Energy:  -282.70037362733706

   => Energetics <=

    Nuclear Repulsion Energy =            186.0843464957462174
    One-Electron Energy =                -754.4185972523697501
    Two-Electron Energy =                 285.6338771292866454
    DFT Exchange-Correlation Energy =       0.0000000000000000
    Empirical Dispersion Energy =           0.0000000000000000
    PCM Polarization Energy =               0.0000000000000000
    EFP Energy =                            0.0000000000000000
    Total Energy =                       -282.7003736273368872
    Molecular point group: c1
  Basis Set: 6-31G*
  Basis Set:

  -Total Gradient:
     Atom            X                  Y                   Z
    ------   -----------------  -----------------  -----------------
       1        0.000004319509     0.000009973757    -0.000003699925
       2        0.000004914316    -0.000001868710    -0.000034690679
       3       -0.000038935508    -0.000003295515     0.000023786342
       4       -0.000004754178     0.000005013887     0.000016625723
       5        0.000032656459     0.000003358033    -0.000020008784
       6       -0.000177859887     0.000177311986     0.000050041990
       7        0.000006189052    -0.000044652053     0.000012463161
       8       -0.000051367278    -0.000003293943    -0.000027932504
       9        0.000067761561    -0.000165217898     0.000132476593
      10        0.000157075957     0.000022670454    -0.000149061915

  **** Optimization is complete! (in 7 steps) ****
    Final optimized geometry and variables:
    Molecular point group: c1

    Geometry (in Angstrom), charge = 0, multiplicity = 1:

    H            2.863440222756    -0.326760721700     0.061970284620
    C            1.934929082005     0.072479203058    -0.331546800770
    C            0.791285401580    -0.480095582463     0.493831228023
    H            1.847280724551    -0.214049324497    -1.370073525271
    H            1.975117454211     1.152483202625    -0.276101925405
    N           -0.546623302645     0.015425510563     0.056061322318
    H            0.712865411624    -1.556761148384     0.428245068795
    H            0.853419000051    -0.213304641878     1.537714027173
    O           -1.459224421865    -0.238537118394     0.781092972734
    O           -0.627492761444     0.603831289647    -0.975978985761

  Mulliken Charges: (a.u.)
   Center  Symbol    Alpha    Beta     Spin     Total
       1     H     0.40986  0.40986  0.00000  0.18028
       2     C     3.24986  3.24986  0.00000 -0.49973
       3     C     3.09546  3.09546  0.00000 -0.19092
       4     H     0.39795  0.39795  0.00000  0.20410
       5     H     0.40156  0.40156  0.00000  0.19688
       6     N     3.22036  3.22036  0.00000  0.55928
       7     H     0.38415  0.38415  0.00000  0.23171
       8     H     0.38477  0.38477  0.00000  0.23047
       9     O     4.22893  4.22893  0.00000 -0.45786
      10     O     4.22711  4.22711  0.00000 -0.45421

   Total alpha = 20.00000, Total beta = 20.00000, Total charge =  0.00000
