  ==> Input File <==

--------------------------------------------------------------------------
set {
	reference rhf
	basis 6-31G*
}

set_num_threads( 4 )
memory 2 gb

molecule MOL {
0 1

O	 2.567217	 -0.016674	 -0.805833
C	 1.705091	 0.115954	 0.001797
C	 0.381791	 -0.609817	 0.001258
O	 1.801240	 0.939375	 1.038074
C	 -0.823008	 0.326187	 0.001381
H	 0.371250	 -1.265087	 -0.865474
H	 0.370908	 -1.265746	 0.867490
C	 -2.149452	 -0.435131	 -0.000098
H	 -0.770201	 0.977095	 -0.865636
H	 -0.771220	 0.975655	 0.869608
C	 -3.368779	 0.488503	 -0.000883
H	 -2.193746	 -1.087250	 -0.871175
H	 -2.195311	 -1.087803	 0.870418
C	 -4.693822	 -0.272754	 -0.001129
H	 -3.325798	 1.139422	 -0.871284
H	 -3.326423	 1.139959	 0.869145
H	 -4.781274	 -0.907928	 -0.878124
H	 -5.538651	 0.408946	 -0.001420
H	 -4.781694	 -0.907783	 0.875984
C	 2.999923	 1.683404	 1.158642
H	 3.849029	 1.022575	 1.257900
H	 2.886783	 2.283161	 2.048230
H	 3.142302	 2.317268	 0.295248

	symmetry c1
}
set optking {
	frozen_dihedral = ("
		1 2 3 6
	")
}

ee = optimize('scf')
oeprop('DIPOLE', 'QUADRUPOLE', 'MULLIKEN_CHARGES')
f=open( 'psi4out.xyz', 'w' )
f.write( "23  " )
f.write( str(ee) + "\n" )
f.write( MOL.save_string_xyz() )
f.close()
--------------------------------------------------------------------------

    Molecular point group: c1
  Charge       = 0
  Multiplicity = 1
  Basis Set: 6-31G*
  Basis Set:
  @DF-RHF Final Energy:  -422.97467428539744
    Total Energy =                       -422.9746742853974411
    Molecular point group: c1
  Basis Set: 6-31G*
  Basis Set:
  Basis Set: 6-31G*
  Basis Set:
  @DF-RHF Final Energy:  -422.97476382204781
    Total Energy =                       -422.9747638220483168
  Basis Set: 6-31G*
  Basis Set:
  Basis Set: 6-31G*
  Basis Set:
  @DF-RHF Final Energy:  -422.97415535804521
    Total Energy =                       -422.9741553580448681
  Basis Set: 6-31G*
  Basis Set:
  Basis Set: 6-31G*
  Basis Set:
  @DF-RHF Final Energy:  -422.97498596128241
    Total Energy =                       -422.9749859612827549
  Basis Set: 6-31G*
  Basis Set:
  Basis Set: 6-31G*
  Basis Set:
  @DF-RHF Final Energy:  -422.97498923980174
    Total Energy =                       -422.9749892398018574
  Basis Set: 6-31G*
  Basis Set:
  Basis Set: 6-31G*
  Basis Set:
  @DF-RHF Final Energy:  -422.97499082862333
    Total Energy =                       -422.9749908286228219
  Basis Set: 6-31G*
  Basis Set:
  Charge       = 0
  Multiplicity = 1
  Basis Set: 6-31G*
  Basis Set:

    Orbital Energies (a.u.)
    -----------------------

    Doubly Occupied:

       1A    -20.604176     2A    -20.543577     3A    -11.370945
       4A    -11.280885     5A    -11.234306     6A    -11.227687
       7A    -11.221482     8A    -11.219920     9A    -11.212048
      10A     -1.468770    11A     -1.361226    12A     -1.096964
      13A     -1.045551    14A     -0.983737    15A     -0.934996
      16A     -0.847640    17A     -0.798345    18A     -0.773475
      19A     -0.693299    20A     -0.680718    21A     -0.672563
      22A     -0.653545    23A     -0.608921    24A     -0.593005
      25A     -0.578421    26A     -0.569972    27A     -0.546462
      28A     -0.530739    29A     -0.523690    30A     -0.506351
      31A     -0.490688    32A     -0.477666    33A     -0.470290
      34A     -0.468582    35A     -0.454242    36A     -0.426662

  @DF-RHF Final Energy:  -422.97499093122121

   => Energetics <=

    Nuclear Repulsion Energy =            454.9668525668475922
    One-Electron Energy =               -1477.5406014970226352
    Two-Electron Energy =                 599.5987579989541700
    DFT Exchange-Correlation Energy =       0.0000000000000000
    Empirical Dispersion Energy =           0.0000000000000000
    PCM Polarization Energy =               0.0000000000000000
    EFP Energy =                            0.0000000000000000
    Total Energy =                       -422.9749909312208729
    Molecular point group: c1
  Basis Set: 6-31G*
  Basis Set:

  -Total Gradient:
     Atom            X                  Y                   Z
    ------   -----------------  -----------------  -----------------
       1        0.000208643066    -0.000362636652     0.000262507256
       2       -0.000333260891     0.000606485256    -0.000434873476
       3        0.000337176016    -0.000557504983     0.000479444613
       4       -0.000010954998    -0.000005749724    -0.000009654391
       5       -0.000003894173     0.000009346525    -0.000027788266
       6       -0.000205270728     0.000336922368    -0.000248491306
       7       -0.000000552887    -0.000008860305    -0.000023785924
       8       -0.000002465938    -0.000004121161    -0.000007202321
       9        0.000009582094    -0.000014843781     0.000014545932
      10        0.000003780754     0.000008150006    -0.000005394871
      11       -0.000000351621    -0.000001612787     0.000013802449
      12       -0.000006259988     0.000000400946    -0.000010729525
      13        0.000003151310    -0.000000863155    -0.000008683241
      14       -0.000000866122    -0.000000485400     0.000002627109
      15        0.000000252898    -0.000005921612     0.000002249207
      16        0.000001455724     0.000005229913     0.000001092106
      17        0.000001408799    -0.000001400325     0.000000042378
      18        0.000000502857     0.000000376611    -0.000001059309
      19       -0.000001770190     0.000000541566     0.000001416750
      20       -0.000001171142    -0.000006536182    -0.000000559286
      21        0.000001149679     0.000001576691     0.000000257287
      22       -0.000000633555     0.000000119482     0.000000217834
      23        0.000000349039     0.000001386704     0.000000018994

  **** Optimization is complete! (in 7 steps) ****
    Final optimized geometry and variables:
    Molecular point group: c1

    Geometry (in Angstrom), charge = 0, multiplicity = 1:

    O            2.686928762768    -0.275132969394    -0.980403463114
    C            1.843935147304    -0.138606652534    -0.153031630536
    C            0.523492008426    -0.868410688609    -0.136168101408
    O            1.973359911827     0.680214652998     0.883623020605
    C           -0.689889741413     0.070597469029    -0.138154291937
    H            0.509463075757    -1.515934759961    -1.003207559920
    H            0.501535253506    -1.492525794363     0.752939410145
    C           -2.012622422245    -0.696552348166    -0.165517999715
    H           -0.634441019669     0.725545147234    -1.004885666583
    H           -0.652547211343     0.708009716893     0.738648831923
    C           -3.236530763172     0.221015108204    -0.166957595223
    H           -2.042296500576    -1.336586605863    -1.045414688029
    H           -2.061950606925    -1.359715967849     0.696593100863
    C           -4.557074432890    -0.547733889095    -0.191093205513
    H           -3.188570119148     0.883092664764    -1.028717553259
    H           -3.207209566625     0.861154739569     0.712045727300
    H           -4.631031093659    -1.172489905634    -1.076674368876
    H           -5.405585872397     0.129254837211    -0.192430714195
    H           -4.650789988429    -1.193772821190     0.677222746742
    C            3.179975958200     1.415667265191     0.974638201497
    H            4.026116491971     0.748272292531     1.052238981955
    H            3.093450275512     2.015617066986     1.867146744555
    H            3.305186457224     2.048736534527     0.108095928757

  Mulliken Charges: (a.u.)
   Center  Symbol    Alpha    Beta     Spin     Total
       1     O     4.28587  4.28587  0.00000 -0.57174
       2     C     2.61347  2.61347  0.00000  0.77305
       3     C     3.19850  3.19850  0.00000 -0.39699
       4     O     4.30261  4.30261  0.00000 -0.60521
       5     C     3.16334  3.16334  0.00000 -0.32668
       6     H     0.39851  0.39851  0.00000  0.20298
       7     H     0.40400  0.40400  0.00000  0.19200
       8     C     3.15247  3.15247  0.00000 -0.30494
       9     H     0.41566  0.41566  0.00000  0.16868
      10     H     0.40759  0.40759  0.00000  0.18482
      11     C     3.15218  3.15218  0.00000 -0.30436
      12     H     0.42118  0.42118  0.00000  0.15764
      13     H     0.42231  0.42231  0.00000  0.15539
      14     C     3.23979  3.23979  0.00000 -0.47958
      15     H     0.42156  0.42156  0.00000  0.15688
      16     H     0.42179  0.42179  0.00000  0.15642
      17     H     0.42094  0.42094  0.00000  0.15812
      18     H     0.41822  0.41822  0.00000  0.16355
      19     H     0.42129  0.42129  0.00000  0.15741
      20     C     3.09222  3.09222  0.00000 -0.18443
      21     H     0.40875  0.40875  0.00000  0.18250
      22     H     0.40890  0.40890  0.00000  0.18221
      23     H     0.40886  0.40886  0.00000  0.18228

   Total alpha = 36.00000, Total beta = 36.00000, Total charge =  0.00000
