                              Psi4 1.0.54 Driver

  ==> Input File <==

--------------------------------------------------------------------------
set {
	reference rhf
	basis cc-pvtz
}

set_num_threads( 4 )
memory 2 gb

molecule MOL {
0 1

O	 -2.817697	 1.304178	 0.001046
C	 -2.664672	 0.129869	 0.003507
C	 -3.797908	 -0.860100	 -0.001145
O	 -1.481217	 -0.452708	 0.001092
H	 -4.408836	 -0.679689	 -0.875387
H	 -3.443486	 -1.878443	 -0.002770
H	 -4.412123	 -0.683688	 0.871605
C	 -0.332055	 0.384012	 -0.000250
C	 0.892252	 -0.506059	 -0.000295
H	 -0.360822	 1.020205	 -0.874146
H	 -0.359817	 1.021310	 0.872861
C	 2.188199	 0.299473	 -0.001416
H	 0.857046	 -1.152781	 -0.871031
H	 0.857910	 -1.151798	 0.871202
C	 2.865541	 0.340116	 -1.368414
H	 1.983668	 1.315799	 0.326038
H	 2.877508	 -0.121757	 0.726177
C	 4.161222	 1.143991	 -1.369691
H	 2.178321	 0.762486	 -2.096004
H	 3.070565	 -0.674940	 -1.696612
H	 3.983286	 2.173732	 -1.078459
H	 4.616092	 1.152824	 -2.353318
H	 4.882329	 0.725349	 -0.675719

	symmetry c1
}
set optking {
	frozen_dihedral = ("
		16 12 9 13
	")
}

ee,wfn = optimize('scf', return_wfn=True)
oeprop( wfn, 'DIPOLE', 'QUADRUPOLE', 'MULLIKEN_CHARGES')
f=open( 'psi4out.xyz', 'w' )
f.write( "23  " )
f.write( str(ee) + "\n" )
f.write( MOL.save_string_xyz() )
f.close()
--------------------------------------------------------------------------

    Molecular point group: c1
  Charge       = 0
  Multiplicity = 1
  Basis Set: CC-PVTZ
  Basis Set:
  @DF-RHF Final Energy:  -423.13039289210280
    Total Energy =                       -423.1303928921024635
    Molecular point group: c1
  Basis Set: CC-PVTZ
  Basis Set:
  Basis Set: CC-PVTZ
  Basis Set:
  @DF-RHF Final Energy:  -423.13046729927817
    Total Energy =                       -423.1304672992783935
  Basis Set: CC-PVTZ
  Basis Set:
  Basis Set: CC-PVTZ
  Basis Set:
  @DF-RHF Final Energy:  -423.13058773523608
    Total Energy =                       -423.1305877352363041
  Basis Set: CC-PVTZ
  Basis Set:
  Basis Set: CC-PVTZ
  Basis Set:
  @DF-RHF Final Energy:  -423.13070506379319
    Total Energy =                       -423.1307050637931297
  Basis Set: CC-PVTZ
  Basis Set:
  Basis Set: CC-PVTZ
  Basis Set:
  @DF-RHF Final Energy:  -423.13072820784674
    Total Energy =                       -423.1307282078463459
  Basis Set: CC-PVTZ
  Basis Set:
  Basis Set: CC-PVTZ
  Basis Set:
  @DF-RHF Final Energy:  -423.13073064778877
    Total Energy =                       -423.1307306477889369
  Basis Set: CC-PVTZ
  Basis Set:
  Charge       = 0
  Multiplicity = 1
  Basis Set: CC-PVTZ
  Basis Set:

    Orbital Energies (a.u.)
    -----------------------

    Doubly Occupied:

       1A    -20.595931     2A    -20.529672     3A    -11.366558
       4A    -11.279699     5A    -11.230741     6A    -11.222184
       7A    -11.221379     8A    -11.219530     9A    -11.210599
      10A     -1.471292    11A     -1.364149    12A     -1.094256
      13A     -1.042322    14A     -1.003523    15A     -0.930954
      16A     -0.845692    17A     -0.799416    18A     -0.779827
      19A     -0.691556    20A     -0.688205    21A     -0.675379
      22A     -0.635750    23A     -0.616665    24A     -0.586984
      25A     -0.580633    26A     -0.572418    27A     -0.561374
      28A     -0.532799    29A     -0.527525    30A     -0.504234
      31A     -0.496801    32A     -0.478376    33A     -0.469076
      34A     -0.464337    35A     -0.452616    36A     -0.439235

  @DF-RHF Final Energy:  -423.13073074734359

   => Energetics <=

    Nuclear Repulsion Energy =            454.2757822123838878
    One-Electron Energy =               -1476.4496483250384244
    Two-Electron Energy =                 599.0431353653111728
    DFT Exchange-Correlation Energy =       0.0000000000000000
    Empirical Dispersion Energy =           0.0000000000000000
    PCM Polarization Energy =               0.0000000000000000
    EFP Energy =                            0.0000000000000000
    Total Energy =                       -423.1307307473433639
    Molecular point group: c1
  Basis Set: CC-PVTZ
  Basis Set:

  -Total Gradient:
     Atom            X                  Y                   Z
    ------   -----------------  -----------------  -----------------
       1       -0.000020834460     0.000011143069     0.000001172619
       2        0.000022729765    -0.000004149025     0.000008639991
       3       -0.000000078273     0.000002798781    -0.000000450014
       4        0.000013232961    -0.000003174579     0.000008715650
       5       -0.000004907754    -0.000001138151    -0.000006401726
       6        0.000002335875     0.000003268704     0.000000220486
       7       -0.000001877181     0.000001127680     0.000001820250
       8       -0.000002303995     0.000009307603    -0.000033298212
       9        0.001342612236    -0.002114005699     0.001043498769
      10       -0.000000696061    -0.000003940528     0.000008864572
      11       -0.000013252141    -0.000002206825     0.000006051737
      12        0.000308030457    -0.000369551858     0.002623593624
      13       -0.001167431607     0.001809599089    -0.001284665807
      14       -0.000004437452     0.000001091373    -0.000004476260
      15        0.000027336988    -0.000004966509    -0.000006797309
      16       -0.000484524603     0.000662616785    -0.002350571970
      17        0.000000656538     0.000007756205    -0.000009476500
      18       -0.000018121095     0.000000405111    -0.000005139938
      19        0.000012482327     0.000003968983     0.000006196054
      20        0.000000682950    -0.000001729019    -0.000006659940
      21        0.000000222339    -0.000002781152     0.000001930513
      22       -0.000003113385    -0.000001404358    -0.000000459761
      23       -0.000008744439    -0.000004035679    -0.000002306827

  **** Optimization is complete! (in 7 steps) ****
    Final optimized geometry and variables:
    Molecular point group: c1

    Geometry (in Angstrom), charge = 0, multiplicity = 1:

    O           -2.666226904016     1.107242365274     0.310826561466
    C           -2.524753463714    -0.068469318299     0.295113617929
    C           -3.667491325748    -1.046793099479     0.254278891782
    O           -1.347117146576    -0.662570499490     0.311322694902
    H           -4.259475298136    -0.847578380853    -0.628944745576
    H           -3.323095565742    -2.068557177269     0.244652562315
    H           -4.296791535983    -0.876729807491     1.117576427332
    C           -0.190710364361     0.161900404895     0.351982472837
    C            1.027705452916    -0.739428109637     0.361419067846
    H           -0.193724271673     0.816591341034    -0.509035789353
    H           -0.230411226479     0.781618256625     1.237110829650
    C            2.334486356541     0.071292005995     0.320157890437
    H            0.965413315561    -1.392343802514    -0.501978930760
    H            0.987270469797    -1.368404898609     1.242215475583
    C            2.968832033862     0.127313809058    -1.069432997388
    H            2.142614699035     1.090425033301     0.646010952211
    H            3.051146127589    -0.344752704321     1.019158982697
    C            4.229539177281     0.982966786843    -1.116731953956
    H            2.244428907481     0.513478073324    -1.781620799140
    H            3.204622203809    -0.882291850718    -1.393371175447
    H            4.017495203956     2.009310636462    -0.836373777609
    H            4.658817919576     0.994231358259    -2.111809925319
    H            4.984310368743     0.604718160504    -0.435196291787

  Mulliken Charges: (a.u.)
   Center  Symbol    Alpha    Beta     Spin     Total
       1     O     4.20236  4.20236  0.00000 -0.40471
       2     C     2.81476  2.81476  0.00000  0.37047
       3     C     3.13972  3.13972  0.00000 -0.27944
       4     O     4.14562  4.14562  0.00000 -0.29124
       5     H     0.44217  0.44217  0.00000  0.11567
       6     H     0.44182  0.44182  0.00000  0.11637
       7     H     0.44212  0.44212  0.00000  0.11576
       8     C     2.97659  2.97659  0.00000  0.04682
       9     C     3.09069  3.09069  0.00000 -0.18138
      10     H     0.45386  0.45386  0.00000  0.09229
      11     H     0.45341  0.45341  0.00000  0.09318
      12     C     3.10646  3.10646  0.00000 -0.21292
      13     H     0.45142  0.45142  0.00000  0.09716
      14     H     0.44411  0.44411  0.00000  0.11177
      15     C     3.08247  3.08247  0.00000 -0.16494
      16     H     0.45462  0.45462  0.00000  0.09077
      17     H     0.44458  0.44458  0.00000  0.11084
      18     C     3.15016  3.15016  0.00000 -0.30033
      19     H     0.45366  0.45366  0.00000  0.09267
      20     H     0.45293  0.45293  0.00000  0.09413
      21     H     0.45408  0.45408  0.00000  0.09184
      22     H     0.44762  0.44762  0.00000  0.10476
      23     H     0.45478  0.45478  0.00000  0.09045

   Total alpha = 36.00000, Total beta = 36.00000, Total charge = -0.00000

*** Psi4 exiting successfully. Buy a developer a beer!
