  ==> Input File <==

--------------------------------------------------------------------------
set {
	reference rhf
	basis cc-pvtz
}

set_num_threads( 4 )
memory 2 gb

molecule MOL {
0 1

O	 1.427781	 -0.024807	 -0.810650
C	 0.576499	 0.134701	 -0.003900
C	 -0.765656	 -0.550508	 -0.002152
O	 0.694345	 0.963031	 1.020773
C	 -1.945526	 0.411052	 0.000603
H	 -0.794329	 -1.203792	 -0.868145
H	 -0.791555	 -1.205429	 0.862701
C	 -3.282915	 -0.321280	 0.002596
H	 -1.880300	 1.059126	 -0.864925
H	 -1.877207	 1.057892	 0.866807
H	 -3.388495	 -0.952755	 -0.873419
H	 -4.107811	 0.380864	 0.004116
H	 -3.385717	 -0.953283	 0.878571
C	 1.907139	 1.679193	 1.140159
H	 2.740898	 1.001402	 1.247400
H	 1.806512	 2.288492	 2.023515
H	 2.068584	 2.302573	 0.273340

	symmetry c1
}
set optking {
	frozen_dihedral = ("
		1 2 3 6
	")
}

ee = optimize('scf')
oeprop('DIPOLE', 'QUADRUPOLE', 'MULLIKEN_CHARGES')
f=open( 'psi4out.xyz', 'w' )
f.write( "17  " )
f.write( str(ee) + "\n" )
f.write( MOL.save_string_xyz() )
f.close()
--------------------------------------------------------------------------

    Molecular point group: c1
  Charge       = 0
  Multiplicity = 1
  Basis Set: CC-PVTZ
  Basis Set:
  @DF-RHF Final Energy:  -345.03370440658881
    Total Energy =                       -345.0337044065890382
    Molecular point group: c1
  Basis Set: CC-PVTZ
  Basis Set:
  Basis Set: CC-PVTZ
  Basis Set:
  @DF-RHF Final Energy:  -345.03319759943474
    Total Energy =                       -345.0331975994346294
  Basis Set: CC-PVTZ
  Basis Set:
  Basis Set: CC-PVTZ
  Basis Set:
  @DF-RHF Final Energy:  -345.03388156571947
    Total Energy =                       -345.0338815657195255
  Basis Set: CC-PVTZ
  Basis Set:
  Basis Set: CC-PVTZ
  Basis Set:
  @DF-RHF Final Energy:  -345.03405931612491
    Total Energy =                       -345.0340593161247966
  Basis Set: CC-PVTZ
  Basis Set:
  Basis Set: CC-PVTZ
  Basis Set:
  @DF-RHF Final Energy:  -345.03406086407273
    Total Energy =                       -345.0340608640726714
  Basis Set: CC-PVTZ
  Basis Set:
  Charge       = 0
  Multiplicity = 1
  Basis Set: CC-PVTZ
  Basis Set:

    Orbital Energies (a.u.)
    -----------------------

    Doubly Occupied:

       1A    -20.597386     2A    -20.533076     3A    -11.363955
       4A    -11.278980     5A    -11.233359     6A    -11.228837
       7A    -11.216469     8A     -1.472381     9A     -1.364954
      10A     -1.085451    11A     -0.999843    12A     -0.942670
      13A     -0.831901    14A     -0.776450    15A     -0.699271
      16A     -0.683908    17A     -0.676416    18A     -0.638931
      19A     -0.597341    20A     -0.578805    21A     -0.551260
      22A     -0.546074    23A     -0.526972    24A     -0.511693
      25A     -0.489919    26A     -0.483885    27A     -0.459258
      28A     -0.434845

  @DF-RHF Final Energy:  -345.03406108191137

   => Energetics <=

    Nuclear Repulsion Energy =            314.7427514505273507
    One-Electron Energy =               -1093.9450505600950692
    Two-Electron Energy =                 434.1682380276565141
    DFT Exchange-Correlation Energy =       0.0000000000000000
    Empirical Dispersion Energy =           0.0000000000000000
    PCM Polarization Energy =               0.0000000000000000
    EFP Energy =                            0.0000000000000000
    Total Energy =                       -345.0340610819112612
    Molecular point group: c1
  Basis Set: CC-PVTZ
  Basis Set:

  -Total Gradient:
     Atom            X                  Y                   Z
    ------   -----------------  -----------------  -----------------
       1        0.000223072982    -0.000441316195     0.000331083944
       2       -0.000370447171     0.000702191556    -0.000553806187
       3        0.000365679436    -0.000682666956     0.000502593938
       4        0.000003452901     0.000017472829     0.000015661648
       5        0.000024089869    -0.000018917038     0.000004987155
       6       -0.000218533510     0.000415551780    -0.000299812532
       7       -0.000002254587     0.000000845131    -0.000000782604
       8       -0.000013485436     0.000004209343    -0.000005207531
       9       -0.000011935620    -0.000005385428     0.000004788910
      10       -0.000000441761     0.000004355563     0.000000631476
      11        0.000004164691     0.000002120473     0.000000830470
      12       -0.000005345764     0.000000122398     0.000000822183
      13        0.000007652531     0.000003738275    -0.000001881456
      14       -0.000009322011    -0.000005984066    -0.000003462481
      15        0.000002190447     0.000001225890     0.000001457475
      16       -0.000000964773     0.000000023560     0.000001322662
      17        0.000002427777     0.000002412886     0.000000772931

  **** Optimization is complete! (in 6 steps) ****
    Final optimized geometry and variables:
    Molecular point group: c1

    Geometry (in Angstrom), charge = 0, multiplicity = 1:

    O            1.579355559174    -0.354986953614    -1.021940599162
    C            0.743371897814    -0.194668029157    -0.198807082063
    C           -0.591225989624    -0.894152634270    -0.184202844335
    O            0.891629837731     0.620989621049     0.832120712494
    C           -1.784979127927     0.064003900634    -0.194183336967
    H           -0.616196023808    -1.542604805830    -1.048111159228
    H           -0.627981725846    -1.513489940049     0.706222281284
    C           -3.114629577761    -0.681061950832    -0.224022699012
    H           -1.714535202723     0.712743536441    -1.061849922231
    H           -1.741316276351     0.703231218500     0.678313024170
    H           -3.194237908286    -1.308608004574    -1.104935217783
    H           -3.946592551213     0.012828448845    -0.235236544898
    H           -3.225677161600    -1.317595025439     0.647371919958
    C            2.111509208743     1.327972136161     0.929995688346
    H            2.942729068574     0.643513085404     1.011807842816
    H            2.035913409309     1.930379515816     1.820697121562
    H            2.257410772617     1.957615481616     0.064941869609

  Mulliken Charges: (a.u.)
   Center  Symbol    Alpha    Beta     Spin     Total
       1     O     4.19925  4.19925  0.00000 -0.39849
       2     C     2.80921  2.80921  0.00000  0.38158
       3     C     3.07858  3.07858  0.00000 -0.15716
       4     O     4.14936  4.14936  0.00000 -0.29873
       5     C     3.09142  3.09142  0.00000 -0.18284
       6     H     0.43721  0.43721  0.00000  0.12559
       7     H     0.44771  0.44771  0.00000  0.10457
       8     C     3.15133  3.15133  0.00000 -0.30267
       9     H     0.44932  0.44932  0.00000  0.10137
      10     H     0.44348  0.44348  0.00000  0.11303
      11     H     0.45303  0.45303  0.00000  0.09393
      12     H     0.44614  0.44614  0.00000  0.10772
      13     H     0.45440  0.45440  0.00000  0.09121
      14     C     3.03678  3.03678  0.00000 -0.07356
      15     H     0.45289  0.45289  0.00000  0.09422
      16     H     0.44569  0.44569  0.00000  0.10863
      17     H     0.45420  0.45420  0.00000  0.09160

   Total alpha = 28.00000, Total beta = 28.00000, Total charge = -0.00000
