                              Psi4 1.0.54 Driver

  ==> Input File <==

--------------------------------------------------------------------------
set {
	reference rhf
	basis cc-pvtz
}

set_num_threads( 4 )
memory 2 gb

molecule MOL {
0 1

H	 1.651322	 -0.822465	 0.000000
O	 0.729993	 -1.034364	 0.000000
C	 0.037305	 0.100061	 0.000000
C	 -1.283026	 -0.047514	 -0.694999
O	 0.445205	 1.090696	 0.499054
H	 -1.119751	 -0.360891	 -1.718036
H	 -1.810107	 0.891840	 -0.672089
H	 -1.865682	 -0.816362	 -0.204232

	symmetry c1
}
set optking {
	frozen_dihedral = ("
		4 3 2 1
	")
}

ee,wfn = optimize('scf', return_wfn=True)
oeprop( wfn, 'DIPOLE', 'QUADRUPOLE', 'MULLIKEN_CHARGES')
f=open( 'psi4out.xyz', 'w' )
f.write( "8  " )
f.write( str(ee) + "\n" )
f.write( MOL.save_string_xyz() )
f.close()
--------------------------------------------------------------------------

    Molecular point group: c1
  Charge       = 0
  Multiplicity = 1
  Basis Set: CC-PVTZ
  Basis Set:
  @DF-RHF Final Energy:  -227.89960267568176
    Total Energy =                       -227.8996026756818765
    Molecular point group: c1
  Basis Set: CC-PVTZ
  Basis Set:
  Basis Set: CC-PVTZ
  Basis Set:
  @DF-RHF Final Energy:  -227.89679148800070
    Total Energy =                       -227.8967914880007015
  Basis Set: CC-PVTZ
  Basis Set:
  Basis Set: CC-PVTZ
  Basis Set:
  @DF-RHF Final Energy:  -227.89993419805836
    Total Energy =                       -227.8999341980583608
  Basis Set: CC-PVTZ
  Basis Set:
  Basis Set: CC-PVTZ
  Basis Set:
  @DF-RHF Final Energy:  -227.90006753783192
    Total Energy =                       -227.9000675378318874
  Basis Set: CC-PVTZ
  Basis Set:
  Basis Set: CC-PVTZ
  Basis Set:
  @DF-RHF Final Energy:  -227.90014004867788
    Total Energy =                       -227.9001400486778266
  Basis Set: CC-PVTZ
  Basis Set:
  Basis Set: CC-PVTZ
  Basis Set:
  @DF-RHF Final Energy:  -227.90017638933085
    Total Energy =                       -227.9001763893309089
  Basis Set: CC-PVTZ
  Basis Set:
  Basis Set: CC-PVTZ
  Basis Set:
  @DF-RHF Final Energy:  -227.90018238937648
    Total Energy =                       -227.9001823893765959
  Basis Set: CC-PVTZ
  Basis Set:
  Charge       = 0
  Multiplicity = 1
  Basis Set: CC-PVTZ
  Basis Set:

    Orbital Energies (a.u.)
    -----------------------

    Doubly Occupied:

       1A    -20.603261     2A    -20.544038     3A    -11.378794
       4A    -11.239584     5A     -1.477002     6A     -1.372232
       7A     -1.027531     8A     -0.833727     9A     -0.707329
      10A     -0.684690    11A     -0.659003    12A     -0.584396
      13A     -0.578382    14A     -0.552945    15A     -0.487840
      16A     -0.452469

  @DF-RHF Final Energy:  -227.90018257746010

   => Energetics <=

    Nuclear Repulsion Energy =            122.6607131673833209
    One-Electron Energy =                -554.7553446376468855
    Two-Electron Energy =                 204.1944488928034502
    DFT Exchange-Correlation Energy =       0.0000000000000000
    Empirical Dispersion Energy =           0.0000000000000000
    PCM Polarization Energy =               0.0000000000000000
    EFP Energy =                            0.0000000000000000
    Total Energy =                       -227.9001825774601002
    Molecular point group: c1
  Basis Set: CC-PVTZ
  Basis Set:

  -Total Gradient:
     Atom            X                  Y                   Z
    ------   -----------------  -----------------  -----------------
       1       -0.000072239549    -0.000794860632    -0.009604087361
       2        0.001172653776     0.001317902100     0.009466203018
       3       -0.003565124956    -0.001663826764     0.005679051048
       4        0.002610747722     0.001071496593    -0.005503416754
       5       -0.000193131872    -0.000007061789    -0.000071313235
       6        0.000007125203     0.000035309343     0.000050879093
       7        0.000005690089    -0.000055356246    -0.000014091753
       8        0.000034279588     0.000096397395    -0.000003224057

  **** Optimization is complete! (in 8 steps) ****
    Final optimized geometry and variables:
    Molecular point group: c1

    Geometry (in Angstrom), charge = 0, multiplicity = 1:

    H            1.609965409266    -0.890572675975     0.131228025970
    O            0.681462029725    -1.063329311733     0.152666624067
    C            0.020317573505     0.093586516354     0.060918378550
    C           -1.309959391373    -0.066604639943    -0.612438591718
    O            0.490854897552     1.120433294308     0.402642210266
    H           -1.125263239939    -0.249360349143    -1.664103869531
    H           -1.891965906490     0.832939909356    -0.496027476238
    H           -1.842712439474    -0.920557107021    -0.217394164965

  Mulliken Charges: (a.u.)
   Center  Symbol    Alpha    Beta     Spin     Total
       1     H     0.37849  0.37849  0.00000  0.24301
       2     O     4.16696  4.16696  0.00000 -0.33392
       3     C     2.80371  2.80371  0.00000  0.39259
       4     C     3.13708  3.13708  0.00000 -0.27416
       5     O     4.18563  4.18563  0.00000 -0.37126
       6     H     0.44592  0.44592  0.00000  0.10816
       7     H     0.43823  0.43823  0.00000  0.12354
       8     H     0.44399  0.44399  0.00000  0.11203

   Total alpha = 16.00000, Total beta = 16.00000, Total charge = -0.00000

*** Psi4 exiting successfully. Buy a developer a beer!
