  ==> Input File <==

--------------------------------------------------------------------------
set {
	reference rhf
	basis cc-pvtz
}

set_num_threads( 4 )
memory 2 gb

molecule MOL {
0 1

H	 0.749512	 -0.012975	 2.377181
C	 -0.214900	 -0.014290	 1.890746
O	 -0.000000	 0.000000	 0.518769
H	 -0.761475	 -0.903056	 2.199303
H	 -0.772298	 0.861712	 2.215989
C	 -1.165153	 0.000000	 -0.236961
H	 -1.229451	 0.882440	 -0.870223
H	 -2.002557	 0.000000	 0.445289
H	 -1.229451	 -0.882440	 -0.870223

	symmetry c1
}
set optking {
	frozen_dihedral = ("
		2 3 6 7
	")
}

ee = optimize('scf')
oeprop('DIPOLE', 'QUADRUPOLE', 'MULLIKEN_CHARGES')
f=open( 'psi4out.xyz', 'w' )
f.write( "9  " )
f.write( str(ee) + "\n" )
f.write( MOL.save_string_xyz() )
f.close()
--------------------------------------------------------------------------

    Molecular point group: c1
  Charge       = 0
  Multiplicity = 1
  Basis Set: CC-PVTZ
  Basis Set:
  @DF-RHF Final Energy:  -154.12233579082124
    Total Energy =                       -154.1223357908213529
    Molecular point group: c1
  Basis Set: CC-PVTZ
  Basis Set:
  Basis Set: CC-PVTZ
  Basis Set:
  @DF-RHF Final Energy:  -154.12318455639621
    Total Energy =                       -154.1231845563962679
  Basis Set: CC-PVTZ
  Basis Set:
  Basis Set: CC-PVTZ
  Basis Set:
  @DF-RHF Final Energy:  -154.12344319484777
    Total Energy =                       -154.1234431948477379
  Basis Set: CC-PVTZ
  Basis Set:
  Charge       = 0
  Multiplicity = 1
  Basis Set: CC-PVTZ
  Basis Set:

    Orbital Energies (a.u.)
    -----------------------

    Doubly Occupied:

       1A    -20.546517     2A    -11.263592     3A    -11.262624
       4A     -1.377622     5A     -0.975835     6A     -0.872573
       7A     -0.658604     8A     -0.654924     9A     -0.644700
      10A     -0.559079    11A     -0.527796    12A     -0.475250
      13A     -0.414658

  @DF-RHF Final Energy:  -154.12344540687528

   => Energetics <=

    Nuclear Repulsion Energy =             84.5740477405343825
    One-Electron Energy =                -376.9274395663637165
    Two-Electron Energy =                 138.2299464189539435
    DFT Exchange-Correlation Energy =       0.0000000000000000
    Empirical Dispersion Energy =           0.0000000000000000
    PCM Polarization Energy =               0.0000000000000000
    EFP Energy =                            0.0000000000000000
    Total Energy =                       -154.1234454068754189
    Molecular point group: c1
  Basis Set: CC-PVTZ
  Basis Set:

  -Total Gradient:
     Atom            X                  Y                   Z
    ------   -----------------  -----------------  -----------------
       1        0.000009920050    -0.000000806117    -0.000006052562
       2        0.000003354416    -0.000031420158     0.000061539291
       3       -0.000094014814     0.000106023390    -0.000143362831
       4       -0.000002405574     0.000010210877    -0.000043044836
       5        0.000000781171    -0.000013427624    -0.000036180650
       6        0.000005438378    -0.000053269051     0.000228699666
       7        0.000105458908    -0.000027569487    -0.000017543662
       8       -0.000041883865     0.000005518526    -0.000009855916
       9        0.000013351331     0.000004739644    -0.000034198501

  **** Optimization is complete! (in 4 steps) ****
    Final optimized geometry and variables:
    Molecular point group: c1

    Geometry (in Angstrom), charge = 0, multiplicity = 1:

    H            1.257017807305    -0.008508698912     1.628531057366
    C            0.279301016683    -0.005927055150     1.168410309676
    O            0.462313198352     0.001125309632    -0.209083300497
    H           -0.261675686464    -0.890167556825     1.497564636892
    H           -0.261314721152     0.875039128028     1.506845749102
    C           -0.701585893935     0.004908276217    -0.977890750285
    H           -0.726876310169     0.891503868280    -1.601269904534
    H           -1.595579093559    -0.004627542437    -0.362705559492
    H           -0.720744257064    -0.868968252400    -1.619146026999

  Mulliken Charges: (a.u.)
   Center  Symbol    Alpha    Beta     Spin     Total
       1     H     0.44986  0.44986  0.00000  0.10027
       2     C     3.02075  3.02075  0.00000 -0.04150
       3     O     4.17298  4.17298  0.00000 -0.34597
       4     H     0.47307  0.47307  0.00000  0.05387
       5     H     0.47308  0.47308  0.00000  0.05384
       6     C     3.01610  3.01610  0.00000 -0.03221
       7     H     0.45983  0.45983  0.00000  0.08033
       8     H     0.47464  0.47464  0.00000  0.05073
       9     H     0.45968  0.45968  0.00000  0.08064

   Total alpha = 13.00000, Total beta = 13.00000, Total charge = -0.00000
