  ==> Input File <==

--------------------------------------------------------------------------
set {
	reference rhf
	basis 6-31G*
}

set_num_threads( 4 )
memory 2 gb

molecule MOL {
0 1

O	 -1.448904	 0.337868	 2.578750
C	 -0.620349	 1.039576	 2.083234
C	 0.647897	 0.448932	 1.492472
C	 -0.802311	 2.538021	 1.988745
C	 0.379448	 -0.143569	 0.099626
H	 0.987340	 -0.335519	 2.160094
H	 1.428071	 1.202344	 1.431440
C	 1.631333	 -0.777471	 -0.511575
H	 -0.413882	 -0.876792	 0.191262
H	 0.011602	 0.636159	 -0.565549
C	 2.915987	 -0.544314	 0.291766
H	 1.766672	 -0.399098	 -1.523130
H	 1.471257	 -1.849544	 -0.605828
C	 3.373361	 0.914346	 0.347591
H	 3.708709	 -1.142521	 -0.150311
H	 2.780642	 -0.921148	 1.303579
H	 3.506512	 1.320010	 -0.651625
H	 4.322697	 0.999599	 0.867103
H	 2.660624	 1.545032	 0.868198
H	 -0.062504	 3.035724	 2.610228
H	 -1.793686	 2.812325	 2.321486
H	 -0.646984	 2.880654	 0.969784

	symmetry c1
}
set optking {
	frozen_dihedral = ("
		3 5 8 12
	")
}

ee = optimize('scf')
oeprop('DIPOLE', 'QUADRUPOLE', 'MULLIKEN_CHARGES')
f=open( 'psi4out.xyz', 'w' )
f.write( "22  " )
f.write( str(ee) + "\n" )
f.write( MOL.save_string_xyz() )
f.close()
--------------------------------------------------------------------------

    Molecular point group: c1
  Charge       = 0
  Multiplicity = 1
  Basis Set: 6-31G*
  Basis Set:
  @DF-RHF Final Energy:  -348.06825668839105
    Total Energy =                       -348.0682566883912159
    Molecular point group: c1
  Basis Set: 6-31G*
  Basis Set:
  Basis Set: 6-31G*
  Basis Set:
  @DF-RHF Final Energy:  -348.08265628151048
    Total Energy =                       -348.0826562815105945
  Basis Set: 6-31G*
  Basis Set:
  Basis Set: 6-31G*
  Basis Set:
  @DF-RHF Final Energy:  -348.08591930887604
    Total Energy =                       -348.0859193088758730
  Basis Set: 6-31G*
  Basis Set:
  Basis Set: 6-31G*
  Basis Set:
  @DF-RHF Final Energy:  -348.08606070663365
    Total Energy =                       -348.0860607066339298
  Basis Set: 6-31G*
  Basis Set:
  @DF-RHF Final Energy:  -348.08676456969988
    Total Energy =                       -348.0867645696998238
  @DF-RHF Final Energy:  -348.08700900983132
    Total Energy =                       -348.0870090098310357
  @DF-RHF Final Energy:  -348.08698380732181
    Total Energy =                       -348.0869838073218148
  @DF-RHF Final Energy:  -348.08685501448622
    Total Energy =                       -348.0868550144861047
  Basis Set: 6-31G*
  Basis Set:
  @DF-RHF Final Energy:  -348.08705071493705
    Total Energy =                       -348.0870507149375612
  Basis Set: 6-31G*
  Basis Set:
  Basis Set: 6-31G*
  Basis Set:
  @DF-RHF Final Energy:  -348.08701307919267
    Total Energy =                       -348.0870130791925590
  Basis Set: 6-31G*
  Basis Set:
  Basis Set: 6-31G*
  Basis Set:
  @DF-RHF Final Energy:  -348.08711488234690
    Total Energy =                       -348.0871148823471231
  Basis Set: 6-31G*
  Basis Set:
  Charge       = 0
  Multiplicity = 1
  Basis Set: 6-31G*
  Basis Set:

    Orbital Energies (a.u.)
    -----------------------

    Doubly Occupied:

       1A    -20.547363     2A    -11.324504     3A    -11.230345
       4A    -11.228789     5A    -11.228345     6A    -11.223048
       7A    -11.221999     8A    -11.215480     9A     -1.393214
      10A     -1.092129    11A     -1.042386    12A     -0.998664
      13A     -0.943456    14A     -0.861484    15A     -0.780645
      16A     -0.733604    17A     -0.661568    18A     -0.653050
      19A     -0.620763    20A     -0.611400    21A     -0.603656
      22A     -0.580829    23A     -0.560576    24A     -0.550643
      25A     -0.535644    26A     -0.520287    27A     -0.507414
      28A     -0.490093    29A     -0.464920    30A     -0.457790
      31A     -0.454965    32A     -0.397050

  @DF-RHF Final Energy:  -348.08711556299755

   => Energetics <=

    Nuclear Repulsion Energy =            379.3485954951790404
    One-Electron Energy =               -1223.3992119993613414
    Two-Electron Energy =                 495.9635009411848046
    DFT Exchange-Correlation Energy =       0.0000000000000000
    Empirical Dispersion Energy =           0.0000000000000000
    PCM Polarization Energy =               0.0000000000000000
    EFP Energy =                            0.0000000000000000
    Total Energy =                       -348.0871155629974396
    Molecular point group: c1
  Basis Set: 6-31G*
  Basis Set:

  -Total Gradient:
     Atom            X                  Y                   Z
    ------   -----------------  -----------------  -----------------
       1       -0.000032361493     0.000010132709     0.000077344663
       2       -0.000047610733    -0.000040162894    -0.000182374693
       3        0.000996321330     0.003264294271    -0.001288729618
       4        0.000019290433    -0.000008453049     0.000072118357
       5       -0.000816402768    -0.004057216604     0.002375251864
       6       -0.000021039431    -0.000008324743     0.000011857208
       7        0.000074689086     0.000087140603     0.000015208474
       8       -0.002963948349    -0.002773777278    -0.003017712647
       9        0.000010383392    -0.000008611139    -0.000026663614
      10        0.000041486148    -0.000032842282    -0.000037240137
      11       -0.000028526890     0.000082416921     0.000069539642
      12        0.002749983598     0.003472692116     0.001990975552
      13       -0.000148654756    -0.000002743383    -0.000010761700
      14        0.000088154935    -0.000077240888    -0.000009520972
      15        0.000012256674     0.000087133385    -0.000022920237
      16        0.000019070000    -0.000068828879     0.000000074658
      17        0.000056472396     0.000009235002    -0.000023774468
      18        0.000033129379     0.000069223449     0.000007332796
      19       -0.000043266653    -0.000001155633     0.000007674758
      20       -0.000002925451     0.000012689590    -0.000003815253
      21        0.000002243741    -0.000003424258     0.000002809288
      22        0.000001255414    -0.000012177015    -0.000006673923

  **** Optimization is complete! (in 12 steps) ****
    Final optimized geometry and variables:
    Molecular point group: c1

    Geometry (in Angstrom), charge = 0, multiplicity = 1:

    O           -2.398615822171    -0.204616424886     1.426476976511
    C           -1.536020720387     0.530201199394     1.052119341586
    C           -0.196614691604    -0.013005079037     0.582609495745
    C           -1.734408412456     2.029149456368     1.007426152344
    C           -0.331147538174    -0.551120668534    -0.853709314345
    H            0.079159894797    -0.813239593839     1.259752654374
    H            0.561260804297     0.758391043771     0.641979673604
    C            0.933914536668    -1.181349097637    -1.504217466277
    H           -1.130083365368    -1.283161053032    -0.851822292976
    H           -0.677945845482     0.263674903378    -1.484736474484
    C            2.278943836352    -1.039566127343    -0.769224914895
    H            1.073676428451    -0.734310214271    -2.484381992073
    H            0.743568770904    -2.237091569762    -1.664725655477
    C            2.954720438127     0.321444315072    -0.955939471773
    H            2.950015246285    -1.800964339619    -1.157903331850
    H            2.166711904491    -1.258903173883     0.287896169101
    H            3.179163810929     0.496139025300    -2.004507105984
    H            3.890203516268     0.370674304303    -0.406985786497
    H            2.332939264573     1.143519179211    -0.617021051267
    H           -1.079606586649     2.505624383788     1.732323528761
    H           -2.762071339741     2.273388126647     1.237622902757
    H           -1.471109208185     2.423543674122     0.030264186952

  Mulliken Charges: (a.u.)
   Center  Symbol    Alpha    Beta     Spin     Total
       1     O     4.26246  4.26246  0.00000 -0.52493
       2     C     2.73651  2.73651  0.00000  0.52698
       3     C     3.20396  3.20396  0.00000 -0.40792
       4     C     3.28979  3.28979  0.00000 -0.57958
       5     C     3.16733  3.16733  0.00000 -0.33466
       6     H     0.40078  0.40078  0.00000  0.19844
       7     H     0.41398  0.41398  0.00000  0.17204
       8     C     3.15746  3.15746  0.00000 -0.31493
       9     H     0.40221  0.40221  0.00000  0.19557
      10     H     0.41966  0.41966  0.00000  0.16067
      11     C     3.15780  3.15780  0.00000 -0.31559
      12     H     0.41939  0.41939  0.00000  0.16122
      13     H     0.41496  0.41496  0.00000  0.17008
      14     C     3.24084  3.24084  0.00000 -0.48167
      15     H     0.41774  0.41774  0.00000  0.16451
      16     H     0.41976  0.41976  0.00000  0.16048
      17     H     0.42042  0.42042  0.00000  0.15916
      18     H     0.41790  0.41790  0.00000  0.16419
      19     H     0.42343  0.42343  0.00000  0.15315
      20     H     0.40689  0.40689  0.00000  0.18622
      21     H     0.39694  0.39694  0.00000  0.20612
      22     H     0.40977  0.40977  0.00000  0.18046

   Total alpha = 32.00000, Total beta = 32.00000, Total charge =  0.00000
