  ==> Input File <==

--------------------------------------------------------------------------
set {
	reference rhf
	basis 6-31G*
}

set_num_threads( 1 )
memory 2 gb

molecule MOL {
0 1

O	 3.225979	 0.970355	 -0.599647
C	 2.701189	 0.057885	 -0.047330
C	 1.245376	 -0.013843	 0.345420
O	 3.347903	 -1.046386	 0.304773
C	 0.455112	 1.231400	 -0.050772
H	 0.838542	 -0.913825	 -0.103701
H	 1.208210	 -0.175333	 1.419774
C	 -0.998893	 1.219485	 0.433193
H	 0.482531	 1.345121	 -1.130325
H	 0.957290	 2.103070	 0.354729
C	 -1.883438	 0.145884	 -0.207175
H	 -1.431207	 2.195402	 0.224832
H	 -1.019646	 1.105716	 1.516076
C	 -1.822435	 0.158846	 -1.735936
H	 -1.576992	 -0.833725	 0.156524
H	 -2.917258	 0.277600	 0.104014
C	 -2.706522	 -0.906425	 -2.386873
H	 -0.792004	 0.014119	 -2.056095
H	 -2.118461	 1.141527	 -2.099813
C	 -2.636938	 -0.889263	 -3.913492
H	 -2.412718	 -1.888945	 -2.023589
H	 -3.737587	 -0.760755	 -2.071491
H	 -3.273860	 -1.655063	 -4.345335
H	 -1.623388	 -1.067133	 -4.261735
H	 -2.957891	 0.069981	 -4.309867
C	 4.728119	 -1.109107	 -0.004993
H	 4.882018	 -1.033965	 -1.071845
H	 5.068212	 -2.067527	 0.355250
H	 5.265056	 -0.311663	 0.488280

	symmetry c1
}
set optking {
	frozen_dihedral = ("
		21 17 14 11,
		17 14 11 15,
		6 3 5 9,
		11 8 5 9,
		2 4 26 27,
		1 2 4 26,
		6 3 2 1
	")
}

ee = energy('scf')
oeprop('DIPOLE', 'QUADRUPOLE', 'MULLIKEN_CHARGES')
f=open( 'psi4out.xyz', 'w' )
f.write( "29  " )
f.write( str(ee) + "\n" )
f.write( MOL.save_string_xyz() )
f.close()
--------------------------------------------------------------------------

    Molecular point group: c1

    Geometry (in Angstrom), charge = 0, multiplicity = 1:

       Center              X                  Y                   Z               Mass
    ------------   -----------------  -----------------  -----------------  -----------------
           O          2.663608700482     1.001673254796     0.124651619482    15.994914619560
           C          2.138818700482     0.089203254796     0.676968619482    12.000000000000
           C          0.683005700482     0.017475254796     1.069718619482    12.000000000000
           O          2.785532700482    -1.015067745204     1.029071619482    15.994914619560
           C         -0.107258299518     1.262718254796     0.673526619482    12.000000000000
           H          0.276171700482    -0.882506745204     0.620597619482     1.007825032070
           H          0.645839700482    -0.144014745204     2.144072619482     1.007825032070
           C         -1.561263299518     1.250803254796     1.157491619482    12.000000000000
           H         -0.079839299518     1.376439254796    -0.406026380518     1.007825032070
           H          0.394919700482     2.134388254796     1.079027619482     1.007825032070
           C         -2.445808299518     0.177202254796     0.517123619482    12.000000000000
           H         -1.993577299518     2.226720254796     0.949130619482     1.007825032070
           H         -1.582016299518     1.137034254796     2.240374619482     1.007825032070
           C         -2.384805299518     0.190164254796    -1.011637380518    12.000000000000
           H         -2.139362299518    -0.802406745204     0.880822619482     1.007825032070
           H         -3.479628299518     0.308918254796     0.828312619482     1.007825032070
           C         -3.268892299518    -0.875106745204    -1.662574380518    12.000000000000
           H         -1.354374299518     0.045437254796    -1.331796380518     1.007825032070
           H         -2.680831299518     1.172845254796    -1.375514380518     1.007825032070
           C         -3.199308299518    -0.857944745204    -3.189193380518    12.000000000000
           H         -2.975088299518    -1.857626745204    -1.299290380518     1.007825032070
           H         -4.299957299518    -0.729436745204    -1.347192380518     1.007825032070
           H         -3.836230299518    -1.623744745204    -3.621036380518     1.007825032070
           H         -2.185758299518    -1.035814745204    -3.537436380518     1.007825032070
           H         -3.520261299518     0.101299254796    -3.585568380518     1.007825032070
           C          4.165748700482    -1.077788745204     0.719305619482    12.000000000000
           H          4.319647700482    -1.002646745204    -0.347546380518     1.007825032070
           H          4.505841700482    -2.036208745204     1.079548619482     1.007825032070
           H          4.702685700482    -0.280344745204     1.212578619482     1.007825032070

  Charge       = 0
  Multiplicity = 1
  Basis Set: 6-31G*
  Basis Set:

    Orbital Energies (a.u.)
    -----------------------

    Doubly Occupied:

       1A    -20.603655     2A    -20.545571     3A    -11.372357
       4A    -11.280890     5A    -11.235205     6A    -11.218121
       7A    -11.217371     8A    -11.215766     9A    -11.215670
      10A    -11.213650    11A    -11.208632    12A     -1.469381
      13A     -1.362831    14A     -1.100607    15A     -1.064399
      16A     -1.019483    17A     -0.975570    18A     -0.928583
      19A     -0.867331    20A     -0.808030    21A     -0.780675
      22A     -0.758053    23A     -0.701983    24A     -0.683189
      25A     -0.671727    26A     -0.649673    27A     -0.633288
      28A     -0.604139    29A     -0.594887    30A     -0.578953
      31A     -0.563554    32A     -0.557650    33A     -0.535324
      34A     -0.527702    35A     -0.523631    36A     -0.508999
      37A     -0.491133    38A     -0.480261    39A     -0.471903
      40A     -0.458482    41A     -0.456714    42A     -0.452962
      43A     -0.440592    44A     -0.437236

  @DF-RHF Final Energy:  -501.04088988939475

   => Energetics <=

    Nuclear Repulsion Energy =            628.9016688352014626
    One-Electron Energy =               -1928.9138233575097274
    Two-Electron Energy =                 798.9712646329094241
    DFT Exchange-Correlation Energy =       0.0000000000000000
    Empirical Dispersion Energy =           0.0000000000000000
    PCM Polarization Energy =               0.0000000000000000
    EFP Energy =                            0.0000000000000000
    Total Energy =                       -501.0408898893988408

  Mulliken Charges: (a.u.)
   Center  Symbol    Alpha    Beta     Spin     Total
       1     O     4.28569  4.28569  0.00000 -0.57138
       2     C     2.60529  2.60529  0.00000  0.78943
       3     C     3.20897  3.20897  0.00000 -0.41794
       4     O     4.30736  4.30736  0.00000 -0.61472
       5     C     3.16003  3.16003  0.00000 -0.32006
       6     H     0.39964  0.39964  0.00000  0.20072
       7     H     0.40074  0.40074  0.00000  0.19852
       8     C     3.15674  3.15674  0.00000 -0.31348
       9     H     0.40915  0.40915  0.00000  0.18170
      10     H     0.40807  0.40807  0.00000  0.18386
      11     C     3.15578  3.15578  0.00000 -0.31156
      12     H     0.41853  0.41853  0.00000  0.16293
      13     H     0.42196  0.42196  0.00000  0.15608
      14     C     3.15498  3.15498  0.00000 -0.30996
      15     H     0.42451  0.42451  0.00000  0.15098
      16     H     0.41939  0.41939  0.00000  0.16123
      17     C     3.15033  3.15033  0.00000 -0.30066
      18     H     0.42237  0.42237  0.00000  0.15526
      19     H     0.42281  0.42281  0.00000  0.15439
      20     C     3.23924  3.23924  0.00000 -0.47848
      21     H     0.42386  0.42386  0.00000  0.15227
      22     H     0.42312  0.42312  0.00000  0.15376
      23     H     0.41938  0.41938  0.00000  0.16124
      24     H     0.42164  0.42164  0.00000  0.15672
      25     H     0.42137  0.42137  0.00000  0.15726
      26     C     3.09241  3.09241  0.00000 -0.18481
      27     H     0.40912  0.40912  0.00000  0.18175
      28     H     0.40846  0.40846  0.00000  0.18307
      29     H     0.40906  0.40906  0.00000  0.18189

   Total alpha = 44.00000, Total beta = 44.00000, Total charge = -0.00000
