  ==> Input File <==

--------------------------------------------------------------------------
set {
	reference rhf
	basis 6-31G*
}

set_num_threads( 1 )
memory 2 gb

molecule MOL {
0 1

O	 3.225979	 0.970355	 -0.599647
C	 2.701189	 0.057885	 -0.047330
C	 1.245376	 -0.013843	 0.345420
O	 3.347903	 -1.046386	 0.304773
C	 0.455112	 1.231400	 -0.050772
H	 0.838542	 -0.913825	 -0.103701
H	 1.208210	 -0.175333	 1.419774
C	 -0.998893	 1.219485	 0.433193
H	 0.482531	 1.345121	 -1.130325
H	 0.957290	 2.103070	 0.354729
C	 -1.883438	 0.145884	 -0.207175
H	 -1.431207	 2.195402	 0.224832
H	 -1.019646	 1.105716	 1.516076
C	 -1.224703	 -0.525771	 -1.413802
H	 -2.124230	 -0.610541	 0.538251
H	 -2.830853	 0.578752	 -0.520230
C	 -2.101667	 -1.596762	 -2.064988
H	 -0.281344	 -0.973457	 -1.105765
H	 -0.973929	 0.231468	 -2.155017
C	 -1.435008	 -2.265268	 -3.266805
H	 -2.354026	 -2.353733	 -1.325426
H	 -3.043336	 -1.150236	 -2.377485
H	 -2.080823	 -3.019061	 -3.706491
H	 -0.506876	 -2.751569	 -2.979961
H	 -1.200986	 -1.538633	 -4.039792
C	 4.728119	 -1.109107	 -0.004993
H	 4.882018	 -1.033965	 -1.071845
H	 5.068212	 -2.067527	 0.355250
H	 5.265056	 -0.311663	 0.488280

	symmetry c1
}
set optking {
	frozen_dihedral = ("
		21 17 14 11,
		17 14 11 15,
		6 3 5 9,
		11 8 5 9,
		2 4 26 27,
		1 2 4 26,
		6 3 2 1
	")
}

ee = energy('scf')
oeprop('DIPOLE', 'QUADRUPOLE', 'MULLIKEN_CHARGES')
f=open( 'psi4out.xyz', 'w' )
f.write( "29  " )
f.write( str(ee) + "\n" )
f.write( MOL.save_string_xyz() )
f.close()
--------------------------------------------------------------------------

    Molecular point group: c1

    Geometry (in Angstrom), charge = 0, multiplicity = 1:

       Center              X                  Y                   Z               Mass
    ------------   -----------------  -----------------  -----------------  -----------------
           O          2.442810194625     1.254312378256     0.006083478966    15.994914619560
           C          1.918020194625     0.341842378256     0.558400478966    12.000000000000
           C          0.462207194625     0.270114378256     0.951150478966    12.000000000000
           O          2.564734194625    -0.762428621744     0.910503478966    15.994914619560
           C         -0.328056805375     1.515357378256     0.554958478966    12.000000000000
           H          0.055373194625    -0.629867621744     0.502029478966     1.007825032070
           H          0.425041194625     0.108624378256     2.025504478966     1.007825032070
           C         -1.782061805375     1.503442378256     1.038923478966    12.000000000000
           H         -0.300637805375     1.629078378256    -0.524594521034     1.007825032070
           H          0.174121194625     2.387027378256     0.960459478966     1.007825032070
           C         -2.666606805375     0.429841378256     0.398555478966    12.000000000000
           H         -2.214375805375     2.479359378256     0.830562478966     1.007825032070
           H         -1.802814805375     1.389673378256     2.121806478966     1.007825032070
           C         -2.007871805375    -0.241813621744    -0.808071521034    12.000000000000
           H         -2.907398805375    -0.326583621744     1.143981478966     1.007825032070
           H         -3.614021805375     0.862709378256     0.085500478966     1.007825032070
           C         -2.884835805375    -1.312804621744    -1.459257521034    12.000000000000
           H         -1.064512805375    -0.689499621744    -0.500034521034     1.007825032070
           H         -1.757097805375     0.515425378256    -1.549286521034     1.007825032070
           C         -2.218176805375    -1.981310621744    -2.661074521034    12.000000000000
           H         -3.137194805375    -2.069775621744    -0.719695521034     1.007825032070
           H         -3.826504805375    -0.866278621744    -1.771754521034     1.007825032070
           H         -2.863991805375    -2.735103621744    -3.100760521034     1.007825032070
           H         -1.290044805375    -2.467611621744    -2.374230521034     1.007825032070
           H         -1.984154805375    -1.254675621744    -3.434061521034     1.007825032070
           C          3.944950194625    -0.825149621744     0.600737478966    12.000000000000
           H          4.098849194625    -0.750007621744    -0.466114521034     1.007825032070
           H          4.285043194625    -1.783569621744     0.960980478966     1.007825032070
           H          4.481887194625    -0.027705621744     1.094010478966     1.007825032070

  Charge       = 0
  Multiplicity = 1
  Basis Set: 6-31G*
  Basis Set:

    Orbital Energies (a.u.)
    -----------------------

    Doubly Occupied:

       1A    -20.603377     2A    -20.544927     3A    -11.371642
       4A    -11.280655     5A    -11.232486     6A    -11.218077
       7A    -11.216464     8A    -11.214873     9A    -11.214686
      10A    -11.211812    11A    -11.208826    12A     -1.468952
      13A     -1.362340    14A     -1.104626    15A     -1.061279
      16A     -1.019614    17A     -0.974261    18A     -0.932967
      19A     -0.866908    20A     -0.811329    21A     -0.776224
      22A     -0.761922    23A     -0.702901    24A     -0.683640
      25A     -0.672172    26A     -0.648353    27A     -0.638849
      28A     -0.605139    29A     -0.594634    30A     -0.580388
      31A     -0.566336    32A     -0.550890    33A     -0.543226
      34A     -0.524374    35A     -0.521862    36A     -0.509507
      37A     -0.493798    38A     -0.482559    39A     -0.472137
      40A     -0.456317    41A     -0.454108    42A     -0.447900
      43A     -0.439961    44A     -0.431216

  @DF-RHF Final Energy:  -501.02055087822555

   => Energetics <=

    Nuclear Repulsion Energy =            642.0637467129672586
    One-Electron Energy =               -1955.2113798940681590
    Two-Electron Energy =                 812.1270823028745554
    DFT Exchange-Correlation Energy =       0.0000000000000000
    Empirical Dispersion Energy =           0.0000000000000000
    PCM Polarization Energy =               0.0000000000000000
    EFP Energy =                            0.0000000000000000
    Total Energy =                       -501.0205508782263450

  Mulliken Charges: (a.u.)
   Center  Symbol    Alpha    Beta     Spin     Total
       1     O     4.28566  4.28566  0.00000 -0.57132
       2     C     2.60482  2.60482  0.00000  0.79036
       3     C     3.21162  3.21162  0.00000 -0.42324
       4     O     4.30742  4.30742  0.00000 -0.61485
       5     C     3.16215  3.16215  0.00000 -0.32430
       6     H     0.39638  0.39638  0.00000  0.20724
       7     H     0.40029  0.40029  0.00000  0.19942
       8     C     3.15929  3.15929  0.00000 -0.31858
       9     H     0.40936  0.40936  0.00000  0.18127
      10     H     0.40623  0.40623  0.00000  0.18754
      11     C     3.15588  3.15588  0.00000 -0.31176
      12     H     0.41639  0.41639  0.00000  0.16722
      13     H     0.42105  0.42105  0.00000  0.15790
      14     C     3.15761  3.15761  0.00000 -0.31522
      15     H     0.42188  0.42188  0.00000  0.15623
      16     H     0.41805  0.41805  0.00000  0.16390
      17     C     3.14800  3.14800  0.00000 -0.29599
      18     H     0.42874  0.42874  0.00000  0.14251
      19     H     0.42019  0.42019  0.00000  0.15963
      20     C     3.23928  3.23928  0.00000 -0.47856
      21     H     0.42412  0.42412  0.00000  0.15175
      22     H     0.42319  0.42319  0.00000  0.15361
      23     H     0.41915  0.41915  0.00000  0.16170
      24     H     0.42288  0.42288  0.00000  0.15424
      25     H     0.42122  0.42122  0.00000  0.15757
      26     C     3.09234  3.09234  0.00000 -0.18469
      27     H     0.40913  0.40913  0.00000  0.18174
      28     H     0.40857  0.40857  0.00000  0.18286
      29     H     0.40909  0.40909  0.00000  0.18183

   Total alpha = 44.00000, Total beta = 44.00000, Total charge =  0.00000
