  ==> Input File <==

--------------------------------------------------------------------------
set {
	reference rhf
	basis 6-31G*
}

set_num_threads( 4 )
memory 2 gb

molecule MOL {
0 1

H	 -3.164212	 1.685977	 -0.148213
C	 -2.539859	 2.189728	 0.587013
O	 -1.189862	 2.078556	 0.270016
H	 -2.787529	 3.242225	 0.594262
H	 -2.756758	 1.770850	 1.568810
C	 -0.719715	 0.768384	 0.229244
C	 0.719720	 0.768376	 -0.229267
H	 -0.780684	 0.313835	 1.218872
H	 -1.313741	 0.165059	 -0.454230
O	 1.392611	 -0.295398	 0.366430
H	 0.750534	 0.687200	 -1.313918
H	 1.185043	 1.714359	 0.050526
C	 2.706965	 -0.449871	 -0.062409
H	 2.756559	 -0.644779	 -1.131878
H	 3.305899	 0.433456	 0.155466
H	 3.125548	 -1.294566	 0.467107

	symmetry c1
}
set optking {
	frozen_dihedral = ("
		3 6 7 11
	")
}

ee = optimize('scf')
oeprop('DIPOLE', 'QUADRUPOLE', 'MULLIKEN_CHARGES')
f=open( 'psi4out.xyz', 'w' )
f.write( "16  " )
f.write( str(ee) + "\n" )
f.write( MOL.save_string_xyz() )
f.close()
--------------------------------------------------------------------------

    Molecular point group: c1
  Charge       = 0
  Multiplicity = 1
  Basis Set: 6-31G*
  Basis Set:
  @DF-RHF Final Energy:  -306.97644216030244
    Total Energy =                       -306.9764421603024402
    Molecular point group: c1
  Basis Set: 6-31G*
  Basis Set:
  Basis Set: 6-31G*
  Basis Set:
  @DF-RHF Final Energy:  -306.97701045045676
    Total Energy =                       -306.9770104504567598
  Basis Set: 6-31G*
  Basis Set:
  Basis Set: 6-31G*
  Basis Set:
  @DF-RHF Final Energy:  -306.97706290840006
    Total Energy =                       -306.9770629083997733
  Basis Set: 6-31G*
  Basis Set:
  Charge       = 0
  Multiplicity = 1
  Basis Set: 6-31G*
  Basis Set:

    Orbital Energies (a.u.)
    -----------------------

    Doubly Occupied:

       1A    -20.557977     2A    -20.557420     3A    -11.267471
       4A    -11.266777     5A    -11.266472     6A    -11.266289
       7A     -1.387798     8A     -1.376249     9A     -1.028789
      10A     -0.940567    11A     -0.883572    12A     -0.831410
      13A     -0.690305    14A     -0.674254    15A     -0.658167
      16A     -0.646259    17A     -0.621435    18A     -0.599524
      19A     -0.570040    20A     -0.521597    21A     -0.507760
      22A     -0.481778    23A     -0.466249    24A     -0.418702
      25A     -0.415888

  @DF-RHF Final Energy:  -306.97706607623223

   => Energetics <=

    Nuclear Repulsion Energy =            254.7284698816254718
    One-Electron Energy =                -923.6055780105584745
    Two-Electron Energy =                 361.9000420527007691
    DFT Exchange-Correlation Energy =       0.0000000000000000
    Empirical Dispersion Energy =           0.0000000000000000
    PCM Polarization Energy =               0.0000000000000000
    EFP Energy =                            0.0000000000000000
    Total Energy =                       -306.9770660762322905
    Molecular point group: c1
  Basis Set: 6-31G*
  Basis Set:

  -Total Gradient:
     Atom            X                  Y                   Z
    ------   -----------------  -----------------  -----------------
       1       -0.000019681091     0.000009595311    -0.000001000932
       2        0.000003627084    -0.000043296198     0.000000111464
       3        0.001001788946     0.000306341625     0.003297320311
       4        0.000030022117    -0.000005598833    -0.000008774862
       5       -0.000008632397     0.000006727174     0.000008029222
       6       -0.001365678461    -0.001466854871    -0.004156218497
       7        0.000239334987     0.005624989885     0.000653276278
       8        0.000039401439    -0.000002423833    -0.000016711507
       9       -0.000033104509     0.000033018199    -0.000006963942
      10       -0.000040626972     0.000110471051    -0.000099967397
      11        0.000187672858    -0.004566703444     0.000360392946
      12       -0.000060212790     0.000006549910    -0.000003914377
      13        0.000048202870    -0.000011198031    -0.000030880468
      14        0.000022794978    -0.000008862664    -0.000008093947
      15       -0.000011794819    -0.000005951216     0.000009203606
      16       -0.000033114238     0.000013195934     0.000004192102

  **** Optimization is complete! (in 4 steps) ****
    Final optimized geometry and variables:
    Molecular point group: c1

    Geometry (in Angstrom), charge = 0, multiplicity = 1:

    H           -3.249644840598     0.824201858253    -0.266914997898
    C           -2.591688437327     1.349794480183     0.422660115866
    O           -1.257059893049     1.231385075886     0.045452461498
    H           -2.841895722051     2.401714161222     0.412284776983
    H           -2.757646818035     0.957411359002     1.424167995772
    C           -0.783023142696    -0.081484305259     0.026763614831
    C            0.665895070708    -0.059578885659    -0.434858107408
    H           -0.817712637261    -0.511248830017     1.024855017273
    H           -1.392546650287    -0.703692049504    -0.625392224648
    O            1.314914338688    -1.149811938121     0.152282039605
    H            0.729227443838    -0.150736433135    -1.517479245926
    H            1.124060847779     0.877356603084    -0.131459904416
    C            2.647267726441    -1.290500713873    -0.224749059927
    H            2.744269093518    -1.446165287627    -1.297753636747
    H            3.233179799465    -0.415675164702     0.050684760912
    H            3.043368260778    -2.154176578709     0.291435606005

  Mulliken Charges: (a.u.)
   Center  Symbol    Alpha    Beta     Spin     Total
       1     H     0.42932  0.42932  0.00000  0.14136
       2     C     3.08001  3.08001  0.00000 -0.16001
       3     O     4.30933  4.30933  0.00000 -0.61867
       4     H     0.41160  0.41160  0.00000  0.17679
       5     H     0.42832  0.42832  0.00000  0.14337
       6     C     2.99651  2.99651  0.00000  0.00699
       7     C     2.99634  2.99634  0.00000  0.00732
       8     H     0.41751  0.41751  0.00000  0.16498
       9     H     0.42713  0.42713  0.00000  0.14574
      10     O     4.31004  4.31004  0.00000 -0.62009
      11     H     0.42759  0.42759  0.00000  0.14481
      12     H     0.41674  0.41674  0.00000  0.16653
      13     C     3.07977  3.07977  0.00000 -0.15955
      14     H     0.42966  0.42966  0.00000  0.14068
      15     H     0.42845  0.42845  0.00000  0.14310
      16     H     0.41168  0.41168  0.00000  0.17665

   Total alpha = 25.00000, Total beta = 25.00000, Total charge = -0.00000
