  ==> Input File <==

--------------------------------------------------------------------------
set {
	reference rhf
	basis 6-31G*
}

set_num_threads( 4 )
memory 2 gb

molecule MOL {
0 1

H	 -3.892951	 0.981613	 -0.358725
C	 -3.196921	 0.361773	 0.172313
C	 -2.076860	 -0.007332	 -0.404944
H	 -3.439953	 0.057760	 1.173024
O	 -0.867564	 0.456021	 0.007084
H	 -2.046823	 -0.708601	 -1.220122
C	 0.246673	 0.158314	 -0.762133
C	 0.448799	 1.168853	 -1.868592
H	 0.186291	 -0.826680	 -1.211393
H	 1.112035	 0.196160	 -0.116995
F	 1.543038	 0.862996	 -2.550428
F	 -0.564999	 1.175583	 -2.718296
F	 0.589965	 2.392225	 -1.401878

	symmetry c1
}
set optking {
	frozen_dihedral = ("
		6 3 2 1
	")
}

ee = optimize('scf')
oeprop('DIPOLE', 'QUADRUPOLE', 'MULLIKEN_CHARGES')
f=open( 'psi4out.xyz', 'w' )
f.write( "13  " )
f.write( str(ee) + "\n" )
f.write( MOL.save_string_xyz() )
f.close()
--------------------------------------------------------------------------

    Molecular point group: c1
  Charge       = 0
  Multiplicity = 1
  Basis Set: 6-31G*
  Basis Set:
  @DF-RHF Final Energy:  -527.43107497787173
    Total Energy =                       -527.4310749778715035
    Molecular point group: c1
  Basis Set: 6-31G*
  Basis Set:
  Basis Set: 6-31G*
  Basis Set:
  @DF-RHF Final Energy:  -527.46293959344155
    Total Energy =                       -527.4629395934416607
  Basis Set: 6-31G*
  Basis Set:
  Basis Set: 6-31G*
  Basis Set:
  @DF-RHF Final Energy:  -527.49370561336718
    Total Energy =                       -527.4937056133667284
  Basis Set: 6-31G*
  Basis Set:
  Basis Set: 6-31G*
  Basis Set:
  @DF-RHF Final Energy:  -527.49974415800784
    Total Energy =                       -527.4997441580076156
  Basis Set: 6-31G*
  Basis Set:
  @DF-RHF Final Energy:  -527.50026587049683
    Total Energy =                       -527.5002658704972873
  @DF-RHF Final Energy:  -527.50033324714104
    Total Energy =                       -527.5003332471405884
  @DF-RHF Final Energy:  -527.50034325182264
    Total Energy =                       -527.5003432518227555
  @DF-RHF Final Energy:  -527.49889913626657
    Total Energy =                       -527.4988991362665729
  @DF-RHF Final Energy:  -527.50036986881491
    Total Energy =                       -527.5003698688149143
  @DF-RHF Final Energy:  -527.50037715092640
    Total Energy =                       -527.5003771509261696
  @DF-RHF Final Energy:  -527.50037882090510
    Total Energy =                       -527.5003788209044160
  @DF-RHF Final Energy:  -527.50014022012283
    Total Energy =                       -527.5001402201228302
  @DF-RHF Final Energy:  -527.50038147100145
    Total Energy =                       -527.5003814710014467
  @DF-RHF Final Energy:  -527.50038178963803
    Total Energy =                       -527.5003817896381406
  @DF-RHF Final Energy:  -527.50038212139953
    Total Energy =                       -527.5003821213995252
  @DF-RHF Final Energy:  -527.50037707385263
    Total Energy =                       -527.5003770738526327
  @DF-RHF Final Energy:  -527.50038266184015
    Total Energy =                       -527.5003826618401490
  @DF-RHF Final Energy:  -527.50038155819016
    Total Energy =                       -527.5003815581903837
  @DF-RHF Final Energy:  -527.50038215695463
    Total Energy =                       -527.5003821569544016
  @DF-RHF Final Energy:  -527.50038170373182
    Total Energy =                       -527.5003817037317049
  @DF-RHF Final Energy:  -527.50037750078900
    Total Energy =                       -527.5003775007888862
  @DF-RHF Final Energy:  -527.50036631024000
    Total Energy =                       -527.5003663102402243
  @DF-RHF Final Energy:  -527.50037814572204
    Total Energy =                       -527.5003781457222658
  @DF-RHF Final Energy:  -527.50037768198376
    Total Energy =                       -527.5003776819838777
  @DF-RHF Final Energy:  -527.50037825474897
    Total Energy =                       -527.5003782547489664
  @DF-RHF Final Energy:  -527.50037925165066
    Total Energy =                       -527.5003792516506564
  @DF-RHF Final Energy:  -527.50037430642021
    Total Energy =                       -527.5003743064202126
  @DF-RHF Final Energy:  -527.50037914624977
    Total Energy =                       -527.5003791462495428
  @DF-RHF Final Energy:  -527.50038037171282
    Total Energy =                       -527.5003803717127084
  @DF-RHF Final Energy:  -527.50038099594258
    Total Energy =                       -527.5003809959432601
  @DF-RHF Final Energy:  -527.50038127352877
    Total Energy =                       -527.5003812735286601
  @DF-RHF Final Energy:  -527.50038135349860
    Total Energy =                       -527.5003813534983692
  @DF-RHF Final Energy:  -527.50038139270407
    Total Energy =                       -527.5003813927036163
  @DF-RHF Final Energy:  -527.50038119737167
    Total Energy =                       -527.5003811973715528
  @DF-RHF Final Energy:  -527.50033685800963
    Total Energy =                       -527.5003368580092911
  @DF-RHF Final Energy:  -527.50038143576739
    Total Energy =                       -527.5003814357675083
  Basis Set: 6-31G*
  Basis Set:
  @DF-RHF Final Energy:  -527.50038143039080
    Total Energy =                       -527.5003814303910303
  Basis Set: 6-31G*
  Basis Set:
  Basis Set: 6-31G*
  Basis Set:
  @DF-RHF Final Energy:  -527.50038141369168
    Total Energy =                       -527.5003814136915707
  Basis Set: 6-31G*
  Basis Set:
  Basis Set: 6-31G*
  Basis Set:
  @DF-RHF Final Energy:  -527.50038132834788
    Total Energy =                       -527.5003813283478848
  Basis Set: 6-31G*
  Basis Set:
  Charge       = 0
  Multiplicity = 1
  Basis Set: 6-31G*
  Basis Set:

    Orbital Energies (a.u.)
    -----------------------

    Doubly Occupied:

       1A    -26.345890     2A    -26.345305     3A    -26.341753
       4A    -20.608578     5A    -11.504620     6A    -11.319272
       7A    -11.311261     8A    -11.219346     9A     -1.743113
      10A     -1.641284    11A     -1.639526    12A     -1.437925
      13A     -1.086648    14A     -1.013622    15A     -0.925571
      16A     -0.839512    17A     -0.832260    18A     -0.825167
      19A     -0.794243    20A     -0.722985    21A     -0.712607
      22A     -0.697189    23A     -0.675372    24A     -0.659953
      25A     -0.654811    26A     -0.644442    27A     -0.630179
      28A     -0.591100    29A     -0.557928    30A     -0.514781
      31A     -0.507899    32A     -0.348027

  @DF-RHF Final Energy:  -527.50038141381174

   => Energetics <=

    Nuclear Repulsion Energy =            411.8571236096266261
    One-Electron Energy =               -1547.3306683793359753
    Two-Electron Energy =                 607.9731633558973272
    DFT Exchange-Correlation Energy =       0.0000000000000000
    Empirical Dispersion Energy =           0.0000000000000000
    PCM Polarization Energy =               0.0000000000000000
    EFP Energy =                            0.0000000000000000
    Total Energy =                       -527.5003814138120788
    Molecular point group: c1
  Basis Set: 6-31G*
  Basis Set:

  -Total Gradient:
     Atom            X                  Y                   Z
    ------   -----------------  -----------------  -----------------
       1        0.005332859753     0.031002103765     0.009980069806
       2        0.000502707601    -0.054835754873    -0.006281467757
       3       -0.024186555044     0.044720383741    -0.022160800971
       4        0.000220929072    -0.000098382168     0.000083523416
       5        0.000001797436     0.000179448197    -0.000138544270
       6        0.018211815016    -0.020949746373     0.018515124645
       7       -0.000085424162    -0.000030141975    -0.000097598912
       8        0.000004964618     0.000011725805    -0.000011376284
       9        0.000012055546    -0.000009534228     0.000010474829
      10       -0.000028239328     0.000014233226     0.000020080321
      11       -0.000021429331    -0.000010704375     0.000003281033
      12        0.000039491737    -0.000030106830     0.000097539643
      13       -0.000004972907     0.000036476088    -0.000020305497

    Molecular point group: c1

    Geometry (in Angstrom), charge = 0, multiplicity = 1:

    H           -3.928101135620    -0.558902529603     1.331505532232
    C           -2.902824305557    -0.795289128294     1.554274575435
    C           -1.901599096990    -0.683754944107     0.681716864968
    H           -2.647085642875    -0.428797797846     2.538994453952
    O           -0.698133623671    -0.254851770258     1.166998440227
    H           -1.752024603399    -1.312372072401    -0.179674270530
    C            0.468854349842    -0.688116015532     0.551344171155
    C            0.895670712242     0.265263374547    -0.541182124634
    H            0.371276048738    -1.677974392055     0.120883054088
    H            1.250252211957    -0.710849347773     1.296915861315
    F            2.021564592112    -0.165973775060    -1.089962619881
    F           -0.012562583210     0.349204458704    -1.499960469073
    F            1.107234782046     1.481366040408    -0.082326859619

  Mulliken Charges: (a.u.)
   Center  Symbol    Alpha    Beta     Spin     Total
       1     H     0.40273  0.40273  0.00000  0.19454
       2     C     3.23249  3.23249  0.00000 -0.46497
       3     C     2.89830  2.89830  0.00000  0.20340
       4     H     0.40882  0.40882  0.00000  0.18237
       5     O     4.29831  4.29831  0.00000 -0.59662
       6     H     0.40758  0.40758  0.00000  0.18485
       7     C     3.06606  3.06606  0.00000 -0.13212
       8     C     2.45505  2.45505  0.00000  1.08991
       9     H     0.40448  0.40448  0.00000  0.19103
      10     H     0.38936  0.38936  0.00000  0.22127
      11     F     4.68264  4.68264  0.00000 -0.36527
      12     F     4.67980  4.67980  0.00000 -0.35960
      13     F     4.67439  4.67439  0.00000 -0.34878

   Total alpha = 32.00000, Total beta = 32.00000, Total charge =  0.00000
