  ==> Input File <==

--------------------------------------------------------------------------
set {
	reference rhf
	basis cc-pvtz
}

set_num_threads( 4 )
memory 2 gb

molecule MOL {
0 1

H	 -3.144994	 -1.202467	 -0.018751
O	 -2.321472	 -0.864941	 -0.318626
C	 -2.021813	 0.336996	 0.342658
C	 -0.669613	 0.837286	 -0.127252
H	 -2.780861	 1.084746	 0.127159
H	 -2.006390	 0.184138	 1.420053
C	 0.490865	 -0.082543	 0.241244
H	 -0.708709	 0.967192	 -1.204587
H	 -0.507562	 1.822272	 0.303070
C	 1.839800	 0.429565	 -0.255472
H	 0.305636	 -1.070211	 -0.165276
H	 0.527397	 -0.195943	 1.322876
C	 2.272005	 1.726952	 0.419638
H	 2.595904	 -0.332353	 -0.086682
H	 1.795846	 0.581206	 -1.331001
H	 2.359314	 1.597899	 1.493248
H	 3.233126	 2.063154	 0.047455
H	 1.552812	 2.519625	 0.241099

	symmetry c1
}
set optking {
	frozen_dihedral = ("
		14 10 7 11
	")
}

ee = optimize('scf')
oeprop('DIPOLE', 'QUADRUPOLE', 'MULLIKEN_CHARGES')
f=open( 'psi4out.xyz', 'w' )
f.write( "18  " )
f.write( str(ee) + "\n" )
f.write( MOL.save_string_xyz() )
f.close()
--------------------------------------------------------------------------

    Molecular point group: c1
  Charge       = 0
  Multiplicity = 1
  Basis Set: CC-PVTZ
  Basis Set:
  @DF-RHF Final Energy:  -271.28471552071198
    Total Energy =                       -271.2847155207121546
    Molecular point group: c1
  Basis Set: CC-PVTZ
  Basis Set:
  Basis Set: CC-PVTZ
  Basis Set:
  @DF-RHF Final Energy:  -271.28505932248788
    Total Energy =                       -271.2850593224878821
  Basis Set: CC-PVTZ
  Basis Set:
  Basis Set: CC-PVTZ
  Basis Set:
  @DF-RHF Final Energy:  -271.28523574810589
    Total Energy =                       -271.2852357481058334
  Basis Set: CC-PVTZ
  Basis Set:
  Basis Set: CC-PVTZ
  Basis Set:
  @DF-RHF Final Energy:  -271.28524153944136
    Total Energy =                       -271.2852415394413015
  Basis Set: CC-PVTZ
  Basis Set:
  Charge       = 0
  Multiplicity = 1
  Basis Set: CC-PVTZ
  Basis Set:

    Orbital Energies (a.u.)
    -----------------------

    Doubly Occupied:

       1A    -20.546211     2A    -11.265968     3A    -11.210043
       4A    -11.209370     5A    -11.205105     6A    -11.203642
       7A     -1.364127     8A     -1.076269     9A     -1.007821
      10A     -0.916243    11A     -0.829519    12A     -0.773521
      13A     -0.708657    14A     -0.636341    15A     -0.618513
      16A     -0.608475    17A     -0.570027    18A     -0.551911
      19A     -0.525002    20A     -0.504107    21A     -0.494840
      22A     -0.461945    23A     -0.458723    24A     -0.449923
      25A     -0.430366

  @DF-RHF Final Energy:  -271.28524175101444

   => Energetics <=

    Nuclear Repulsion Energy =            251.5457993832506531
    One-Electron Energy =                -866.4087471225942636
    Two-Electron Energy =                 343.5777059883290008
    DFT Exchange-Correlation Energy =       0.0000000000000000
    Empirical Dispersion Energy =           0.0000000000000000
    PCM Polarization Energy =               0.0000000000000000
    EFP Energy =                            0.0000000000000000
    Total Energy =                       -271.2852417510145528
    Molecular point group: c1
  Basis Set: CC-PVTZ
  Basis Set:

  -Total Gradient:
     Atom            X                  Y                   Z
    ------   -----------------  -----------------  -----------------
       1       -0.000004570952    -0.000001698530    -0.000004045047
       2       -0.000026442144     0.000017313462    -0.000013795382
       3        0.000025429953    -0.000020963936     0.000037559138
       4       -0.000000416313    -0.000006265822    -0.000027882057
       5       -0.000004450573    -0.000017480199    -0.000011181885
       6       -0.000004327168     0.000012395577     0.000009890313
       7       -0.000134335229     0.000090859759    -0.000266183376
       8        0.000001970842     0.000007236309    -0.000006725272
       9        0.000007521017    -0.000004602324    -0.000001700731
      10        0.000067723762     0.000097425817     0.000296675654
      11        0.000097468962    -0.000083012492     0.000191957389
      12       -0.000004493734    -0.000006508371     0.000008712799
      13        0.000018522375     0.000000374103     0.000005708735
      14       -0.000042066308    -0.000082981360    -0.000210482476
      15        0.000005212808     0.000000585323    -0.000007087551
      16       -0.000001720748     0.000002163871    -0.000001639480
      17        0.000002296233     0.000006549075     0.000002324263
      18       -0.000003322796    -0.000011390262    -0.000002105033

  **** Optimization is complete! (in 5 steps) ****
    Final optimized geometry and variables:
    Molecular point group: c1

    Geometry (in Angstrom), charge = 0, multiplicity = 1:

    H           -2.998760229944    -1.627409650682    -0.137553187402
    O           -2.181409163498    -1.257884592104    -0.415544809667
    C           -1.920876054839    -0.073247218161     0.291825185453
    C           -0.575712166988     0.479100885571    -0.140020247269
    H           -2.696075304387     0.662105987523     0.091894049271
    H           -1.916038560363    -0.263748067488     1.363328060906
    C            0.598942745929    -0.428684792179     0.219824334040
    H           -0.600925099993     0.638056868610    -1.214195782204
    H           -0.456615598237     1.454178246218     0.321334098098
    C            1.954851852200     0.058319162943    -0.293660514447
    H            0.407100031323    -1.416311682251    -0.180879842777
    H            0.645811729429    -0.539616275021     1.301559578211
    C            2.452750517424     1.353519399108     0.343172048927
    H            2.688629407011    -0.721886769956    -0.116330092521
    H            1.904138367812     0.183416521111    -1.372088549109
    H            2.510606217337     1.259332003162     1.423017166835
    H            3.443287001574     1.604929163608    -0.018632204451
    H            1.803761735721     2.191821360132     0.119092950854

  Mulliken Charges: (a.u.)
   Center  Symbol    Alpha    Beta     Spin     Total
       1     H     0.39566  0.39566  0.00000  0.20869
       2     O     4.19862  4.19862  0.00000 -0.39725
       3     C     2.97228  2.97228  0.00000  0.05543
       4     C     3.09256  3.09256  0.00000 -0.18511
       5     H     0.46503  0.46503  0.00000  0.06993
       6     H     0.47348  0.47348  0.00000  0.05304
       7     C     3.09545  3.09545  0.00000 -0.19090
       8     H     0.45230  0.45230  0.00000  0.09539
       9     H     0.45354  0.45354  0.00000  0.09293
      10     C     3.09087  3.09087  0.00000 -0.18174
      11     H     0.43951  0.43951  0.00000  0.12098
      12     H     0.45853  0.45853  0.00000  0.08294
      13     C     3.15198  3.15198  0.00000 -0.30395
      14     H     0.44890  0.44890  0.00000  0.10220
      15     H     0.45412  0.45412  0.00000  0.09176
      16     H     0.45575  0.45575  0.00000  0.08850
      17     H     0.44682  0.44682  0.00000  0.10636
      18     H     0.45459  0.45459  0.00000  0.09081

   Total alpha = 25.00000, Total beta = 25.00000, Total charge =  0.00000
