  ==> Input File <==

--------------------------------------------------------------------------
set {
	reference rhf
	basis 6-31G*
}

set_num_threads( 1 )
memory 2 gb

molecule MOL {
0 1

O	 2.862325	 1.357334	 0.000267
C	 2.843464	 0.164689	 -0.000222
C	 1.546494	 -0.624492	 -0.000609
C	 4.124123	 -0.644674	 -0.000428
C	 0.291004	 0.242674	 0.000989
H	 1.557904	 -1.283758	 -0.867573
H	 1.558622	 -1.285963	 0.864672
C	 -0.994322	 -0.586602	 0.000262
H	 0.309117	 0.896430	 -0.865270
H	 0.309661	 0.894078	 0.869017
C	 -2.259874	 0.272531	 0.000494
H	 -1.004862	 -1.240012	 -0.870939
H	 -1.005220	 -1.241071	 0.870675
C	 -1.973837	 1.771744	 -0.102244
H	 -2.827174	 0.076563	 0.908671
H	 -2.898937	 -0.028715	 -0.827665
C	 -3.242888	 2.623327	 -0.101176
H	 -1.336074	 2.074288	 0.725735
H	 -1.408095	 1.969085	 -1.010457
H	 -3.814381	 2.473942	 0.810541
H	 -3.007680	 3.680689	 -0.174407
H	 -3.886387	 2.368823	 -0.938601
H	 4.165367	 -1.288615	 -0.874074
H	 4.976217	 0.020734	 -0.001915
H	 4.166763	 -1.286207	 0.874930

	symmetry c1
}
set optking {
	frozen_dihedral = ("
		9 5 8 12,
		15 11 14 18,
		1 2 3 6,
		9 5 3 6
	")
}

ee = energy('scf')
oeprop('DIPOLE', 'QUADRUPOLE', 'MULLIKEN_CHARGES')
f=open( 'psi4out.xyz', 'w' )
f.write( "25  " )
f.write( str(ee) + "\n" )
f.write( MOL.save_string_xyz() )
f.close()
--------------------------------------------------------------------------

    Molecular point group: c1

    Geometry (in Angstrom), charge = 0, multiplicity = 1:

       Center              X                  Y                   Z               Mass
    ------------   -----------------  -----------------  -----------------  -----------------
           O          2.506291781180     0.832870617605     0.023226407939    15.994914619560
           C          2.487430781180    -0.359774382395     0.022737407939    12.000000000000
           C          1.190460781180    -1.148955382395     0.022350407939    12.000000000000
           C          3.768089781180    -1.169137382395     0.022531407939    12.000000000000
           C         -0.065029218820    -0.281789382395     0.023948407939    12.000000000000
           H          1.201870781180    -1.808221382395    -0.844613592061     1.007825032070
           H          1.202588781180    -1.810426382395     0.887631407939     1.007825032070
           C         -1.350355218820    -1.111065382395     0.023221407939    12.000000000000
           H         -0.046916218820     0.371966617605    -0.842310592061     1.007825032070
           H         -0.046372218820     0.369614617605     0.891976407939     1.007825032070
           C         -2.615907218820    -0.251932382395     0.023453407939    12.000000000000
           H         -1.360895218820    -1.764475382395    -0.847979592061     1.007825032070
           H         -1.361253218820    -1.765534382395     0.893634407939     1.007825032070
           C         -2.329870218820     1.247280617605    -0.079284592061    12.000000000000
           H         -3.183207218820    -0.447900382395     0.931630407939     1.007825032070
           H         -3.254970218820    -0.553178382395    -0.804705592061     1.007825032070
           C         -3.598921218820     2.098863617605    -0.078216592061    12.000000000000
           H         -1.692107218820     1.549824617605     0.748694407939     1.007825032070
           H         -1.764128218820     1.444621617605    -0.987497592061     1.007825032070
           H         -4.170414218820     1.949478617605     0.833500407939     1.007825032070
           H         -3.363713218820     3.156225617605    -0.151447592061     1.007825032070
           H         -4.242420218820     1.844359617605    -0.915641592061     1.007825032070
           H          3.809333781180    -1.813078382395    -0.851114592061     1.007825032070
           H          4.620183781180    -0.503729382395     0.021044407939     1.007825032070
           H          3.810729781180    -1.810670382395     0.897889407939     1.007825032070

  Charge       = 0
  Multiplicity = 1
  Basis Set: 6-31G*
  Basis Set:

    Orbital Energies (a.u.)
    -----------------------

    Doubly Occupied:

       1A    -20.550104     2A    -11.325830     3A    -11.230596
       4A    -11.228050     5A    -11.215391     6A    -11.214711
       7A    -11.211692     8A    -11.210433     9A    -11.204746
      10A     -1.395420    11A     -1.096549    12A     -1.052198
      13A     -1.010929    14A     -0.968515    15A     -0.886072
      16A     -0.840651    17A     -0.761791    18A     -0.730489
      19A     -0.663193    20A     -0.650854    21A     -0.628663
      22A     -0.625653    23A     -0.592024    24A     -0.580460
      25A     -0.573127    26A     -0.561870    27A     -0.552864
      28A     -0.512324    29A     -0.509268    30A     -0.493045
      31A     -0.487826    32A     -0.485700    33A     -0.461487
      34A     -0.445322    35A     -0.438961    36A     -0.399618

  @DF-RHF Final Energy:  -387.12184143441658

   => Energetics <=

    Nuclear Repulsion Energy =            450.8703566704750187
    One-Electron Energy =               -1418.3916090732027442
    Two-Electron Energy =                 580.3994109683084162
    DFT Exchange-Correlation Energy =       0.0000000000000000
    Empirical Dispersion Energy =           0.0000000000000000
    PCM Polarization Energy =               0.0000000000000000
    EFP Energy =                            0.0000000000000000
    Total Energy =                       -387.1218414344192524

  Mulliken Charges: (a.u.)
   Center  Symbol    Alpha    Beta     Spin     Total
       1     O     4.26171  4.26171  0.00000 -0.52342
       2     C     2.73552  2.73552  0.00000  0.52896
       3     C     3.20797  3.20797  0.00000 -0.41594
       4     C     3.28671  3.28671  0.00000 -0.57341
       5     C     3.15557  3.15557  0.00000 -0.31114
       6     H     0.41059  0.41059  0.00000  0.17882
       7     H     0.41063  0.41063  0.00000  0.17874
       8     C     3.15684  3.15684  0.00000 -0.31368
       9     H     0.40968  0.40968  0.00000  0.18063
      10     H     0.41044  0.41044  0.00000  0.17912
      11     C     3.15385  3.15385  0.00000 -0.30770
      12     H     0.42247  0.42247  0.00000  0.15507
      13     H     0.42216  0.42216  0.00000  0.15567
      14     C     3.15907  3.15907  0.00000 -0.31814
      15     H     0.42147  0.42147  0.00000  0.15705
      16     H     0.42126  0.42126  0.00000  0.15747
      17     C     3.23662  3.23662  0.00000 -0.47325
      18     H     0.41837  0.41837  0.00000  0.16326
      19     H     0.41989  0.41989  0.00000  0.16022
      20     H     0.42304  0.42304  0.00000  0.15392
      21     H     0.41884  0.41884  0.00000  0.16232
      22     H     0.42317  0.42317  0.00000  0.15367
      23     H     0.40878  0.40878  0.00000  0.18245
      24     H     0.39662  0.39662  0.00000  0.20676
      25     H     0.40872  0.40872  0.00000  0.18255

   Total alpha = 36.00000, Total beta = 36.00000, Total charge =  0.00000
