                              Psi4 1.0.54 Driver

  ==> Input File <==

--------------------------------------------------------------------------
set {
	reference rhf
	basis cc-pvtz
}

set_num_threads( 4 )
memory 2 gb

molecule MOL {
0 1

O	 -2.440701	 -0.934798	 -0.415053
C	 -1.922978	 0.063265	 -0.045005
C	 -2.632749	 1.372204	 0.158357
O	 -0.637375	 0.157174	 0.243149
H	 -2.187724	 2.129143	 -0.474664
H	 -3.677681	 1.257276	 -0.079438
H	 -2.516788	 1.693160	 1.185542
C	 0.162530	 -1.009518	 0.097799
C	 1.587210	 -0.664190	 0.477086
H	 0.096803	 -1.356267	 -0.924704
H	 -0.233803	 -1.785900	 0.736810
C	 2.631022	 -1.097543	 -0.548792
H	 1.793154	 -1.143800	 1.430131
H	 1.656550	 0.406167	 0.645511
C	 4.054339	 -0.758567	 -0.118816
H	 2.548191	 -2.169031	 -0.710500
H	 2.417668	 -0.624848	 -1.500571
H	 4.774365	 -1.080268	 -0.862090
H	 4.308144	 -1.242690	 0.818521
H	 4.177023	 0.310555	 0.018822

	symmetry c1
}
set optking {
	frozen_dihedral = ("
		12 9 8 10
	")
}

ee,wfn = optimize('scf', return_wfn=True)
oeprop( wfn, 'DIPOLE', 'QUADRUPOLE', 'MULLIKEN_CHARGES')
f=open( 'psi4out.xyz', 'w' )
f.write( "20  " )
f.write( str(ee) + "\n" )
f.write( MOL.save_string_xyz() )
f.close()
--------------------------------------------------------------------------

    Molecular point group: c1
  Charge       = 0
  Multiplicity = 1
  Basis Set: CC-PVTZ
  Basis Set:
  @DF-RHF Final Energy:  -384.08187258589055
    Total Energy =                       -384.0818725858904372
    Molecular point group: c1
  Basis Set: CC-PVTZ
  Basis Set:
  Basis Set: CC-PVTZ
  Basis Set:
  @DF-RHF Final Energy:  -384.08231776077912
    Total Energy =                       -384.0823177607786647
  Basis Set: CC-PVTZ
  Basis Set:
  Basis Set: CC-PVTZ
  Basis Set:
  @DF-RHF Final Energy:  -384.08199191431601
    Total Energy =                       -384.0819919143160632
  Basis Set: CC-PVTZ
  Basis Set:
  Basis Set: CC-PVTZ
  Basis Set:
  @DF-RHF Final Energy:  -384.08239896459190
    Total Energy =                       -384.0823989645921301
  Basis Set: CC-PVTZ
  Basis Set:
  Charge       = 0
  Multiplicity = 1
  Basis Set: CC-PVTZ
  Basis Set:

    Orbital Energies (a.u.)
    -----------------------

    Doubly Occupied:

       1A    -20.594481     2A    -20.532390     3A    -11.366168
       4A    -11.279640     5A    -11.231347     6A    -11.223111
       7A    -11.221987     8A    -11.212994     9A     -1.470713
      10A     -1.364767    11A     -1.086492    12A     -1.030181
      13A     -0.980234    14A     -0.882741    15A     -0.808268
      16A     -0.781564    17A     -0.692559    18A     -0.685564
      19A     -0.671116    20A     -0.636162    21A     -0.599238
      22A     -0.594262    23A     -0.571487    24A     -0.557543
      25A     -0.545803    26A     -0.522568    27A     -0.513349
      28A     -0.482638    29A     -0.481687    30A     -0.475796
      31A     -0.450965    32A     -0.440326

  @DF-RHF Final Energy:  -384.08239975912102

   => Energetics <=

    Nuclear Repulsion Energy =            380.0901281274595931
    One-Electron Energy =               -1276.3687659841912136
    Two-Electron Energy =                 512.1962380976103759
    DFT Exchange-Correlation Energy =       0.0000000000000000
    Empirical Dispersion Energy =           0.0000000000000000
    PCM Polarization Energy =               0.0000000000000000
    EFP Energy =                            0.0000000000000000
    Total Energy =                       -384.0823997591212446
    Molecular point group: c1
  Basis Set: CC-PVTZ
  Basis Set:

  -Total Gradient:
     Atom            X                  Y                   Z
    ------   -----------------  -----------------  -----------------
       1        0.000005668336    -0.000104771978     0.000055576473
       2        0.000162930645     0.000079621037    -0.000126941714
       3       -0.000019184349     0.000026621170     0.000059907183
       4       -0.000202596935     0.000148462380     0.000110656625
       5       -0.000001538522     0.000011999035    -0.000005286575
       6        0.000031857555    -0.000025177361    -0.000000130588
       7       -0.000007169686     0.000031238443     0.000010419534
       8       -0.000336289982     0.003314626538    -0.001480413879
       9        0.000207717407    -0.002612970343     0.001324813175
      10        0.000430617796    -0.002229882136     0.000808645765
      11        0.000003209077     0.000006563485     0.000053005507
      12       -0.000233372641     0.001377362871    -0.000796788562
      13       -0.000078591256    -0.000073960449     0.000004368558
      14       -0.000034661375     0.000024566665     0.000049566886
      15        0.000054036792     0.000066167353    -0.000047000869
      16        0.000013252063    -0.000065097957     0.000014893368
      17       -0.000035814620    -0.000032645661    -0.000065908381
      18        0.000011591996     0.000026241102    -0.000003622310
      19        0.000000438183    -0.000029535691     0.000016409060
      20        0.000027899511     0.000060571500     0.000017830743

  **** Optimization is complete! (in 5 steps) ****
    Final optimized geometry and variables:
    Molecular point group: c1

    Geometry (in Angstrom), charge = 0, multiplicity = 1:

    O           -2.525959248910    -0.609962561275    -0.390022742126
    C           -2.021285828047     0.402820057012    -0.042277790395
    C           -2.748044591745     1.706446924163     0.132155732006
    O           -0.736806579140     0.520678924301     0.241661264647
    H           -2.312151659602     2.454853749760    -0.517078003357
    H           -3.791172642233     1.572576710054    -0.103555027049
    H           -2.636865884801     2.051108657218     1.152127755540
    C            0.076238889825    -0.639869627513     0.122876132654
    C            1.507134462911    -0.280501780285     0.522563458524
    H            0.026840340168    -1.006438473321    -0.892772253337
    H           -0.334096911294    -1.413533104868     0.755559964386
    C            2.548182161673    -0.742677967833    -0.494520125675
    H            1.734255648102    -0.699691080970     1.496657726987
    H            1.568656883574     0.795994359833     0.628696593265
    C            3.973355925381    -0.389987426006    -0.084395041561
    H            2.469682797536    -1.817700705709    -0.634593994408
    H            2.324888867000    -0.292845330984    -1.457601337951
    H            4.688008498838    -0.719993569621    -0.829104931298
    H            4.237050463369    -0.858629363522     0.857823906534
    H            4.091173255607     0.681771147841     0.036187739196

  Mulliken Charges: (a.u.)
   Center  Symbol    Alpha    Beta     Spin     Total
       1     O     4.19705  4.19705  0.00000 -0.39410
       2     C     2.80673  2.80673  0.00000  0.38653
       3     C     3.13769  3.13769  0.00000 -0.27538
       4     O     4.15076  4.15076  0.00000 -0.30153
       5     H     0.44609  0.44609  0.00000  0.10782
       6     H     0.43812  0.43812  0.00000  0.12376
       7     H     0.44578  0.44578  0.00000  0.10844
       8     C     2.98508  2.98508  0.00000  0.02985
       9     C     3.08968  3.08968  0.00000 -0.17937
      10     H     0.45389  0.45389  0.00000  0.09221
      11     H     0.45169  0.45169  0.00000  0.09662
      12     C     3.09051  3.09051  0.00000 -0.18101
      13     H     0.45029  0.45029  0.00000  0.09941
      14     H     0.44659  0.44659  0.00000  0.10683
      15     C     3.15025  3.15025  0.00000 -0.30050
      16     H     0.45246  0.45246  0.00000  0.09509
      17     H     0.45170  0.45170  0.00000  0.09661
      18     H     0.44715  0.44715  0.00000  0.10570
      19     H     0.45436  0.45436  0.00000  0.09128
      20     H     0.45412  0.45412  0.00000  0.09176

   Total alpha = 32.00000, Total beta = 32.00000, Total charge = -0.00000

*** Psi4 exiting successfully. Buy a developer a beer!
