  ==> Input File <==

--------------------------------------------------------------------------
set {
	reference rhf
	basis 6-31G*
}

set_num_threads( 4 )
memory 2 gb

molecule MOL {
0 1

H	 -1.223179	 -0.655187	 -1.041011
N	 -1.172117	 -0.314371	 -0.100254
C	 -0.024542	 0.565565	 0.069209
H	 -2.024593	 0.183432	 0.074546
C	 1.271298	 -0.229563	 -0.014192
H	 -0.049409	 1.297310	 -0.731596
H	 -0.046881	 1.125219	 1.006750
H	 1.332152	 -0.753033	 -0.961461
H	 2.134169	 0.422483	 0.080702
H	 1.326077	 -0.968298	 0.781395

	symmetry c1
}
set optking {
	frozen_dihedral = ("
		1 2 3 6
	")
}

ee = optimize('scf')
oeprop('DIPOLE', 'QUADRUPOLE', 'MULLIKEN_CHARGES')
f=open( 'psi4out.xyz', 'w' )
f.write( "10  " )
f.write( str(ee) + "\n" )
f.write( MOL.save_string_xyz() )
f.close()
--------------------------------------------------------------------------

    Molecular point group: c1
  Charge       = 0
  Multiplicity = 1
  Basis Set: 6-31G*
  Basis Set:
  @DF-RHF Final Energy:  -134.24527467480092
    Total Energy =                       -134.2452746748010100
    Molecular point group: c1
  Basis Set: 6-31G*
  Basis Set:
  Basis Set: 6-31G*
  Basis Set:
  @DF-RHF Final Energy:  -134.24721390261038
    Total Energy =                       -134.2472139026102695
  Basis Set: 6-31G*
  Basis Set:
  Basis Set: 6-31G*
  Basis Set:
  @DF-RHF Final Energy:  -134.24752073586296
    Total Energy =                       -134.2475207358629632
  Basis Set: 6-31G*
  Basis Set:
  Basis Set: 6-31G*
  Basis Set:
  @DF-RHF Final Energy:  -134.24752372712740
    Total Energy =                       -134.2475237271274864
  Basis Set: 6-31G*
  Basis Set:
  Charge       = 0
  Multiplicity = 1
  Basis Set: 6-31G*
  Basis Set:

    Orbital Energies (a.u.)
    -----------------------

    Doubly Occupied:

       1A    -15.533536     2A    -11.242785     3A    -11.205142
       4A     -1.176548     5A     -0.986828     6A     -0.822815
       7A     -0.663654     8A     -0.629853     9A     -0.578784
      10A     -0.515311    11A     -0.509365    12A     -0.485918
      13A     -0.383125

  @DF-RHF Final Energy:  -134.24752437846985

   => Energetics <=

    Nuclear Repulsion Energy =             83.3084283074164489
    One-Electron Energy =                -345.6445763088428293
    Two-Electron Energy =                 128.0886236229565327
    DFT Exchange-Correlation Energy =       0.0000000000000000
    Empirical Dispersion Energy =           0.0000000000000000
    PCM Polarization Energy =               0.0000000000000000
    EFP Energy =                            0.0000000000000000
    Total Energy =                       -134.2475243784698762
    Molecular point group: c1
  Basis Set: 6-31G*
  Basis Set:

  -Total Gradient:
     Atom            X                  Y                   Z
    ------   -----------------  -----------------  -----------------
       1       -0.000738070109     0.001026537193    -0.000303103706
       2        0.001102630113    -0.001475937557     0.000173534108
       3       -0.000976390755     0.001167436454     0.000836113724
       4       -0.000019445778     0.000001703642     0.000000385335
       5       -0.000004751495     0.000028035885     0.000001121042
       6        0.000646022954    -0.000757853599    -0.000715170695
       7        0.000004873973    -0.000009598435     0.000005945868
       8       -0.000011770972     0.000006991004     0.000001391967
       9        0.000008505860     0.000000335615    -0.000001525152
      10       -0.000011603792     0.000012349799     0.000001307509

  **** Optimization is complete! (in 5 steps) ****
    Final optimized geometry and variables:
    Molecular point group: c1

    Geometry (in Angstrom), charge = 0, multiplicity = 1:

    H           -1.253710640727    -0.671316831416    -0.981430246413
    N           -1.172427304258    -0.325236537719    -0.043987277924
    C           -0.023904859041     0.563869776297     0.071446178771
    H           -2.021693499072     0.170404468790     0.148749558250
    C            1.272410344248    -0.234235351916     0.021339594664
    H            0.000497577509     1.333430339053    -0.702726385077
    H           -0.095453610911     1.076055218780     1.025033319277
    H            1.367112312587    -0.760599471300    -0.924889520220
    H            2.135136471862     0.417109683472     0.125591866550
    H            1.292486095253    -0.971033651608     0.816061745892

  Mulliken Charges: (a.u.)
   Center  Symbol    Alpha    Beta     Spin     Total
       1     H     0.33532  0.33532  0.00000  0.32935
       2     N     3.91812  3.91812  0.00000 -0.83624
       3     C     3.06522  3.06522  0.00000 -0.13043
       4     H     0.33277  0.33277  0.00000  0.33446
       5     C     3.23507  3.23507  0.00000 -0.47015
       6     H     0.43346  0.43346  0.00000  0.13309
       7     H     0.41991  0.41991  0.00000  0.16018
       8     H     0.42490  0.42490  0.00000  0.15021
       9     H     0.42311  0.42311  0.00000  0.15377
      10     H     0.41212  0.41212  0.00000  0.17575

   Total alpha = 13.00000, Total beta = 13.00000, Total charge = -0.00000
