                              Psi4 1.0.54 Driver

  ==> Input File <==

--------------------------------------------------------------------------
set {
	reference rhf
	basis cc-pvtz
}

set_num_threads( 4 )
memory 2 gb

molecule MOL {
0 1

O	 -0.988175	 -1.402891	 0.050086
C	 -0.675048	 -0.248293	 -0.009686
C	 -1.742492	 0.826599	 -0.011538
N	 0.622280	 0.144970	 -0.099307
H	 -1.692153	 1.431066	 -0.908439
H	 -2.698310	 0.331559	 0.031353
H	 -1.642148	 1.483784	 0.843455
C	 0.963238	 1.231521	 -0.993233
C	 1.737965	 -0.642737	 0.368152
H	 1.726310	 1.849491	 -0.536006
H	 0.090141	 1.827692	 -1.186788
H	 1.347687	 0.858828	 -1.939240
H	 2.523504	 0.019748	 0.708265
H	 1.461950	 -1.272231	 1.196675
H	 2.149653	 -1.270661	 -0.418784

	symmetry c1
}
set optking {
	frozen_dihedral = ("
		8 4 2 3
	")
}

ee,wfn = optimize('scf', return_wfn=True)
oeprop( wfn, 'DIPOLE', 'QUADRUPOLE', 'MULLIKEN_CHARGES')
f=open( 'psi4out.xyz', 'w' )
f.write( "15  " )
f.write( str(ee) + "\n" )
f.write( MOL.save_string_xyz() )
f.close()
--------------------------------------------------------------------------

    Molecular point group: c1
  Charge       = 0
  Multiplicity = 1
  Basis Set: CC-PVTZ
  Basis Set:
  @DF-RHF Final Energy:  -286.12320462442983
    Total Energy =                       -286.1232046244297749
    Molecular point group: c1
  Basis Set: CC-PVTZ
  Basis Set:
  Basis Set: CC-PVTZ
  Basis Set:
  @DF-RHF Final Energy:  -286.12381783350594
    Total Energy =                       -286.1238178335057682
  Basis Set: CC-PVTZ
  Basis Set:
  Basis Set: CC-PVTZ
  Basis Set:
  @DF-RHF Final Energy:  -285.91149490724126
    Total Energy =                       -285.9114949072411491
  Basis Set: CC-PVTZ
  Basis Set:
  Basis Set: CC-PVTZ
  Basis Set:
  @DF-RHF Final Energy:  -286.08296895896478
    Total Energy =                       -286.0829689589646136
  Basis Set: CC-PVTZ
  Basis Set:
  @DF-RHF Final Energy:  -286.13004758879788
    Total Energy =                       -286.1300475887979928
  @DF-RHF Final Energy:  -286.13160621467159
    Total Energy =                       -286.1316062146714216
  @DF-RHF Final Energy:  -286.13294278714551
    Total Energy =                       -286.1329427871455096
  @DF-RHF Final Energy:  -286.13339901875906
    Total Energy =                       -286.1333990187591780
  Basis Set: CC-PVTZ
  Basis Set:
  @DF-RHF Final Energy:  -286.13348739639491
    Total Energy =                       -286.1334873963950827
  Basis Set: CC-PVTZ
  Basis Set:
  Basis Set: CC-PVTZ
  Basis Set:
  @DF-RHF Final Energy:  -286.13350259795686
    Total Energy =                       -286.1335025979567490
  Basis Set: CC-PVTZ
  Basis Set:
  Basis Set: CC-PVTZ
  Basis Set:
  @DF-RHF Final Energy:  -286.13350388257470
    Total Energy =                       -286.1335038825747006
  Basis Set: CC-PVTZ
  Basis Set:
  Charge       = 0
  Multiplicity = 1
  Basis Set: CC-PVTZ
  Basis Set:

    Orbital Energies (a.u.)
    -----------------------

    Doubly Occupied:

       1A    -20.514169     2A    -15.575606     3A    -11.336265
       4A    -11.262899     5A    -11.244735     6A    -11.226699
       7A     -1.395073     8A     -1.244608     9A     -1.014459
      10A     -0.970175    11A     -0.915528    12A     -0.737747
      13A     -0.682987    14A     -0.660568    15A     -0.653034
      16A     -0.594566    17A     -0.579883    18A     -0.569538
      19A     -0.560536    20A     -0.543426    21A     -0.528080
      22A     -0.503706    23A     -0.420170    24A     -0.377248

  @DF-RHF Final Energy:  -286.13350433141426

   => Energetics <=

    Nuclear Repulsion Energy =            253.2525350439696581
    One-Electron Energy =                -890.5486702728856017
    Two-Electron Energy =                 351.1626308975020265
    DFT Exchange-Correlation Energy =       0.0000000000000000
    Empirical Dispersion Energy =           0.0000000000000000
    PCM Polarization Energy =               0.0000000000000000
    EFP Energy =                            0.0000000000000000
    Total Energy =                       -286.1335043314139739
    Molecular point group: c1
  Basis Set: CC-PVTZ
  Basis Set:

  -Total Gradient:
     Atom            X                  Y                   Z
    ------   -----------------  -----------------  -----------------
       1       -0.000021877451    -0.000047841488    -0.000064862029
       2        0.001709607267     0.003068108726    -0.006524984999
       3       -0.000666564391    -0.002092255448     0.003071336650
       4       -0.002329147738    -0.000497718352     0.007396285740
       5       -0.000007388457     0.000000472265     0.000006232599
       6       -0.000001567124    -0.000001991385    -0.000010587375
       7        0.000016053854    -0.000015130774    -0.000023424852
       8        0.001278057675    -0.000391875556    -0.003891361589
       9        0.000018817892    -0.000000740066     0.000015634127
      10        0.000005292646    -0.000023576966     0.000009113467
      11       -0.000019828540     0.000010649984     0.000020685559
      12       -0.000002885207     0.000017188722    -0.000007610946
      13        0.000033137939    -0.000008974496     0.000014389632
      14       -0.000011774063    -0.000014303666    -0.000008140855
      15        0.000000065695    -0.000002011499    -0.000002705134

  **** Optimization is complete! (in 12 steps) ****
    Final optimized geometry and variables:
    Molecular point group: c1

    Geometry (in Angstrom), charge = 0, multiplicity = 1:

    O           -0.985329833467    -1.143756927476    -0.740472835420
    C           -0.677704017969    -0.174341272051    -0.114644367570
    C           -1.733476106245     0.805758912364     0.352492031090
    N            0.611215109550     0.043513192558     0.301154999274
    H           -1.721997473307     1.705728298472    -0.251486014118
    H           -2.693239908700     0.329007569813     0.236722902424
    H           -1.582317920465     1.087806980014     1.385372846021
    C            1.139635149802     1.391652744396     0.353103588097
    C            1.586668061687    -0.948151179635    -0.111897376166
    H            2.014701947108     1.406822045819     0.988293340266
    H            0.421158829012     2.079340424631     0.769004331791
    H            1.431126901049     1.751101602114    -0.631712688551
    H            2.473877366357    -0.834746530987     0.496741811992
    H            1.185415972738    -1.937252558635     0.027553579395
    H            1.864620343714    -0.839021750554    -1.157014333432

  Mulliken Charges: (a.u.)
   Center  Symbol    Alpha    Beta     Spin     Total
       1     O     4.20793  4.20793  0.00000 -0.41587
       2     C     2.84214  2.84214  0.00000  0.31571
       3     C     3.15962  3.15962  0.00000 -0.31925
       4     N     3.57828  3.57828  0.00000 -0.15656
       5     H     0.44784  0.44784  0.00000  0.10433
       6     H     0.42920  0.42920  0.00000  0.14159
       7     H     0.44719  0.44719  0.00000  0.10562
       8     C     3.09567  3.09567  0.00000 -0.19134
       9     C     3.09390  3.09390  0.00000 -0.18780
      10     H     0.44785  0.44785  0.00000  0.10430
      11     H     0.44599  0.44599  0.00000  0.10801
      12     H     0.45648  0.45648  0.00000  0.08703
      13     H     0.45593  0.45593  0.00000  0.08814
      14     H     0.43384  0.43384  0.00000  0.13233
      15     H     0.45813  0.45813  0.00000  0.08374

   Total alpha = 24.00000, Total beta = 24.00000, Total charge = -0.00000

*** Psi4 exiting successfully. Buy a developer a beer!
