  ==> Input File <==

--------------------------------------------------------------------------
set {
	reference rhf
	basis cc-pvtz
}

set_num_threads( 4 )
memory 2 gb

molecule MOL {
0 1

H	 -1.260111	 -0.582579	 -0.755879
N	 -0.625934	 -0.663929	 -0.000707
C	 -0.917050	 -1.621913	 1.039779
C	 0.468494	 0.129045	 -0.002160
H	 -1.861293	 -1.396959	 1.521224
H	 -0.131529	 -1.573980	 1.774458
H	 -0.961929	 -2.628053	 0.640145
C	 1.785715	 -0.615093	 0.000603
O	 0.413285	 1.323206	 0.000532
H	 1.866994	 -1.243310	 -0.878792
H	 2.591506	 0.100263	 0.006422
H	 1.860358	 -1.250360	 0.875522

	symmetry c1
}
set optking {
	frozen_dihedral = ("
		3 2 4 9
	")
}

ee = optimize('scf')
oeprop('DIPOLE', 'QUADRUPOLE', 'MULLIKEN_CHARGES')
f=open( 'psi4out.xyz', 'w' )
f.write( "12  " )
f.write( str(ee) + "\n" )
f.write( MOL.save_string_xyz() )
f.close()
--------------------------------------------------------------------------

    Molecular point group: c1
  Charge       = 0
  Multiplicity = 1
  Basis Set: CC-PVTZ
  Basis Set:
  @DF-RHF Final Energy:  -247.06890431198073
    Total Energy =                       -247.0689043119808730
    Molecular point group: c1
  Basis Set: CC-PVTZ
  Basis Set:
  Basis Set: CC-PVTZ
  Basis Set:
  @DF-RHF Final Energy:  -247.07615119341773
    Total Energy =                       -247.0761511934175019
  Basis Set: CC-PVTZ
  Basis Set:
  Basis Set: CC-PVTZ
  Basis Set:
  @DF-RHF Final Energy:  -247.08177383041769
    Total Energy =                       -247.0817738304176601
  Basis Set: CC-PVTZ
  Basis Set:
  Basis Set: CC-PVTZ
  Basis Set:
  @DF-RHF Final Energy:  -247.08699884009542
    Total Energy =                       -247.0869988400953048
  Basis Set: CC-PVTZ
  Basis Set:
  @DF-RHF Final Energy:  -247.08764513126596
    Total Energy =                       -247.0876451312659583
  @DF-RHF Final Energy:  -247.08869343748401
    Total Energy =                       -247.0886934374840394
  @DF-RHF Final Energy:  -247.08930729113416
    Total Energy =                       -247.0893072911341051
  @DF-RHF Final Energy:  -247.08950543187106
    Total Energy =                       -247.0895054318709754
  @DF-RHF Final Energy:  -247.08953851469320
    Total Energy =                       -247.0895385146933450
  @DF-RHF Final Energy:  -247.08965250670431
    Total Energy =                       -247.0896525067045104
  @DF-RHF Final Energy:  -247.08968701849508
    Total Energy =                       -247.0896870184949421
  @DF-RHF Final Energy:  -247.08968104418923
    Total Energy =                       -247.0896810441890921
  @DF-RHF Final Energy:  -247.08971888445475
    Total Energy =                       -247.0897188844546122
  @DF-RHF Final Energy:  -247.08973738174421
    Total Energy =                       -247.0897373817440439
  @DF-RHF Final Energy:  -247.08939890925791
    Total Energy =                       -247.0893989092577954
  @DF-RHF Final Energy:  -247.08974761556334
    Total Energy =                       -247.0897476155630557
  @DF-RHF Final Energy:  -247.08923127656288
    Total Energy =                       -247.0892312765629413
  @DF-RHF Final Energy:  -247.08975745991830
    Total Energy =                       -247.0897574599183599
  @DF-RHF Final Energy:  -247.08976746442977
    Total Energy =                       -247.0897674644296558
  @DF-RHF Final Energy:  -247.08976810386500
    Total Energy =                       -247.0897681038649125
  @DF-RHF Final Energy:  -247.08976218581290
    Total Energy =                       -247.0897621858129583
  @DF-RHF Final Energy:  -247.08643428800229
    Total Energy =                       -247.0864342880022946
  Basis Set: CC-PVTZ
  Basis Set:
  @DF-RHF Final Energy:  -247.08967333927671
    Total Energy =                       -247.0896733392768283
  Basis Set: CC-PVTZ
  Basis Set:
  Basis Set: CC-PVTZ
  Basis Set:
  @DF-RHF Final Energy:  -247.08977609500235
    Total Energy =                       -247.0897760950024917
  Basis Set: CC-PVTZ
  Basis Set:
  Basis Set: CC-PVTZ
  Basis Set:
  @DF-RHF Final Energy:  -247.08977762805438
    Total Energy =                       -247.0897776280543212
  Basis Set: CC-PVTZ
  Basis Set:
  Charge       = 0
  Multiplicity = 1
  Basis Set: CC-PVTZ
  Basis Set:

    Orbital Energies (a.u.)
    -----------------------

    Doubly Occupied:

       1A    -20.527575     2A    -15.566701     3A    -11.342754
       4A    -11.265631     5A    -11.229091     6A     -1.404418
       7A     -1.226728     8A     -1.008727     9A     -0.945962
      10A     -0.772576    11A     -0.679915    12A     -0.665245
      13A     -0.636275    14A     -0.599554    15A     -0.578768
      16A     -0.566573    17A     -0.549852    18A     -0.508641
      19A     -0.433247    20A     -0.398610

  @DF-RHF Final Energy:  -247.08977839881399

   => Energetics <=

    Nuclear Repulsion Energy =            181.6229811581495426
    One-Electron Energy =                -695.6118332941846347
    Two-Electron Energy =                 266.8990737372211015
    DFT Exchange-Correlation Energy =       0.0000000000000000
    Empirical Dispersion Energy =           0.0000000000000000
    PCM Polarization Energy =               0.0000000000000000
    EFP Energy =                            0.0000000000000000
    Total Energy =                       -247.0897783988140191
    Molecular point group: c1
  Basis Set: CC-PVTZ
  Basis Set:

  -Total Gradient:
     Atom            X                  Y                   Z
    ------   -----------------  -----------------  -----------------
       1        0.000096405973    -0.000016679432    -0.000123045580
       2        0.006296181582    -0.007228920360     0.000282570377
       3       -0.004726273991     0.004936426165     0.002308231979
       4       -0.000204169523     0.001966797497    -0.010991176178
       5        0.000053171018    -0.000016093406     0.000062777312
       6       -0.000006535598    -0.000042326744    -0.000009469038
       7       -0.000026340961     0.000002027641     0.000029166490
       8        0.000038028301     0.000012551076    -0.000221956164
       9       -0.001483075839     0.000446123441     0.008672402339
      10       -0.000035117229    -0.000029084472     0.000013722621
      11       -0.000021819552    -0.000014912074    -0.000021864684
      12        0.000019545820    -0.000015909330    -0.000001359475

  **** Optimization is complete! (in 26 steps) ****
    Final optimized geometry and variables:
    Molecular point group: c1

    Geometry (in Angstrom), charge = 0, multiplicity = 1:

    H           -1.608054729439    -0.012913797657    -0.614214018848
    N           -0.782360969805    -0.505864778938    -0.346890122422
    C           -1.059705304721    -1.369115597066     0.793058138811
    C            0.239930406910     0.426324818011    -0.239094963605
    H           -1.287982124126    -0.810423705912     1.696390659343
    H           -0.219897712417    -2.019860800592     0.992984015607
    H           -1.906737162236    -1.994737283109     0.551944571969
    C            1.613568245473    -0.121526971940     0.064389167151
    O            0.037534975000     1.592739318721    -0.354634543752
    H            1.783285555404    -1.065822355724    -0.433760497573
    H            2.350752469319     0.604130482688    -0.240995923162
    H            1.711762361680    -0.276989797154     1.133156212902

  Mulliken Charges: (a.u.)
   Center  Symbol    Alpha    Beta     Spin     Total
       1     H     0.43014  0.43014  0.00000  0.13973
       2     N     3.61728  3.61728  0.00000 -0.23456
       3     C     3.08914  3.08914  0.00000 -0.17829
       4     C     2.84009  2.84009  0.00000  0.31982
       5     H     0.45776  0.45776  0.00000  0.08448
       6     H     0.45155  0.45155  0.00000  0.09690
       7     H     0.44349  0.44349  0.00000  0.11302
       8     C     3.15732  3.15732  0.00000 -0.31464
       9     O     4.19066  4.19066  0.00000 -0.38133
      10     H     0.44375  0.44375  0.00000  0.11249
      11     H     0.43091  0.43091  0.00000  0.13819
      12     H     0.44790  0.44790  0.00000  0.10419

   Total alpha = 20.00000, Total beta = 20.00000, Total charge = -0.00000
