  ==> Input File <==

--------------------------------------------------------------------------
set {
	reference rhf
	basis 6-31G*
}

set_num_threads( 4 )
memory 2 gb

molecule MOL {
0 1

H	 -3.892951	 0.981613	 -0.358725
C	 -3.196921	 0.361773	 0.172313
C	 -2.076860	 -0.007332	 -0.404944
H	 -3.439953	 0.057760	 1.173024
O	 -0.933501	 0.717919	 -0.288316
H	 -1.991666	 -0.909481	 -0.984655
C	 0.154949	 0.358018	 -1.067801
C	 0.105833	 1.008833	 -2.431737
H	 0.224879	 -0.714899	 -1.207994
H	 1.047297	 0.704403	 -0.567584
F	 1.182380	 0.664663	 -3.123401
F	 -0.954904	 0.623167	 -3.121614
F	 0.077350	 2.323090	 -2.352307

	symmetry c1
}
set optking {
	frozen_dihedral = ("
		6 3 2 1
	")
}

ee = optimize('scf')
oeprop('DIPOLE', 'QUADRUPOLE', 'MULLIKEN_CHARGES')
f=open( 'psi4out.xyz', 'w' )
f.write( "13  " )
f.write( str(ee) + "\n" )
f.write( MOL.save_string_xyz() )
f.close()
--------------------------------------------------------------------------

    Molecular point group: c1
  Charge       = 0
  Multiplicity = 1
  Basis Set: 6-31G*
  Basis Set:
  @DF-RHF Final Energy:  -527.38074072913059
    Total Energy =                       -527.3807407291305935
    Molecular point group: c1
  Basis Set: 6-31G*
  Basis Set:
  Basis Set: 6-31G*
  Basis Set:
  @DF-RHF Final Energy:  -527.41199086655683
    Total Energy =                       -527.4119908665572893
  Basis Set: 6-31G*
  Basis Set:
  Basis Set: 6-31G*
  Basis Set:
  @DF-RHF Final Energy:  -527.44292902668019
    Total Energy =                       -527.4429290266804173
  Basis Set: 6-31G*
  Basis Set:
  Basis Set: 6-31G*
  Basis Set:
  @DF-RHF Final Energy:  -527.45540018235283
    Total Energy =                       -527.4554001823527187
  Basis Set: 6-31G*
  Basis Set:
  @DF-RHF Final Energy:  -527.46738939159206
    Total Energy =                       -527.4673893915924054
  @DF-RHF Final Energy:  -527.46907200684541
    Total Energy =                       -527.4690720068457495
  @DF-RHF Final Energy:  -527.46948260354816
    Total Energy =                       -527.4694826035479309
  @DF-RHF Final Energy:  -527.46967471653238
    Total Energy =                       -527.4696747165326087
  @DF-RHF Final Energy:  -527.34936814533307
    Total Energy =                       -527.3493681453330737
  @DF-RHF Final Energy:  -527.35675102093307
    Total Energy =                       -527.3567510209329612
  @DF-RHF Final Energy:  -527.45022685306162
    Total Energy =                       -527.4502268530618494
  @DF-RHF Final Energy:  -527.31387912061678
    Total Energy =                       -527.3138791206166616
  @DF-RHF Final Energy:  -527.32389865042023
    Total Energy =                       -527.3238986504197783
  @DF-RHF Final Energy:  -527.34032100800891
    Total Energy =                       -527.3403210080084591
  @DF-RHF Final Energy:  -527.41741565230188
    Total Energy =                       -527.4174156523015427
  @DF-RHF Final Energy:  -527.43211436249612
    Total Energy =                       -527.4321143624961223
  @DF-RHF Final Energy:  -527.31396585227969
    Total Energy =                       -527.3139658522800346
  @DF-RHF Final Energy:  -527.42807494945237
    Total Energy =                       -527.4280749494528209
  @DF-RHF Final Energy:  -527.44739694949385
    Total Energy =                       -527.4473969494937364
  @DF-RHF Final Energy:  -527.45304894994206
    Total Energy =                       -527.4530489499417172
  @DF-RHF Final Energy:  -527.44876993415915
    Total Energy =                       -527.4487699341593725
  @DF-RHF Final Energy:  -527.40218394024578
    Total Energy =                       -527.4021839402464593
  @DF-RHF Final Energy:  -527.28926887178557
    Total Energy =                       -527.2892688717859073
  @DF-RHF Final Energy:  -527.29003108113477
    Total Energy =                       -527.2900310811346571
  @DF-RHF Final Energy:  -527.35591699152178
    Total Energy =                       -527.3559169915217808
  @DF-RHF Final Energy:  -527.39090333846457
    Total Energy =                       -527.3909033384647955
  @DF-RHF Final Energy:  -527.41327208613473
    Total Energy =                       -527.4132720861349526
  @DF-RHF Final Energy:  -527.42731691272274
    Total Energy =                       -527.4273169127224037
  @DF-RHF Final Energy:  -527.45447859394210
    Total Energy =                       -527.4544785939416442
  @DF-RHF Final Energy:  -527.46170893789917
    Total Energy =                       -527.4617089378990613
  @DF-RHF Final Energy:  -527.45028598802787
    Total Energy =                       -527.4502859880275309
  @DF-RHF Final Energy:  -527.46439199332372
    Total Energy =                       -527.4643919933237157
  @DF-RHF Final Energy:  -527.46561000581471
    Total Energy =                       -527.4656100058145967
  @DF-RHF Final Energy:  -527.46575751004036
    Total Energy =                       -527.4657575100403619
  @DF-RHF Final Energy:  -527.46618854424037
    Total Energy =                       -527.4661885442403673
  @DF-RHF Final Energy:  -527.46644046928611
    Total Energy =                       -527.4664404692864537
  Basis Set: 6-31G*
  Basis Set:
  @DF-RHF Final Energy:  -527.46660279378398
    Total Energy =                       -527.4666027937842046
  Basis Set: 6-31G*
  Basis Set:
  Basis Set: 6-31G*
  Basis Set:
  @DF-RHF Final Energy:  -527.45119844676469
    Total Energy =                       -527.4511984467646926
  Basis Set: 6-31G*
  Basis Set:
  Basis Set: 6-31G*
  Basis Set:
  @DF-RHF Final Energy:  -527.46532249768404
    Total Energy =                       -527.4653224976841557
  Basis Set: 6-31G*
  Basis Set:
  Charge       = 0
  Multiplicity = 1
  Basis Set: 6-31G*
  Basis Set:

    Orbital Energies (a.u.)
    -----------------------

    Doubly Occupied:

       1A    -26.347875     2A    -26.347567     3A    -26.345692
       4A    -20.607187     5A    -11.506304     6A    -11.318638
       7A    -11.317797     8A    -11.219030     9A     -1.746383
      10A     -1.644672    11A     -1.642644    12A     -1.437600
      13A     -1.084029    14A     -1.019588    15A     -0.928438
      16A     -0.840680    17A     -0.835550    18A     -0.828455
      19A     -0.789913    20A     -0.726115    21A     -0.714491
      22A     -0.703169    23A     -0.677371    24A     -0.662058
      25A     -0.659814    26A     -0.647501    27A     -0.629399
      28A     -0.598439    29A     -0.534609    30A     -0.528916
      31A     -0.489925    32A     -0.339958

  @DF-RHF Final Energy:  -527.46673786430165

   => Energetics <=

    Nuclear Repulsion Energy =            412.7228716222684852
    One-Electron Energy =               -1548.9395973609150587
    Two-Electron Energy =                 608.7499878743446970
    DFT Exchange-Correlation Energy =       0.0000000000000000
    Empirical Dispersion Energy =           0.0000000000000000
    PCM Polarization Energy =               0.0000000000000000
    EFP Energy =                            0.0000000000000000
    Total Energy =                       -527.4667378643018765
    Molecular point group: c1
  Basis Set: 6-31G*
  Basis Set:

  -Total Gradient:
     Atom            X                  Y                   Z
    ------   -----------------  -----------------  -----------------
       1       -0.037479561247    -0.019737077407    -0.031811341977
       2        0.047972450264     0.044016631023     0.048074102332
       3       -0.010854490590    -0.065190937891     0.002635440579
       4        0.000246886518     0.004265782378    -0.000699991391
       5        0.005320752355     0.000993557877    -0.001296852378
       6       -0.002911213599     0.036726655851    -0.019290773891
       7       -0.006047249438     0.008191700622     0.000917760248
       8       -0.000489694899     0.006511869049    -0.003626604209
       9        0.000927548252    -0.004872276916     0.002362670115
      10        0.001134703706    -0.004500027168    -0.001284737789
      11        0.002153130790     0.000920259359    -0.000438102680
      12        0.000275386736    -0.001086788950     0.002307536822
      13       -0.000248648842    -0.006239347822     0.002150894207

    Molecular point group: c1

    Geometry (in Angstrom), charge = 0, multiplicity = 1:

    H           -3.054279603649     0.550936504140     2.304804647339
    C           -2.397217319761    -0.304775060106     2.261823923581
    C           -1.389231024060    -0.645104416432     1.460980887342
    H           -3.131065490150    -1.099988936137     2.140979838268
    O           -0.259232311090     0.119843016581     1.406007429759
    H           -1.500174155461    -1.210259445700     0.553629346931
    C            0.791352088801    -0.340352670806     0.630982428374
    C            0.682949215063     0.132331715259    -0.805463615357
    H            0.856477827839    -1.428647979808     0.634369698352
    H            1.716207612629     0.033563109779     1.043701914884
    F            1.842709452895    -0.009302705033    -1.430882446697
    F           -0.217505806587    -0.582749848130    -1.469744703764
    F            0.324697333398     1.389856778696    -0.878563575082

  Mulliken Charges: (a.u.)
   Center  Symbol    Alpha    Beta     Spin     Total
       1     H     0.38678  0.38678  0.00000  0.22644
       2     C     3.23885  3.23885  0.00000 -0.47770
       3     C     2.90830  2.90830  0.00000  0.18341
       4     H     0.42724  0.42724  0.00000  0.14551
       5     O     4.29109  4.29109  0.00000 -0.58219
       6     H     0.39183  0.39183  0.00000  0.21633
       7     C     3.07026  3.07026  0.00000 -0.14052
       8     C     2.45662  2.45662  0.00000  1.08676
       9     H     0.40441  0.40441  0.00000  0.19118
      10     H     0.38920  0.38920  0.00000  0.22160
      11     F     4.68169  4.68169  0.00000 -0.36338
      12     F     4.68396  4.68396  0.00000 -0.36792
      13     F     4.66977  4.66977  0.00000 -0.33953

   Total alpha = 32.00000, Total beta = 32.00000, Total charge = -0.00000
