                              Psi4 1.0.54 Driver

  ==> Input File <==

--------------------------------------------------------------------------
set {
	reference rhf
	basis cc-pvtz
}

set_num_threads( 4 )
memory 2 gb

molecule MOL {
0 1

O	 1.822136	 1.338703	 -0.220097
C	 1.630157	 0.247886	 -0.637589
C	 0.308144	 -0.475757	 -0.621356
O	 2.577608	 -0.494679	 -1.186543
C	 -0.824290	 0.329213	 -0.000115
H	 0.079668	 -0.749379	 -1.646236
H	 0.461044	 -1.411328	 -0.093370
C	 -2.146151	 -0.432825	 -0.000068
H	 -0.937265	 1.262495	 -0.540017
H	 -0.555324	 0.600001	 1.014588
C	 -3.366283	 0.483552	 0.000557
H	 -2.189286	 -1.084450	 -0.869996
H	 -2.188867	 -1.085083	 0.869399
C	 -4.687436	 -0.278003	 0.000108
H	 -3.325150	 1.134819	 -0.867957
H	 -3.325087	 1.133730	 0.869885
H	 -4.773783	 -0.912098	 -0.876078
H	 -5.531922	 0.401392	 0.000363
H	 -4.773901	 -0.912898	 0.875703
C	 3.873791	 0.062718	 -1.267427
H	 3.864518	 0.964950	 -1.860810
H	 4.490761	 -0.685659	 -1.737669
H	 4.252096	 0.292683	 -0.282432

	symmetry c1
}
set optking {
	frozen_dihedral = ("
		9 5 8 12
	")
}

ee,wfn = optimize('scf', return_wfn=True)
oeprop( wfn, 'DIPOLE', 'QUADRUPOLE', 'MULLIKEN_CHARGES')
f=open( 'psi4out.xyz', 'w' )
f.write( "23  " )
f.write( str(ee) + "\n" )
f.write( MOL.save_string_xyz() )
f.close()
--------------------------------------------------------------------------

    Molecular point group: c1
  Charge       = 0
  Multiplicity = 1
  Basis Set: CC-PVTZ
  Basis Set:
  @DF-RHF Final Energy:  -423.12879398150022
    Total Energy =                       -423.1287939815003938
    Molecular point group: c1
  Basis Set: CC-PVTZ
  Basis Set:
  Basis Set: CC-PVTZ
  Basis Set:
  @DF-RHF Final Energy:  -423.12899505892773
    Total Energy =                       -423.1289950589275577
  Basis Set: CC-PVTZ
  Basis Set:
  Basis Set: CC-PVTZ
  Basis Set:
  @DF-RHF Final Energy:  -423.12885111027583
    Total Energy =                       -423.1288511102759458
  Basis Set: CC-PVTZ
  Basis Set:
  Basis Set: CC-PVTZ
  Basis Set:
  @DF-RHF Final Energy:  -423.12909181654192
    Total Energy =                       -423.1290918165418589
  Basis Set: CC-PVTZ
  Basis Set:
  Basis Set: CC-PVTZ
  Basis Set:
  @DF-RHF Final Energy:  -423.12909825965124
    Total Energy =                       -423.1290982596511867
  Basis Set: CC-PVTZ
  Basis Set:
  Charge       = 0
  Multiplicity = 1
  Basis Set: CC-PVTZ
  Basis Set:

    Orbital Energies (a.u.)
    -----------------------

    Doubly Occupied:

       1A    -20.596364     2A    -20.534202     3A    -11.364613
       4A    -11.278522     5A    -11.234258     6A    -11.216888
       7A    -11.215699     8A    -11.214982     9A    -11.207862
      10A     -1.472260    11A     -1.365845    12A     -1.093753
      13A     -1.045026    14A     -0.987870    15A     -0.932722
      16A     -0.844722    17A     -0.796236    18A     -0.769562
      19A     -0.700216    20A     -0.686330    21A     -0.675804
      22A     -0.648333    23A     -0.611591    24A     -0.600957
      25A     -0.574032    26A     -0.560609    27A     -0.556699
      28A     -0.526433    29A     -0.522813    30A     -0.507180
      31A     -0.485761    32A     -0.470872    33A     -0.465481
      34A     -0.463476    35A     -0.457191    36A     -0.438469

  @DF-RHF Final Energy:  -423.12909861328114

   => Energetics <=

    Nuclear Repulsion Energy =            452.8215369835180582
    One-Electron Energy =               -1473.6540073452008528
    Two-Electron Energy =                 597.7033717484019917
    DFT Exchange-Correlation Energy =       0.0000000000000000
    Empirical Dispersion Energy =           0.0000000000000000
    PCM Polarization Energy =               0.0000000000000000
    EFP Energy =                            0.0000000000000000
    Total Energy =                       -423.1290986132808030
    Molecular point group: c1
  Basis Set: CC-PVTZ
  Basis Set:

  -Total Gradient:
     Atom            X                  Y                   Z
    ------   -----------------  -----------------  -----------------
       1       -0.000003593568     0.000023894403     0.000003044234
       2        0.000022771234    -0.000011481819     0.000003572337
       3        0.000016977621    -0.000007592991     0.000020901825
       4       -0.000014403910    -0.000015212242    -0.000003917934
       5        0.001718618900    -0.003011771839    -0.003843422975
       6       -0.000010662250     0.000007879364    -0.000008330280
       7        0.000001467662    -0.000008326048    -0.000001150394
       8       -0.002419878018     0.004141636219    -0.001789699565
       9       -0.001032842187     0.001856777371     0.003469201804
      10        0.000004581322    -0.000006608568    -0.000001322881
      11        0.000007817860     0.000002197744     0.000042046470
      12        0.001757113698    -0.002983795405     0.002111846812
      13       -0.000014286537     0.000000585007     0.000004410927
      14       -0.000027410625     0.000004801613    -0.000016494726
      15        0.000010865962     0.000006717854    -0.000020183909
      16        0.000003332522     0.000018630596     0.000025202421
      17       -0.000008560149    -0.000016642940    -0.000020967394
      18       -0.000017024116     0.000000677229    -0.000005232200
      19       -0.000001242252    -0.000010062741     0.000028548457
      20        0.000007967259     0.000002384606    -0.000000648915
      21       -0.000002203821     0.000006300051    -0.000005201394
      22       -0.000001251376    -0.000002790270    -0.000002154527
      23        0.000001844769     0.000001802807     0.000009951809

  **** Optimization is complete! (in 6 steps) ****
    Final optimized geometry and variables:
    Molecular point group: c1

    Geometry (in Angstrom), charge = 0, multiplicity = 1:

    O            1.876500732314     1.244822751466     0.244395045714
    C            1.689131587390     0.161105005114    -0.193166384711
    C            0.361313243967    -0.551165922695    -0.229606731398
    O            2.647500464505    -0.582545413504    -0.721361789689
    C           -0.784622069817     0.255350447376     0.360456111366
    H            0.165611786378    -0.813022556563    -1.264078313849
    H            0.487584947461    -1.493229341970     0.294458670254
    C           -2.108193037858    -0.514547091407     0.374610300141
    H           -0.899832959082     1.191601588484    -0.173857040200
    H           -0.527680105043     0.545389628518     1.372981261321
    C           -3.335868131318     0.386806988091     0.443396777113
    H           -2.170416587672    -1.167594073302    -0.492953776919
    H           -2.113718042152    -1.186635579418     1.229974168148
    C           -4.645800775997    -0.388412128222     0.533127322182
    H           -3.355644412989     1.029912450220    -0.431876247327
    H           -3.246520031716     1.046225040611     1.302486167217
    H           -4.775787538511    -1.037875691874    -0.326385016214
    H           -5.496579917117     0.282000647830     0.572032960329
    H           -4.673396801054    -1.009510311474     1.422278622897
    C            3.950021761693    -0.035206796587    -0.753919941007
    H            3.966924310208     0.874583822338    -1.335516382248
    H            4.575575258727    -0.782717517688    -1.214130276359
    H            4.298788556653     0.178961919721     0.245461211687

  Mulliken Charges: (a.u.)
   Center  Symbol    Alpha    Beta     Spin     Total
       1     O     4.19678  4.19678  0.00000 -0.39356
       2     C     2.80736  2.80736  0.00000  0.38527
       3     C     3.10039  3.10039  0.00000 -0.20077
       4     O     4.14662  4.14662  0.00000 -0.29324
       5     C     3.08575  3.08575  0.00000 -0.17149
       6     H     0.43997  0.43997  0.00000  0.12006
       7     H     0.43929  0.43929  0.00000  0.12142
       8     C     3.09025  3.09025  0.00000 -0.18050
       9     H     0.44707  0.44707  0.00000  0.10586
      10     H     0.44548  0.44548  0.00000  0.10904
      11     C     3.08374  3.08374  0.00000 -0.16749
      12     H     0.45673  0.45673  0.00000  0.08655
      13     H     0.45432  0.45432  0.00000  0.09135
      14     C     3.15029  3.15029  0.00000 -0.30058
      15     H     0.45377  0.45377  0.00000  0.09246
      16     H     0.45230  0.45230  0.00000  0.09540
      17     H     0.45533  0.45533  0.00000  0.08933
      18     H     0.44784  0.44784  0.00000  0.10433
      19     H     0.45497  0.45497  0.00000  0.09007
      20     C     3.03777  3.03777  0.00000 -0.07554
      21     H     0.45435  0.45435  0.00000  0.09130
      22     H     0.44532  0.44532  0.00000  0.10936
      23     H     0.45433  0.45433  0.00000  0.09135

   Total alpha = 36.00000, Total beta = 36.00000, Total charge = -0.00000

*** Psi4 exiting successfully. Buy a developer a beer!
