  ==> Input File <==

--------------------------------------------------------------------------
set {
	reference rhf
	basis cc-pvtz
}

set_num_threads( 4 )
memory 2 gb

molecule MOL {
0 1

H	 1.319724	 -1.482011	 -0.479293
O	 1.675515	 -0.612943	 -0.465627
C	 1.135873	 0.113391	 0.608264
C	 0.027642	 1.012027	 0.090274
H	 1.902972	 0.727968	 1.072615
H	 0.756163	 -0.561896	 1.370018
C	 -1.138737	 0.285728	 -0.581921
H	 0.464661	 1.708096	 -0.618252
H	 -0.340737	 1.603071	 0.925246
C	 -1.933983	 -0.631436	 0.343653
H	 -0.763151	 -0.285569	 -1.422081
H	 -1.808359	 1.035291	 -0.992333
H	 -2.789188	 -1.049673	 -0.174718
H	 -1.335629	 -1.461368	 0.700418
H	 -2.305435	 -0.092167	 1.209725

	symmetry c1
}
set optking {
	frozen_dihedral = ("
		1 2 3 4
	")
}

ee = optimize('scf')
oeprop('DIPOLE', 'QUADRUPOLE', 'MULLIKEN_CHARGES')
f=open( 'psi4out.xyz', 'w' )
f.write( "15  " )
f.write( str(ee) + "\n" )
f.write( MOL.save_string_xyz() )
f.close()
--------------------------------------------------------------------------

    Molecular point group: c1
  Charge       = 0
  Multiplicity = 1
  Basis Set: CC-PVTZ
  Basis Set:
  @DF-RHF Final Energy:  -232.23509497580301
    Total Energy =                       -232.2350949758032357
    Molecular point group: c1
  Basis Set: CC-PVTZ
  Basis Set:
  Basis Set: CC-PVTZ
  Basis Set:
  @DF-RHF Final Energy:  -232.23594334984264
    Total Energy =                       -232.2359433498425574
  Basis Set: CC-PVTZ
  Basis Set:
  Basis Set: CC-PVTZ
  Basis Set:
  @DF-RHF Final Energy:  -232.23615534459526
    Total Energy =                       -232.2361553445954883
  Basis Set: CC-PVTZ
  Basis Set:
  Charge       = 0
  Multiplicity = 1
  Basis Set: CC-PVTZ
  Basis Set:

    Orbital Energies (a.u.)
    -----------------------

    Doubly Occupied:

       1A    -20.545796     2A    -11.265466     3A    -11.215006
       4A    -11.211730     5A    -11.211221     6A     -1.363137
       7A     -1.069245     8A     -0.975431     9A     -0.876707
      10A     -0.782486    11A     -0.704288    12A     -0.645494
      13A     -0.613096    14A     -0.585071    15A     -0.567541
      16A     -0.542963    17A     -0.504942    18A     -0.491775
      19A     -0.473696    20A     -0.457865    21A     -0.428603

  @DF-RHF Final Energy:  -232.23615463025095

   => Energetics <=

    Nuclear Repulsion Energy =            191.5013081342262353
    One-Electron Energy =                -694.4118088757745682
    Two-Electron Energy =                 270.6743461112972113
    DFT Exchange-Correlation Energy =       0.0000000000000000
    Empirical Dispersion Energy =           0.0000000000000000
    PCM Polarization Energy =               0.0000000000000000
    EFP Energy =                            0.0000000000000000
    Total Energy =                       -232.2361546302511215
    Molecular point group: c1
  Basis Set: CC-PVTZ
  Basis Set:

  -Total Gradient:
     Atom            X                  Y                   Z
    ------   -----------------  -----------------  -----------------
       1        0.000597199013    -0.000244907886     0.000544074820
       2       -0.000593267073     0.000506956318    -0.000542315201
       3       -0.000426671392    -0.000550363330     0.000135347076
       4        0.000376155281     0.000370487902    -0.000105890120
       5        0.000043500838    -0.000032626431    -0.000005708748
       6       -0.000025067564    -0.000102794617    -0.000027062357
       7       -0.000117122851     0.000136220832     0.000034158808
       8        0.000040626128    -0.000050758836    -0.000002736502
       9        0.000003397776    -0.000008093639    -0.000029960152
      10        0.000061045998    -0.000011976655     0.000038172695
      11       -0.000018143675     0.000039541408    -0.000037841360
      12       -0.000022525073    -0.000020308454     0.000000692555
      13        0.000007284362    -0.000026705892    -0.000017448577
      14        0.000082083249    -0.000006174309     0.000050514693
      15       -0.000008495016     0.000001503588    -0.000033997628

  **** Optimization is complete! (in 4 steps) ****
    Final optimized geometry and variables:
    Molecular point group: c1

    Geometry (in Angstrom), charge = 0, multiplicity = 1:

    H            1.435053203746    -1.479249720997    -0.497607882552
    O            1.762691768162    -0.601763694438    -0.449564582826
    C            1.139441303348     0.103093044781     0.595493410978
    C            0.023940132320     1.008291575039     0.093345686502
    H            1.902784507222     0.710960142902     1.065237418888
    H            0.773391432698    -0.583393942990     1.352060804309
    C           -1.149145017440     0.291294041869    -0.576237056881
    H            0.458260287942     1.707767834364    -0.613301874807
    H           -0.339192243564     1.595259313450     0.934246049511
    C           -1.954988215446    -0.614504126907     0.352323955652
    H           -0.780882200847    -0.283909334428    -1.419297152083
    H           -1.813446086129     1.041227716020    -0.993268974652
    H           -2.800106419437    -1.047030268685    -0.170590459421
    H           -1.361752749664    -1.435416647067     0.739884587503
    H           -2.341108079533    -0.060447731177     1.201759465770

  Mulliken Charges: (a.u.)
   Center  Symbol    Alpha    Beta     Spin     Total
       1     H     0.39102  0.39102  0.00000  0.21797
       2     O     4.20818  4.20818  0.00000 -0.41635
       3     C     2.98558  2.98558  0.00000  0.02884
       4     C     3.08583  3.08583  0.00000 -0.17165
       5     H     0.44945  0.44945  0.00000  0.10111
       6     H     0.46694  0.46694  0.00000  0.06611
       7     C     3.10119  3.10119  0.00000 -0.20237
       8     H     0.44864  0.44864  0.00000  0.10273
       9     H     0.45610  0.45610  0.00000  0.08780
      10     C     3.15233  3.15233  0.00000 -0.30467
      11     H     0.44930  0.44930  0.00000  0.10141
      12     H     0.44715  0.44715  0.00000  0.10569
      13     H     0.44533  0.44533  0.00000  0.10935
      14     H     0.45922  0.45922  0.00000  0.08155
      15     H     0.45375  0.45375  0.00000  0.09250

   Total alpha = 21.00000, Total beta = 21.00000, Total charge =  0.00000
