                              Psi4 1.0.54 Driver

  ==> Input File <==

--------------------------------------------------------------------------
set {
	reference rhf
	basis cc-pvtz
}

set_num_threads( 4 )
memory 2 gb

molecule MOL {
0 1

H	 3.459101	 0.139266	 -0.762951
C	 2.749156	 -0.051729	 0.031265
C	 1.322304	 0.099773	 -0.484271
H	 2.929445	 -1.053887	 0.403481
H	 2.954281	 0.646699	 0.834672
C	 0.308557	 -0.162619	 0.622645
H	 1.143368	 -0.594400	 -1.295960
H	 1.169532	 1.100095	 -0.870217
N	 -1.069352	 -0.004081	 0.085342
H	 0.371632	 -1.172932	 0.991288
H	 0.400391	 0.548875	 1.426218
O	 -1.184320	 0.105431	 -1.089122
O	 -1.957125	 0.031246	 0.869914

	symmetry c1
}
set optking {
	frozen_dihedral = ("
		12 9 6 3
	")
}

ee,wfn = optimize('scf', return_wfn=True)
oeprop( wfn, 'DIPOLE', 'QUADRUPOLE', 'MULLIKEN_CHARGES')
f=open( 'psi4out.xyz', 'w' )
f.write( "13  " )
f.write( str(ee) + "\n" )
f.write( MOL.save_string_xyz() )
f.close()
--------------------------------------------------------------------------

    Molecular point group: c1
  Charge       = 0
  Multiplicity = 1
  Basis Set: CC-PVTZ
  Basis Set:
  @DF-RHF Final Energy:  -321.85847747598933
    Total Energy =                       -321.8584774759892753
    Molecular point group: c1
  Basis Set: CC-PVTZ
  Basis Set:
  Basis Set: CC-PVTZ
  Basis Set:
  @DF-RHF Final Energy:  -321.85762203512411
    Total Energy =                       -321.8576220351240522
  Basis Set: CC-PVTZ
  Basis Set:
  Basis Set: CC-PVTZ
  Basis Set:
  @DF-RHF Final Energy:  -321.85528106067267
    Total Energy =                       -321.8552810606727235
  Basis Set: CC-PVTZ
  Basis Set:
  Basis Set: CC-PVTZ
  Basis Set:
  @DF-RHF Final Energy:  -321.85738894332451
    Total Energy =                       -321.8573889433244517
  Basis Set: CC-PVTZ
  Basis Set:
  Basis Set: CC-PVTZ
  Basis Set:
  @DF-RHF Final Energy:  -321.86011774502754
    Total Energy =                       -321.8601177450276509
  Basis Set: CC-PVTZ
  Basis Set:
  Basis Set: CC-PVTZ
  Basis Set:
  @DF-RHF Final Energy:  -321.86051035688610
    Total Energy =                       -321.8605103568863228
  Basis Set: CC-PVTZ
  Basis Set:
  Basis Set: CC-PVTZ
  Basis Set:
  @DF-RHF Final Energy:  -321.86052808758342
    Total Energy =                       -321.8605280875837025
  Basis Set: CC-PVTZ
  Basis Set:
  Charge       = 0
  Multiplicity = 1
  Basis Set: CC-PVTZ
  Basis Set:

    Orbital Energies (a.u.)
    -----------------------

    Doubly Occupied:

       1A    -20.593615     2A    -20.587541     3A    -15.838520
       4A    -11.299157     5A    -11.246962     6A    -11.234924
       7A     -1.637276     8A     -1.421329     9A     -1.131618
      10A     -1.026631    11A     -0.884920    12A     -0.826446
      13A     -0.762878    14A     -0.753262    15A     -0.730921
      16A     -0.657081    17A     -0.607552    18A     -0.575599
      19A     -0.554501    20A     -0.522253    21A     -0.509628
      22A     -0.488557    23A     -0.474513    24A     -0.453455

  @DF-RHF Final Energy:  -321.86052884467802

   => Energetics <=

    Nuclear Repulsion Energy =            247.6307898010532824
    One-Electron Energy =                -929.3443626505207931
    Two-Electron Energy =                 359.8530440047892967
    DFT Exchange-Correlation Energy =       0.0000000000000000
    Empirical Dispersion Energy =           0.0000000000000000
    PCM Polarization Energy =               0.0000000000000000
    EFP Energy =                            0.0000000000000000
    Total Energy =                       -321.8605288446781856
    Molecular point group: c1
  Basis Set: CC-PVTZ
  Basis Set:

  -Total Gradient:
     Atom            X                  Y                   Z
    ------   -----------------  -----------------  -----------------
       1        0.000002407413     0.000002526764     0.000000591259
       2        0.000018328145     0.000010347622     0.000005007129
       3       -0.000031118773    -0.000119740760    -0.000015005894
       4       -0.000007109425    -0.000001945440    -0.000005048880
       5       -0.000002364281     0.000002031475     0.000001687715
       6        0.000012701495     0.000176846612     0.000058594846
       7       -0.000006943843    -0.000003981131     0.000010869563
       8       -0.000001470324     0.000004764365     0.000002932779
       9        0.000134843015    -0.000205751322    -0.000049102882
      10        0.000024773578    -0.000001404544    -0.000006968707
      11        0.000026255928     0.000004150368    -0.000007977513
      12       -0.000096311972     0.000123036329     0.000125811752
      13       -0.000073990962     0.000009119662    -0.000121391167

  **** Optimization is complete! (in 8 steps) ****
    Final optimized geometry and variables:
    Molecular point group: c1

    Geometry (in Angstrom), charge = 0, multiplicity = 1:

    H            3.470571059697     0.327620531406    -0.855951732275
    C            2.772306280505     0.095663722907    -0.062419631198
    C            1.337397828687     0.183961004470    -0.575652355706
    H            3.003190009950    -0.900059277239     0.300123564624
    H            2.948743139877     0.794298070112     0.747996481283
    C            0.357181903315    -0.139062983871     0.532694729897
    H            1.192051085954    -0.500560387291    -1.399518056727
    H            1.138297403722     1.177808451942    -0.955232092805
    N           -1.076973419728    -0.057685369993     0.120149691651
    H            0.471649635377    -1.148211771486     0.902443178481
    H            0.437870430071     0.532709882875     1.372922263492
    O           -1.333241790174     0.062955481136    -1.028585519719
    O           -1.872974129688    -0.135778198057     0.995349701098

  Mulliken Charges: (a.u.)
   Center  Symbol    Alpha    Beta     Spin     Total
       1     H     0.44125  0.44125  0.00000  0.11751
       2     C     3.15270  3.15270  0.00000 -0.30539
       3     C     3.09077  3.09077  0.00000 -0.18155
       4     H     0.45315  0.45315  0.00000  0.09371
       5     H     0.45308  0.45308  0.00000  0.09384
       6     C     3.04687  3.04687  0.00000 -0.09375
       7     H     0.43799  0.43799  0.00000  0.12403
       8     H     0.44089  0.44089  0.00000  0.11822
       9     N     3.27306  3.27306  0.00000  0.45387
      10     H     0.43416  0.43416  0.00000  0.13168
      11     H     0.43260  0.43260  0.00000  0.13481
      12     O     4.16911  4.16911  0.00000 -0.33821
      13     O     4.17438  4.17438  0.00000 -0.34875

   Total alpha = 24.00000, Total beta = 24.00000, Total charge = -0.00000

*** Psi4 exiting successfully. Buy a developer a beer!
