  ==> Input File <==

--------------------------------------------------------------------------
set {
	reference rhf
	basis 6-31G*
}

set_num_threads( 4 )
memory 2 gb

molecule MOL {
0 1

H	 2.631313	 -0.646716	 -0.693201
O	 2.016064	 -0.864478	 0.000222
C	 1.050492	 0.053836	 0.000068
C	 -0.318135	 -0.576402	 0.000164
O	 1.285279	 1.218255	 -0.000078
C	 -1.454360	 0.441875	 -0.000474
H	 -0.374042	 -1.230163	 -0.866135
H	 -0.374274	 -1.229227	 0.867154
C	 -2.826123	 -0.230780	 0.000056
H	 -1.357605	 1.085198	 -0.868380
H	 -1.357504	 1.086451	 0.866496
H	 -2.959731	 -0.858053	 -0.876869
H	 -3.619374	 0.509403	 -0.000080
H	 -2.959371	 -0.857318	 0.877556

	symmetry c1
}
set optking {
	frozen_dihedral = ("
		1 2 3 5
	")
}

ee = optimize('scf')
oeprop('DIPOLE', 'QUADRUPOLE', 'MULLIKEN_CHARGES')
f=open( 'psi4out.xyz', 'w' )
f.write( "14  " )
f.write( str(ee) + "\n" )
f.write( MOL.save_string_xyz() )
f.close()
--------------------------------------------------------------------------

    Molecular point group: c1
  Charge       = 0
  Multiplicity = 1
  Basis Set: 6-31G*
  Basis Set:
  @DF-RHF Final Energy:  -305.86804369072092
    Total Energy =                       -305.8680436907210378
    Molecular point group: c1
  Basis Set: 6-31G*
  Basis Set:
  Basis Set: 6-31G*
  Basis Set:
  @DF-RHF Final Energy:  -305.86617273621027
    Total Energy =                       -305.8661727362100464
  Basis Set: 6-31G*
  Basis Set:
  Basis Set: 6-31G*
  Basis Set:
  @DF-RHF Final Energy:  -305.86909067864087
    Total Energy =                       -305.8690906786406458
  Basis Set: 6-31G*
  Basis Set:
  Basis Set: 6-31G*
  Basis Set:
  @DF-RHF Final Energy:  -305.86918680368342
    Total Energy =                       -305.8691868036834194
  Basis Set: 6-31G*
  Basis Set:
  @DF-RHF Final Energy:  -305.86919305619381
    Total Energy =                       -305.8691930561939216
  Basis Set: 6-31G*
  Basis Set:
  @DF-RHF Final Energy:  -305.86919440651707
    Total Energy =                       -305.8691944065172379
  Basis Set: 6-31G*
  Basis Set:
  Basis Set: 6-31G*
  Basis Set:
  @DF-RHF Final Energy:  -305.86919446339942
    Total Energy =                       -305.8691944633993103
  Basis Set: 6-31G*
  Basis Set:
  Basis Set: 6-31G*
  Basis Set:
  @DF-RHF Final Energy:  -305.86919468865642
    Total Energy =                       -305.8691946886564210
  Basis Set: 6-31G*
  Basis Set:
  Charge       = 0
  Multiplicity = 1
  Basis Set: 6-31G*
  Basis Set:

    Orbital Energies (a.u.)
    -----------------------

    Doubly Occupied:

       1A    -20.603021     2A    -20.557640     3A    -11.381836
       4A    -11.240817     5A    -11.225277     6A    -11.217125
       7A     -1.466027     8A     -1.367432     9A     -1.082199
      10A     -0.977674    11A     -0.854766    12A     -0.792824
      13A     -0.704277    14A     -0.682856    15A     -0.662998
      16A     -0.625495    17A     -0.579142    18A     -0.566569
      19A     -0.544880    20A     -0.504467    21A     -0.493196
      22A     -0.482161    23A     -0.480048    24A     -0.444240

  @DF-RHF Final Energy:  -305.86919474556487

   => Energetics <=

    Nuclear Repulsion Energy =            239.5120236841682697
    One-Electron Energy =                -891.6885063448182791
    Two-Electron Energy =                 346.3072879150851122
    DFT Exchange-Correlation Energy =       0.0000000000000000
    Empirical Dispersion Energy =           0.0000000000000000
    PCM Polarization Energy =               0.0000000000000000
    EFP Energy =                            0.0000000000000000
    Total Energy =                       -305.8691947455648688
    Molecular point group: c1
  Basis Set: 6-31G*
  Basis Set:

  -Total Gradient:
     Atom            X                  Y                   Z
    ------   -----------------  -----------------  -----------------
       1       -0.005527700636    -0.006935265837    -0.008005900370
       2        0.006283201156     0.008909981178     0.014925813502
       3        0.000484034034    -0.002408947980    -0.017469205512
       4       -0.000024611197     0.000113269443    -0.000051344894
       5       -0.001178651671     0.000342947172     0.010570838489
       6        0.000017367483    -0.000018718411     0.000015337863
       7       -0.000011406222    -0.000002513686    -0.000013708143
       8       -0.000022116665     0.000005670050     0.000022911502
       9       -0.000014659236     0.000006950147     0.000006698316
      10        0.000008883891    -0.000011522165     0.000005628218
      11       -0.000004884825    -0.000002765106    -0.000006921432
      12        0.000002187210     0.000004036139     0.000001688293
      13       -0.000012616231    -0.000003422407     0.000001160147
      14        0.000000972907     0.000000301462    -0.000002995979

  **** Optimization is complete! (in 9 steps) ****
    Final optimized geometry and variables:
    Molecular point group: c1

    Geometry (in Angstrom), charge = 0, multiplicity = 1:

    H            2.725258218812    -0.694910772297    -0.541584946978
    O            2.030128167779    -0.861361233396     0.084749710357
    C            1.052993313313     0.060544101757    -0.040922170480
    C           -0.316078029345    -0.568360832066    -0.019010550084
    O            1.276751705203     1.222646519082    -0.062102679380
    C           -1.456363086410     0.443825362992     0.022894777131
    H           -0.390411909641    -1.210224728231    -0.893975165715
    H           -0.347862654420    -1.237837007681     0.836542374652
    C           -2.825599687083    -0.233949526234     0.040353325142
    H           -1.380893814270     1.104224955841    -0.834283781758
    H           -1.343400969661     1.072276501406     0.899913546711
    H           -2.976043797857    -0.845098366503    -0.845269136671
    H           -3.621476012961     0.502790736149     0.071381379686
    H           -2.937479254492    -0.877549803422     0.908375231888

  Mulliken Charges: (a.u.)
   Center  Symbol    Alpha    Beta     Spin     Total
       1     H     0.26626  0.26626  0.00000  0.46748
       2     O     4.36126  4.36126  0.00000 -0.72252
       3     C     2.62885  2.62885  0.00000  0.74230
       4     C     3.20894  3.20894  0.00000 -0.41789
       5     O     4.26083  4.26083  0.00000 -0.52166
       6     C     3.15257  3.15257  0.00000 -0.30515
       7     H     0.40361  0.40361  0.00000  0.19277
       8     H     0.39751  0.39751  0.00000  0.20497
       9     C     3.24279  3.24279  0.00000 -0.48558
      10     H     0.41085  0.41085  0.00000  0.17831
      11     H     0.41007  0.41007  0.00000  0.17987
      12     H     0.42143  0.42143  0.00000  0.15714
      13     H     0.41451  0.41451  0.00000  0.17098
      14     H     0.42051  0.42051  0.00000  0.15898

   Total alpha = 24.00000, Total beta = 24.00000, Total charge = -0.00000
