                              Psi4 1.0.54 Driver

  ==> Input File <==

--------------------------------------------------------------------------
set {
	reference rhf
	basis cc-pvtz
}

set_num_threads( 4 )
memory 2 gb

molecule MOL {
0 1

H	 3.721907	 -0.933076	 -0.066039
O	 2.824271	 -1.154299	 0.131461
C	 2.076458	 -0.067370	 -0.038225
C	 0.626018	 -0.337582	 0.258241
O	 2.538288	 0.965419	 -0.381593
C	 -0.267326	 0.883135	 0.076490
H	 0.325620	 -1.161483	 -0.378003
H	 0.574537	 -0.713685	 1.275261
C	 -1.726822	 0.642622	 0.463839
H	 -0.210803	 1.217591	 -0.953497
H	 0.129920	 1.693110	 0.675679
C	 -2.383354	 -0.565540	 -0.202007
H	 -2.294525	 1.530965	 0.203430
H	 -1.803413	 0.542990	 1.544420
C	 -3.864378	 -0.693627	 0.139514
H	 -2.268100	 -0.484875	 -1.279617
H	 -1.874901	 -1.478076	 0.092457
H	 -4.306109	 -1.555908	 -0.346312
H	 -4.416322	 0.184493	 -0.178231
H	 -4.010807	 -0.805531	 1.208715

	symmetry c1
}
set optking {
	frozen_dihedral = ("
		12 9 6 10
	")
}

ee,wfn = optimize('scf', return_wfn=True)
oeprop( wfn, 'DIPOLE', 'QUADRUPOLE', 'MULLIKEN_CHARGES')
f=open( 'psi4out.xyz', 'w' )
f.write( "20  " )
f.write( str(ee) + "\n" )
f.write( MOL.save_string_xyz() )
f.close()
--------------------------------------------------------------------------

    Molecular point group: c1
  Charge       = 0
  Multiplicity = 1
  Basis Set: CC-PVTZ
  Basis Set:
  @DF-RHF Final Energy:  -384.09420360462093
    Total Energy =                       -384.0942036046210433
    Molecular point group: c1
  Basis Set: CC-PVTZ
  Basis Set:
  Basis Set: CC-PVTZ
  Basis Set:
  @DF-RHF Final Energy:  -384.09424212616682
    Total Energy =                       -384.0942421261671598
  Basis Set: CC-PVTZ
  Basis Set:
  Basis Set: CC-PVTZ
  Basis Set:
  @DF-RHF Final Energy:  -384.09424918833474
    Total Energy =                       -384.0942491883341745
  Basis Set: CC-PVTZ
  Basis Set:
  Basis Set: CC-PVTZ
  Basis Set:
  @DF-RHF Final Energy:  -384.09438096565685
    Total Energy =                       -384.0943809656566827
  Basis Set: CC-PVTZ
  Basis Set:
  Basis Set: CC-PVTZ
  Basis Set:
  @DF-RHF Final Energy:  -384.09438116034227
    Total Energy =                       -384.0943811603425502
  Basis Set: CC-PVTZ
  Basis Set:
  Charge       = 0
  Multiplicity = 1
  Basis Set: CC-PVTZ
  Basis Set:

    Orbital Energies (a.u.)
    -----------------------

    Doubly Occupied:

       1A    -20.603883     2A    -20.540538     3A    -11.373487
       4A    -11.238878     5A    -11.220884     6A    -11.218898
       7A    -11.218257     8A    -11.210650     9A     -1.477494
      10A     -1.369001    11A     -1.097519    12A     -1.042017
      13A     -0.962837    14A     -0.870660    15A     -0.820129
      16A     -0.774799    17A     -0.703755    18A     -0.692879
      19A     -0.667711    20A     -0.638178    21A     -0.602137
      22A     -0.596932    23A     -0.578769    24A     -0.556588
      25A     -0.540360    26A     -0.516108    27A     -0.496220
      28A     -0.484521    29A     -0.471217    30A     -0.466775
      31A     -0.457883    32A     -0.446743

  @DF-RHF Final Energy:  -384.09439185602190

   => Energetics <=

    Nuclear Repulsion Energy =            377.0866140509072579
    One-Electron Energy =               -1270.4486006214206100
    Two-Electron Energy =                 509.2675947144909969
    DFT Exchange-Correlation Energy =       0.0000000000000000
    Empirical Dispersion Energy =           0.0000000000000000
    PCM Polarization Energy =               0.0000000000000000
    EFP Energy =                            0.0000000000000000
    Total Energy =                       -384.0943918560224120
    Molecular point group: c1
  Basis Set: CC-PVTZ
  Basis Set:

  -Total Gradient:
     Atom            X                  Y                   Z
    ------   -----------------  -----------------  -----------------
       1       -0.000020151069     0.000018460955    -0.000001987558
       2        0.000006356077    -0.000036099348     0.000007987492
       3       -0.000029323376    -0.000030253522     0.000007832219
       4        0.000032867150    -0.000025578213     0.000003183384
       5        0.000013729199     0.000044799135    -0.000010535141
       6        0.000504666695    -0.003772888753    -0.000507857365
       7        0.000005936539     0.000010548778     0.000002065695
       8        0.000003574431     0.000006734344    -0.000000892275
       9       -0.000960402937     0.002412710442    -0.001956093393
      10       -0.000189637437     0.002626186082     0.000931810910
      11        0.000001944075    -0.000011302102    -0.000000648447
      12        0.000631657536    -0.001245203380     0.001523898700
      13       -0.000000912387    -0.000004334055     0.000000518512
      14       -0.000000390911     0.000000174966    -0.000005373600
      15       -0.000000797879     0.000000592060     0.000005575872
      16        0.000002857526     0.000001746989     0.000009915212
      17       -0.000012712234     0.000009683975    -0.000004202311
      18       -0.000000013804     0.000001246508     0.000001546579
      19        0.000007353530    -0.000007355555    -0.000000050794
      20        0.000003399280     0.000000130695    -0.000006693689

  **** Optimization is complete! (in 6 steps) ****
    Final optimized geometry and variables:
    Molecular point group: c1

    Geometry (in Angstrom), charge = 0, multiplicity = 1:

    H            3.730172112282    -0.816372991662    -0.113865319613
    O            2.834634752596    -1.062563222374     0.062485247092
    C            2.066129422438     0.013000340838    -0.086515212239
    C            0.617458074896    -0.298460245674     0.177222399307
    O            2.510506577915     1.065369767780    -0.391377092546
    C           -0.297775484179     0.907410636392     0.016569751629
    H            0.346768828804    -1.108805575064    -0.488757573738
    H            0.558080594213    -0.706864184507     1.181463927113
    C           -1.752570545238     0.657067287746     0.419413785020
    H           -0.253897053508     1.271269863674    -1.004157538409
    H            0.092198086332     1.716702002772     0.622319900103
    C           -2.432740891570    -0.528420503866    -0.263449760867
    H           -2.318614298323     1.559617311730     0.210773630878
    H           -1.803595987586     0.512666406940     1.496606306007
    C           -3.914614328542    -0.633281625844     0.082698411543
    H           -2.321159939121    -0.438804133593    -1.341339666246
    H           -1.939974514127    -1.452572332038     0.019578354942
    H           -4.371849817989    -1.487604721194    -0.402856614327
    H           -4.453623934533     0.254064175168    -0.231361400927
    H           -4.058802338585    -0.744697933725     1.152307386665

  Mulliken Charges: (a.u.)
   Center  Symbol    Alpha    Beta     Spin     Total
       1     H     0.38231  0.38231  0.00000  0.23538
       2     O     4.16005  4.16005  0.00000 -0.32010
       3     C     2.80505  2.80505  0.00000  0.38990
       4     C     3.11374  3.11374  0.00000 -0.22748
       5     O     4.19084  4.19084  0.00000 -0.38169
       6     C     3.09267  3.09267  0.00000 -0.18533
       7     H     0.43548  0.43548  0.00000  0.12903
       8     H     0.43699  0.43699  0.00000  0.12602
       9     C     3.09788  3.09788  0.00000 -0.19575
      10     H     0.44496  0.44496  0.00000  0.11009
      11     H     0.44008  0.44008  0.00000  0.11985
      12     C     3.08976  3.08976  0.00000 -0.17953
      13     H     0.44616  0.44616  0.00000  0.10768
      14     H     0.45315  0.45315  0.00000  0.09370
      15     C     3.14994  3.14994  0.00000 -0.29989
      16     H     0.45239  0.45239  0.00000  0.09522
      17     H     0.45256  0.45256  0.00000  0.09488
      18     H     0.44774  0.44774  0.00000  0.10453
      19     H     0.45343  0.45343  0.00000  0.09315
      20     H     0.45483  0.45483  0.00000  0.09035

   Total alpha = 32.00000, Total beta = 32.00000, Total charge = -0.00000

*** Psi4 exiting successfully. Buy a developer a beer!
