  ==> Input File <==

--------------------------------------------------------------------------
set {
	reference rhf
	basis cc-pvtz
}

set_num_threads( 4 )
memory 2 gb

molecule MOL {
0 1

H	 2.867672	 -0.456275	 0.875795
C	 2.403497	 -0.020426	 0.000000
N	 0.989899	 -0.304564	 0.000000
H	 2.867672	 -0.456275	 -0.875795
H	 2.620366	 1.051270	 0.000000
C	 0.707114	 -1.705844	 -0.232412
C	 0.258561	 0.525725	 -0.934523
H	 1.081773	 -2.032886	 -1.207306
H	 1.203411	 -2.300310	 0.525893
C	 -0.787827	 -1.952906	 -0.166426
H	 0.425740	 1.568634	 -0.691379
H	 0.599483	 0.366530	 -1.962226
C	 -1.224855	 0.221325	 -0.850496
H	 -1.015068	 -2.976598	 -0.429187
H	 -1.142294	 -1.769732	 0.845947
O	 -1.474629	 -1.135773	 -1.067393
H	 -1.767996	 0.769250	 -1.607730
H	 -1.601937	 0.517008	 0.126478

	symmetry c1
}
set optking {
	frozen_dihedral = ("
		6 3 2 5
	")
}

ee = optimize('scf')
oeprop('DIPOLE', 'QUADRUPOLE', 'MULLIKEN_CHARGES')
f=open( 'psi4out.xyz', 'w' )
f.write( "18  " )
f.write( str(ee) + "\n" )
f.write( MOL.save_string_xyz() )
f.close()
--------------------------------------------------------------------------

    Molecular point group: c1
  Charge       = 0
  Multiplicity = 1
  Basis Set: CC-PVTZ
  Basis Set:
  @DF-RHF Final Energy:  -325.14443527287648
    Total Energy =                       -325.1444352728763079
    Molecular point group: c1
  Basis Set: CC-PVTZ
  Basis Set:
  Basis Set: CC-PVTZ
  Basis Set:
  @DF-RHF Final Energy:  -325.14508314581610
    Total Energy =                       -325.1450831458161019
  Basis Set: CC-PVTZ
  Basis Set:
  Basis Set: CC-PVTZ
  Basis Set:
  @DF-RHF Final Energy:  -325.14517082797659
    Total Energy =                       -325.1451708279766422
  Basis Set: CC-PVTZ
  Basis Set:
  Charge       = 0
  Multiplicity = 1
  Basis Set: CC-PVTZ
  Basis Set:

    Orbital Energies (a.u.)
    -----------------------

    Doubly Occupied:

       1A    -20.547604     2A    -15.544968     3A    -11.264396
       4A    -11.264367     5A    -11.242671     6A    -11.242498
       7A    -11.239251     8A     -1.386602     9A     -1.234280
      10A     -1.039064    11A     -0.982066    12A     -0.883882
      13A     -0.869658    14A     -0.775190    15A     -0.685200
      16A     -0.646391    17A     -0.645296    18A     -0.635257
      19A     -0.631129    20A     -0.574297    21A     -0.557652
      22A     -0.540520    23A     -0.527487    24A     -0.501621
      25A     -0.484848    26A     -0.453979    27A     -0.410675
      28A     -0.356847

  @DF-RHF Final Energy:  -325.14517227369981

   => Energetics <=

    Nuclear Repulsion Energy =            341.9938865375823980
    One-Electron Energy =               -1119.9427256104638673
    Two-Electron Energy =                 452.8036667991819968
    DFT Exchange-Correlation Energy =       0.0000000000000000
    Empirical Dispersion Energy =           0.0000000000000000
    PCM Polarization Energy =               0.0000000000000000
    EFP Energy =                            0.0000000000000000
    Total Energy =                       -325.1451722736994725
    Molecular point group: c1
  Basis Set: CC-PVTZ
  Basis Set:

  -Total Gradient:
     Atom            X                  Y                   Z
    ------   -----------------  -----------------  -----------------
       1       -0.000019910001    -0.000005093673     0.000003721145
       2       -0.000037856402     0.000073047493     0.002841999357
       3        0.000094450312    -0.000581267546     0.002218174283
       4       -0.000010734115    -0.000015336627    -0.000019900304
       5       -0.000051766825     0.000002519432    -0.002889467916
       6        0.000034216761     0.000386845357    -0.002205665496
       7        0.000021679519    -0.000054587486     0.000100094218
       8        0.000019956453    -0.000003953640    -0.000018271028
       9        0.000021676936     0.000000205824     0.000007418069
      10       -0.000000298600     0.000174623930     0.000070581685
      11       -0.000012472092     0.000000666434    -0.000014560570
      12       -0.000029174403     0.000004273426    -0.000004763048
      13       -0.000023744211     0.000049719054    -0.000073681662
      14        0.000052885155     0.000035225243    -0.000006640889
      15       -0.000031557971    -0.000025490388     0.000037632718
      16       -0.000016668394    -0.000017963994    -0.000033042286
      17       -0.000032684412    -0.000005715222    -0.000005093237
      18        0.000022002286    -0.000017717616    -0.000008535039

  **** Optimization is complete! (in 4 steps) ****
    Final optimized geometry and variables:
    Molecular point group: c1

    Geometry (in Angstrom), charge = 0, multiplicity = 1:

    H            2.752918751699     0.163506797866     1.344137485153
    C            2.281112225081     0.596494380517     0.470891982087
    N            0.863307568392     0.324825640217     0.478619247242
    H            2.778021833367     0.196217318735    -0.417112618003
    H            2.452017277376     1.665164162536     0.476285892368
    C            0.578396545055    -1.075217594476     0.238643080818
    C            0.135589885807     1.150071632247    -0.465316158726
    H            0.950912157403    -1.393347647866    -0.739705386745
    H            1.078133426851    -1.675914481112     0.990500105181
    C           -0.916005210344    -1.323699898267     0.307052093255
    H            0.302038128326     2.194492119760    -0.229129921891
    H            0.477141461998     0.983202050508    -1.491627080082
    C           -1.348889021649     0.849467232463    -0.381653106583
    H           -1.141830985608    -2.347704689807     0.044095657011
    H           -1.269677712340    -1.141703422084     1.319975194098
    O           -1.603870551622    -0.507313338569    -0.593586403541
    H           -1.889878263655     1.397046189086    -1.140812711176
    H           -1.724723245605     1.150207716705     0.594325728917

  Mulliken Charges: (a.u.)
   Center  Symbol    Alpha    Beta     Spin     Total
       1     H     0.44969  0.44969  0.00000  0.10063
       2     C     3.09474  3.09474  0.00000 -0.18949
       3     N     3.61735  3.61735  0.00000 -0.23469
       4     H     0.46952  0.46952  0.00000  0.06096
       5     H     0.45270  0.45270  0.00000  0.09460
       6     C     3.04198  3.04198  0.00000 -0.08396
       7     C     3.04040  3.04040  0.00000 -0.08081
       8     H     0.46790  0.46790  0.00000  0.06420
       9     H     0.45416  0.45416  0.00000  0.09168
      10     C     2.98340  2.98340  0.00000  0.03320
      11     H     0.45383  0.45383  0.00000  0.09233
      12     H     0.46942  0.46942  0.00000  0.06116
      13     C     2.98391  2.98391  0.00000  0.03218
      14     H     0.44984  0.44984  0.00000  0.10033
      15     H     0.46742  0.46742  0.00000  0.06516
      16     O     4.18647  4.18647  0.00000 -0.37293
      17     H     0.44972  0.44972  0.00000  0.10056
      18     H     0.46755  0.46755  0.00000  0.06491

   Total alpha = 28.00000, Total beta = 28.00000, Total charge = -0.00000
