                              Psi4 1.0.54 Driver

  ==> Input File <==

--------------------------------------------------------------------------
set {
	reference rhf
	basis cc-pvtz
}

set_num_threads( 4 )
memory 2 gb

molecule MOL {
0 1

H	 1.924390	 -0.742500	 -0.921942
O	 1.107568	 -0.711462	 -0.459899
C	 0.700177	 0.619554	 -0.266242
C	 -0.713111	 0.588314	 0.266177
H	 0.722600	 1.167231	 -1.203510
H	 1.347463	 1.123910	 0.446516
O	 -1.421673	 -0.521378	 -0.196983
H	 -1.244794	 1.469161	 -0.069059
H	 -0.685100	 0.604721	 1.352683
H	 -0.933408	 -1.297830	 0.014544

	symmetry c1
}
set optking {
	frozen_dihedral = ("
		5 3 4 7
	")
}

ee,wfn = optimize('scf', return_wfn=True)
oeprop( wfn, 'DIPOLE', 'QUADRUPOLE', 'MULLIKEN_CHARGES')
f=open( 'psi4out.xyz', 'w' )
f.write( "10  " )
f.write( str(ee) + "\n" )
f.write( MOL.save_string_xyz() )
f.close()
--------------------------------------------------------------------------

    Molecular point group: c1
  Charge       = 0
  Multiplicity = 1
  Basis Set: CC-PVTZ
  Basis Set:
  @DF-RHF Final Energy:  -229.02181628436540
    Total Energy =                       -229.0218162843652863
    Molecular point group: c1
  Basis Set: CC-PVTZ
  Basis Set:
  Basis Set: CC-PVTZ
  Basis Set:
  @DF-RHF Final Energy:  -229.02279859281151
    Total Energy =                       -229.0227985928115402
  Basis Set: CC-PVTZ
  Basis Set:
  Basis Set: CC-PVTZ
  Basis Set:
  @DF-RHF Final Energy:  -229.02385083935133
    Total Energy =                       -229.0238508393512689
  Basis Set: CC-PVTZ
  Basis Set:
  Basis Set: CC-PVTZ
  Basis Set:
  @DF-RHF Final Energy:  -229.02389824628901
    Total Energy =                       -229.0238982462889510
  Basis Set: CC-PVTZ
  Basis Set:
  Basis Set: CC-PVTZ
  Basis Set:
  @DF-RHF Final Energy:  -229.02392470329693
    Total Energy =                       -229.0239247032969274
  Basis Set: CC-PVTZ
  Basis Set:
  Basis Set: CC-PVTZ
  Basis Set:
  @DF-RHF Final Energy:  -229.02393340249756
    Total Energy =                       -229.0239334024976188
  Basis Set: CC-PVTZ
  Basis Set:
  Charge       = 0
  Multiplicity = 1
  Basis Set: CC-PVTZ
  Basis Set:

    Orbital Energies (a.u.)
    -----------------------

    Doubly Occupied:

       1A    -20.567072     2A    -20.536802     3A    -11.277960
       4A    -11.267220     5A     -1.391908     6A     -1.352260
       7A     -1.001680     8A     -0.847031     9A     -0.732035
      10A     -0.682548    11A     -0.657429    12A     -0.597392
      13A     -0.582297    14A     -0.542406    15A     -0.489741
      16A     -0.459585    17A     -0.426546

  @DF-RHF Final Energy:  -229.02393456716638

   => Energetics <=

    Nuclear Repulsion Energy =            135.0581244084142156
    One-Electron Energy =                -581.3402927441989050
    Two-Electron Energy =                 217.2582337686181688
    DFT Exchange-Correlation Energy =       0.0000000000000000
    Empirical Dispersion Energy =           0.0000000000000000
    PCM Polarization Energy =               0.0000000000000000
    EFP Energy =                            0.0000000000000000
    Total Energy =                       -229.0239345671665490
    Molecular point group: c1
  Basis Set: CC-PVTZ
  Basis Set:

  -Total Gradient:
     Atom            X                  Y                   Z
    ------   -----------------  -----------------  -----------------
       1       -0.000005514288    -0.000004690209     0.000021742798
       2       -0.000020172278     0.000094261658    -0.000007959299
       3       -0.001512501242    -0.009647123919    -0.003231496046
       4       -0.002364218821     0.006322801373    -0.005497761938
       5        0.001828386440     0.006651345943     0.003910131195
       6       -0.000001452396     0.000003603932    -0.000005244435
       7        0.002071171956    -0.003420843826     0.004789167610
       8        0.000000173493     0.000004884239     0.000010166450
       9       -0.000000541049     0.000013062527     0.000008094890
      10        0.000004668181    -0.000017301719     0.000003158775

  **** Optimization is complete! (in 7 steps) ****
    Final optimized geometry and variables:
    Molecular point group: c1

    Geometry (in Angstrom), charge = 0, multiplicity = 1:

    H            2.025216687060    -0.749417896709    -0.716115121785
    O            1.182302746537    -0.703515241057    -0.305409936171
    C            0.777743502218     0.628203187155    -0.155507155135
    C           -0.619357803607     0.649054794834     0.463769708090
    H            0.795441856376     1.177113642922    -1.092536783979
    H            1.451447466859     1.156749782072     0.514833193755
    O           -1.411966698913    -0.418555337970     0.047801421754
    H           -1.122147975954     1.568507691130     0.196095685405
    H           -0.522890799710     0.629593441545     1.546759903189
    H           -0.868005026716    -1.182564281677    -0.031032218523

  Mulliken Charges: (a.u.)
   Center  Symbol    Alpha    Beta     Spin     Total
       1     H     0.39204  0.39204  0.00000  0.21593
       2     O     4.20162  4.20162  0.00000 -0.40324
       3     C     2.96752  2.96752  0.00000  0.06496
       4     C     2.95904  2.95904  0.00000  0.08192
       5     H     0.47423  0.47423  0.00000  0.05154
       6     H     0.47479  0.47479  0.00000  0.05042
       7     O     4.20908  4.20908  0.00000 -0.41816
       8     H     0.46240  0.46240  0.00000  0.07520
       9     H     0.47687  0.47687  0.00000  0.04625
      10     H     0.38241  0.38241  0.00000  0.23517

   Total alpha = 17.00000, Total beta = 17.00000, Total charge = -0.00000

*** Psi4 exiting successfully. Buy a developer a beer!
