                              Psi4 1.0.54 Driver

  ==> Input File <==

--------------------------------------------------------------------------
set {
	reference rhf
	basis cc-pvtz
}

set_num_threads( 4 )
memory 2 gb

molecule MOL {
0 1

H	 0.054202	 1.274551	 -1.097937
O	 0.057669	 1.301365	 -0.158528
C	 0.004145	 -0.005141	 0.363049
C	 1.199168	 -0.827145	 -0.096690
C	 -1.316386	 -0.602081	 -0.083515
H	 0.012026	 0.043363	 1.450619
H	 1.216685	 -0.896776	 -1.178167
H	 2.129940	 -0.372354	 0.228035
H	 1.160783	 -1.829622	 0.314294
H	 -1.357882	 -0.655920	 -1.165207
H	 -2.140147	 0.011735	 0.257253
H	 -1.440790	 -1.601175	 0.317669

	symmetry c1
}
set optking {
	frozen_dihedral = ("
		1 2 3 4
	")
}

ee,wfn = optimize('scf', return_wfn=True)
oeprop( wfn, 'DIPOLE', 'QUADRUPOLE', 'MULLIKEN_CHARGES')
f=open( 'psi4out.xyz', 'w' )
f.write( "12  " )
f.write( str(ee) + "\n" )
f.write( MOL.save_string_xyz() )
f.close()
--------------------------------------------------------------------------

    Molecular point group: c1
  Charge       = 0
  Multiplicity = 1
  Basis Set: CC-PVTZ
  Basis Set:
  @DF-RHF Final Energy:  -193.19368087718789
    Total Energy =                       -193.1936808771877168
    Molecular point group: c1
  Basis Set: CC-PVTZ
  Basis Set:
  Basis Set: CC-PVTZ
  Basis Set:
  @DF-RHF Final Energy:  -193.19495586806138
    Total Energy =                       -193.1949558680613563
  Basis Set: CC-PVTZ
  Basis Set:
  Basis Set: CC-PVTZ
  Basis Set:
  @DF-RHF Final Energy:  -193.19558160976200
    Total Energy =                       -193.1955816097619731
  Basis Set: CC-PVTZ
  Basis Set:
  Charge       = 0
  Multiplicity = 1
  Basis Set: CC-PVTZ
  Basis Set:

    Orbital Energies (a.u.)
    -----------------------

    Doubly Occupied:

       1A    -20.543879     2A    -11.274010     3A    -11.211262
       4A    -11.210258     5A     -1.364601     6A     -1.042834
       7A     -0.941694     8A     -0.820691     9A     -0.663550
      10A     -0.644947    11A     -0.603043    12A     -0.577077
      13A     -0.544918    14A     -0.517709    15A     -0.510900
      16A     -0.466841    17A     -0.434039

  @DF-RHF Final Energy:  -193.19558535135604

   => Energetics <=

    Nuclear Repulsion Energy =            135.5818481414084431
    One-Electron Energy =                -530.8103633178707241
    Two-Electron Energy =                 202.0329298251061800
    DFT Exchange-Correlation Energy =       0.0000000000000000
    Empirical Dispersion Energy =           0.0000000000000000
    PCM Polarization Energy =               0.0000000000000000
    EFP Energy =                            0.0000000000000000
    Total Energy =                       -193.1955853513561010
    Molecular point group: c1
  Basis Set: CC-PVTZ
  Basis Set:

  -Total Gradient:
     Atom            X                  Y                   Z
    ------   -----------------  -----------------  -----------------
       1        0.000247431536     0.000011720453     0.000005085305
       2       -0.000301308798    -0.000056257434    -0.000054741485
       3        0.000209016018    -0.000185814754     0.000315846391
       4       -0.000016541372     0.000105324861    -0.000188323589
       5       -0.000218121674    -0.000020013307    -0.000062306873
       6        0.000015095297     0.000082870521    -0.000020942178
       7        0.000035949610    -0.000015740506     0.000026240926
       8        0.000062612504    -0.000026946683    -0.000014827353
       9       -0.000045227701     0.000056479017     0.000009548149
      10       -0.000005395741    -0.000006479063     0.000009443607
      11       -0.000018160100    -0.000003118538    -0.000012604489
      12        0.000034650422     0.000057975434    -0.000012418410

  **** Optimization is complete! (in 4 steps) ****
    Final optimized geometry and variables:
    Molecular point group: c1

    Geometry (in Angstrom), charge = 0, multiplicity = 1:

    H            0.159822480979     1.364035597464    -1.010839422634
    O            0.051750325113     1.334326604229    -0.076603275462
    C           -0.023820534262    -0.003027962502     0.354487412537
    C            1.241314614880    -0.766044481353    -0.008707190481
    C           -1.282346580126    -0.675424267466    -0.174806088703
    H           -0.092660841451     0.062438351275     1.433386679096
    H            1.349624122710    -0.842403307371    -1.087338928048
    H            2.113457459237    -0.258687955656     0.383796161271
    H            1.217463066033    -1.772227951036     0.393835679577
    H           -1.253157054443    -0.749622049843    -1.258461657795
    H           -2.158523872805    -0.102788632541     0.101255358686
    H           -1.385152972729    -1.678100682518     0.224355985877

  Mulliken Charges: (a.u.)
   Center  Symbol    Alpha    Beta     Spin     Total
       1     H     0.39451  0.39451  0.00000  0.21099
       2     O     4.20939  4.20939  0.00000 -0.41877
       3     C     2.92791  2.92791  0.00000  0.14417
       4     C     3.14670  3.14670  0.00000 -0.29340
       5     C     3.14546  3.14546  0.00000 -0.29092
       6     H     0.45088  0.45088  0.00000  0.09824
       7     H     0.46163  0.46163  0.00000  0.07674
       8     H     0.44459  0.44459  0.00000  0.11083
       9     H     0.45600  0.45600  0.00000  0.08800
      10     H     0.46154  0.46154  0.00000  0.07692
      11     H     0.44484  0.44484  0.00000  0.11032
      12     H     0.45655  0.45655  0.00000  0.08690

   Total alpha = 17.00000, Total beta = 17.00000, Total charge =  0.00000

*** Psi4 exiting successfully. Buy a developer a beer!
