                              Psi4 1.0.54 Driver

  ==> Input File <==

--------------------------------------------------------------------------
set {
	reference rhf
	basis cc-pvtz
}

set_num_threads( 4 )
memory 2 gb

molecule MOL {
0 1

O	 -0.247712	 1.201569	 0.736302
C	 -0.423706	 0.083258	 0.392374
C	 -1.758850	 -0.602757	 0.343083
O	 0.550743	 -0.719877	 0.000412
H	 -1.957879	 -0.937437	 -0.666759
H	 -2.527712	 0.079412	 0.667167
H	 -1.741562	 -1.476530	 0.981565
C	 1.863204	 -0.194033	 0.000410
H	 2.031502	 0.409177	 -0.879273
H	 2.524488	 -1.045142	 0.000793
H	 2.031291	 0.409823	 0.879686

	symmetry c1
}
set optking {
	frozen_dihedral = ("
		2 4 8 9
	")
}

ee,wfn = optimize('scf', return_wfn=True)
oeprop( wfn, 'DIPOLE', 'QUADRUPOLE', 'MULLIKEN_CHARGES')
f=open( 'psi4out.xyz', 'w' )
f.write( "11  " )
f.write( str(ee) + "\n" )
f.write( MOL.save_string_xyz() )
f.close()
--------------------------------------------------------------------------

    Molecular point group: c1
  Charge       = 0
  Multiplicity = 1
  Basis Set: CC-PVTZ
  Basis Set:
  @DF-RHF Final Energy:  -266.93862222923769
    Total Energy =                       -266.9386222292378079
    Molecular point group: c1
  Basis Set: CC-PVTZ
  Basis Set:
  Basis Set: CC-PVTZ
  Basis Set:
  @DF-RHF Final Energy:  -266.93866717358065
    Total Energy =                       -266.9386671735804839
  Basis Set: CC-PVTZ
  Basis Set:
  Basis Set: CC-PVTZ
  Basis Set:
  @DF-RHF Final Energy:  -266.93854482627262
    Total Energy =                       -266.9385448262726186
  Basis Set: CC-PVTZ
  Basis Set:
  Basis Set: CC-PVTZ
  Basis Set:
  @DF-RHF Final Energy:  -266.93870467321614
    Total Energy =                       -266.9387046732160798
  Basis Set: CC-PVTZ
  Basis Set:
  Charge       = 0
  Multiplicity = 1
  Basis Set: CC-PVTZ
  Basis Set:

    Orbital Energies (a.u.)
    -----------------------

    Doubly Occupied:

       1A    -20.598549     2A    -20.535069     3A    -11.369112
       4A    -11.279683     5A    -11.233089     6A     -1.473659
       7A     -1.367789     8A     -1.037022     9A     -0.953912
      10A     -0.779853    11A     -0.698453    12A     -0.684072
      13A     -0.681141    14A     -0.596557    15A     -0.593182
      16A     -0.561754    17A     -0.528074    18A     -0.524013
      19A     -0.461688    20A     -0.445785

  @DF-RHF Final Energy:  -266.93871030221135

   => Energetics <=

    Nuclear Repulsion Energy =            183.5835660053885761
    One-Electron Energy =                -728.2396415442167381
    Two-Electron Energy =                 277.7173652366170131
    DFT Exchange-Correlation Energy =       0.0000000000000000
    Empirical Dispersion Energy =           0.0000000000000000
    PCM Polarization Energy =               0.0000000000000000
    EFP Energy =                            0.0000000000000000
    Total Energy =                       -266.9387103022111773
    Molecular point group: c1
  Basis Set: CC-PVTZ
  Basis Set:

  -Total Gradient:
     Atom            X                  Y                   Z
    ------   -----------------  -----------------  -----------------
       1        0.000053612046    -0.000000403159    -0.000028744084
       2        0.000123297145    -0.000423489779     0.001215597407
       3        0.000001258903    -0.000024109449    -0.000006175236
       4       -0.000101995588     0.000323958193    -0.001893138227
       5       -0.000006262995    -0.000001076344    -0.000004543640
       6        0.000011140502     0.000006164943    -0.000001124002
       7       -0.000001384154    -0.000003087996    -0.000005192843
       8       -0.000448976466     0.001289672832     0.001451820788
       9        0.000420242234    -0.001175234896    -0.000737407716
      10       -0.000021327521     0.000017695323    -0.000001707016
      11       -0.000029604106    -0.000010089667     0.000010614568

  **** Optimization is complete! (in 5 steps) ****
    Final optimized geometry and variables:
    Molecular point group: c1

    Geometry (in Angstrom), charge = 0, multiplicity = 1:

    O           -0.277989148452     1.255244083509     0.433351770943
    C           -0.444023772389     0.132919424278     0.097965231272
    C           -1.773629272139    -0.564539954141     0.057351432008
    O            0.533799406851    -0.666774197328    -0.293658810618
    H           -1.972484344500    -0.907200107564    -0.949861976011
    H           -2.547131781595     0.113593994104     0.378850778870
    H           -1.747403665986    -1.434050074098     0.701264467895
    C            1.852046880215    -0.154874315896    -0.280653850046
    H            2.024195162097     0.454101964952    -1.157115272827
    H            2.505646182166    -1.012150735253    -0.304987094627
    H            2.030493974261     0.429554474403     0.607188854191

  Mulliken Charges: (a.u.)
   Center  Symbol    Alpha    Beta     Spin     Total
       1     O     4.19692  4.19692  0.00000 -0.39384
       2     C     2.80080  2.80080  0.00000  0.39840
       3     C     3.13852  3.13852  0.00000 -0.27704
       4     O     4.14825  4.14825  0.00000 -0.29650
       5     H     0.44521  0.44521  0.00000  0.10959
       6     H     0.43789  0.43789  0.00000  0.12423
       7     H     0.44570  0.44570  0.00000  0.10860
       8     C     3.03361  3.03361  0.00000 -0.06723
       9     H     0.45640  0.45640  0.00000  0.08720
      10     H     0.44676  0.44676  0.00000  0.10648
      11     H     0.44994  0.44994  0.00000  0.10011

   Total alpha = 20.00000, Total beta = 20.00000, Total charge = -0.00000

*** Psi4 exiting successfully. Buy a developer a beer!
