  ==> Input File <==

--------------------------------------------------------------------------
set {
	reference rhf
	basis 6-31G*
}

set_num_threads( 1 )
memory 2 gb

molecule MOL {
0 1

H	 -5.582021	 -3.336259	 -1.662710
O	 -5.956371	 -3.961885	 -1.059779
C	 -4.950806	 -4.818617	 -0.581342
C	 -4.008294	 -4.144721	 0.409750
H	 -5.467471	 -5.636675	 -0.096047
H	 -4.383790	 -5.240878	 -1.410177
C	 -3.189995	 -2.998730	 -0.190216
H	 -4.594913	 -3.775089	 1.246779
H	 -3.333780	 -4.902421	 0.805083
C	 -2.215084	 -2.378882	 0.814848
H	 -3.865925	 -2.232647	 -0.559813
H	 -2.630501	 -3.365272	 -1.051003
C	 -1.309753	 -1.282496	 0.241564
H	 -2.776007	 -1.978344	 1.657334
H	 -1.585466	 -3.168964	 1.218645
C	 -2.037799	 -0.007733	 -0.193645
H	 -0.571570	 -1.019551	 0.996390
H	 -0.749320	 -1.683584	 -0.601573
C	 -3.489788	 0.042957	 0.286558
H	 -2.017067	 0.064384	 -1.280144
H	 -1.513726	 0.868678	 0.179924
C	 -4.216917	 1.317354	 -0.141063
H	 -4.025645	 -0.823308	 -0.095450
H	 -3.513059	 -0.038752	 1.371301
H	 -4.239342	 1.411634	 -1.223113
H	 -5.243387	 1.322503	 0.212445
H	 -3.726170	 2.201406	 0.256408

	symmetry c1
}
set optking {
	frozen_dihedral = ("
		14 10 7 4,
		14 10 13 16,
		10 7 4 8,
		8 4 3 2,
		20 16 19 22,
		4 3 2 1
	")
}

ee = energy('scf')
oeprop('DIPOLE', 'QUADRUPOLE', 'MULLIKEN_CHARGES')
f=open( 'psi4out.xyz', 'w' )
f.write( "27  " )
f.write( str(ee) + "\n" )
f.write( MOL.save_string_xyz() )
f.close()
--------------------------------------------------------------------------

    Molecular point group: c1

    Geometry (in Angstrom), charge = 0, multiplicity = 1:

       Center              X                  Y                   Z               Mass
    ------------   -----------------  -----------------  -----------------  -----------------
           H         -2.042793150252    -1.290712568376    -1.591786936501     1.007825032070
           O         -2.417143150252    -1.916338568376    -0.988855936501    15.994914619560
           C         -1.411578150252    -2.773070568376    -0.510418936501    12.000000000000
           C         -0.469066150252    -2.099174568376     0.480673063499    12.000000000000
           H         -1.928243150252    -3.591128568376    -0.025123936501     1.007825032070
           H         -0.844562150252    -3.195331568376    -1.339253936501     1.007825032070
           C          0.349232849748    -0.953183568376    -0.119292936501    12.000000000000
           H         -1.055685150252    -1.729542568376     1.317702063499     1.007825032070
           H          0.205447849748    -2.856874568376     0.876006063499     1.007825032070
           C          1.324143849748    -0.333335568376     0.885771063499    12.000000000000
           H         -0.326697150252    -0.187100568376    -0.488889936501     1.007825032070
           H          0.908726849748    -1.319725568376    -0.980079936501     1.007825032070
           C          2.229474849748     0.763050431624     0.312487063499    12.000000000000
           H          0.763220849748     0.067202431624     1.728257063499     1.007825032070
           H          1.953761849748    -1.123417568376     1.289568063499     1.007825032070
           C          1.501428849748     2.037813431624    -0.122721936501    12.000000000000
           H          2.967657849748     1.025995431624     1.067313063499     1.007825032070
           H          2.789907849748     0.361962431624    -0.530649936501     1.007825032070
           C          0.049439849748     2.088503431624     0.357481063499    12.000000000000
           H          1.522160849748     2.109930431624    -1.209220936501     1.007825032070
           H          2.025501849748     2.914224431624     0.250847063499     1.007825032070
           C         -0.677689150252     3.362900431624    -0.070139936501    12.000000000000
           H         -0.486417150252     1.222238431624    -0.024526936501     1.007825032070
           H          0.026168849748     2.006794431624     1.442224063499     1.007825032070
           H         -0.700114150252     3.457180431624    -1.152189936501     1.007825032070
           H         -1.704159150252     3.368049431624     0.283368063499     1.007825032070
           H         -0.186942150252     4.246952431624     0.327331063499     1.007825032070

  Charge       = 0
  Multiplicity = 1
  Basis Set: 6-31G*
  Basis Set:

    Orbital Energies (a.u.)
    -----------------------

    Doubly Occupied:

       1A    -20.553013     2A    -11.267328     3A    -11.217714
       4A    -11.216339     5A    -11.215208     6A    -11.214495
       7A    -11.213026     8A    -11.211070     9A    -11.207143
      10A     -1.359682    11A     -1.101062    12A     -1.056903
      13A     -1.008134    14A     -0.951033    15A     -0.888330
      16A     -0.837228    17A     -0.797646    18A     -0.765322
      19A     -0.694641    20A     -0.653139    21A     -0.645772
      22A     -0.615700    23A     -0.597721    24A     -0.584642
      25A     -0.578104    26A     -0.570407    27A     -0.533730
      28A     -0.516358    29A     -0.506078    30A     -0.502573
      31A     -0.492961    32A     -0.487614    33A     -0.461940
      34A     -0.448626    35A     -0.442077    36A     -0.436779
      37A     -0.421740

  @DF-RHF Final Energy:  -388.25796801187312

   => Energetics <=

    Nuclear Repulsion Energy =            480.4797472720169935
    One-Electron Energy =               -1478.9332701578857723
    Two-Electron Energy =                 610.1955548739957749
    DFT Exchange-Correlation Energy =       0.0000000000000000
    Empirical Dispersion Energy =           0.0000000000000000
    PCM Polarization Energy =               0.0000000000000000
    EFP Energy =                            0.0000000000000000
    Total Energy =                       -388.2579680118730039

  Mulliken Charges: (a.u.)
   Center  Symbol    Alpha    Beta     Spin     Total
       1     H     0.27943  0.27943  0.00000  0.44114
       2     O     4.37094  4.37094  0.00000 -0.74189
       3     C     2.99759  2.99759  0.00000  0.00483
       4     C     3.16019  3.16019  0.00000 -0.32037
       5     H     0.41429  0.41429  0.00000  0.17141
       6     H     0.43183  0.43183  0.00000  0.13634
       7     C     3.16295  3.16295  0.00000 -0.32589
       8     H     0.41548  0.41548  0.00000  0.16904
       9     H     0.42386  0.42386  0.00000  0.15227
      10     C     3.16099  3.16099  0.00000 -0.32199
      11     H     0.42431  0.42431  0.00000  0.15138
      12     H     0.42489  0.42489  0.00000  0.15022
      13     C     3.15609  3.15609  0.00000 -0.31219
      14     H     0.41821  0.41821  0.00000  0.16358
      15     H     0.41869  0.41869  0.00000  0.16261
      16     C     3.15429  3.15429  0.00000 -0.30859
      17     H     0.41923  0.41923  0.00000  0.16154
      18     H     0.42148  0.42148  0.00000  0.15705
      19     C     3.15865  3.15865  0.00000 -0.31729
      20     H     0.42306  0.42306  0.00000  0.15388
      21     H     0.41931  0.41931  0.00000  0.16139
      22     C     3.23611  3.23611  0.00000 -0.47222
      23     H     0.42159  0.42159  0.00000  0.15682
      24     H     0.42110  0.42110  0.00000  0.15780
      25     H     0.42379  0.42379  0.00000  0.15242
      26     H     0.41917  0.41917  0.00000  0.16167
      27     H     0.42247  0.42247  0.00000  0.15507

   Total alpha = 37.00000, Total beta = 37.00000, Total charge =  0.00000
