  ==> Input File <==

--------------------------------------------------------------------------
set {
	reference rhf
	basis 6-31G*
}

set_num_threads( 4 )
memory 2 gb

molecule MOL {
0 1

H	 -3.042581	 -0.665861	 0.004336
O	 -2.245037	 -1.176175	 0.000806
C	 -1.162163	 -0.365336	 0.001020
C	 -0.445083	 -0.083568	 1.149816
C	 -0.785971	 0.190705	 -1.215586
H	 -0.737090	 -0.511656	 2.093980
C	 0.653288	 0.760779	 1.068753
H	 -1.367074	 -0.047814	 -2.087679
C	 0.310261	 1.031529	 -1.295609
H	 1.211776	 0.983937	 1.960566
C	 1.032276	 1.316382	 -0.136505
C	 0.734657	 1.617661	 -2.622047
H	 1.884652	 1.971097	 -0.182689
H	 0.995844	 2.665676	 -2.520878
H	 -0.053952	 1.537204	 -3.360616
H	 1.607017	 1.099522	 -3.010464

	symmetry c1
}
set optking {
	frozen_dihedral = ("
		5 3 2 1
	")
}

ee = optimize('scf')
oeprop('DIPOLE', 'QUADRUPOLE', 'MULLIKEN_CHARGES')
f=open( 'psi4out.xyz', 'w' )
f.write( "16  " )
f.write( str(ee) + "\n" )
f.write( MOL.save_string_xyz() )
f.close()
--------------------------------------------------------------------------

    Molecular point group: c1
  Charge       = 0
  Multiplicity = 1
  Basis Set: 6-31G*
  Basis Set:
  @DF-RHF Final Energy:  -344.58971546327410
    Total Energy =                       -344.5897154632742740
    Molecular point group: c1
  Basis Set: 6-31G*
  Basis Set:
  Basis Set: 6-31G*
  Basis Set:
  @DF-RHF Final Energy:  -344.59072734552183
    Total Energy =                       -344.5907273455217705
  Basis Set: 6-31G*
  Basis Set:
  Basis Set: 6-31G*
  Basis Set:
  @DF-RHF Final Energy:  -344.59079557783679
    Total Energy =                       -344.5907955778363885
  Basis Set: 6-31G*
  Basis Set:
  Basis Set: 6-31G*
  Basis Set:
  @DF-RHF Final Energy:  -344.59080243333096
    Total Energy =                       -344.5908024333310209
  Basis Set: 6-31G*
  Basis Set:
  Basis Set: 6-31G*
  Basis Set:
  @DF-RHF Final Energy:  -344.59080361631970
    Total Energy =                       -344.5908036163197039
  Basis Set: 6-31G*
  Basis Set:
  Charge       = 0
  Multiplicity = 1
  Basis Set: 6-31G*
  Basis Set:

    Orbital Energies (a.u.)
    -----------------------

    Doubly Occupied:

       1A    -20.574847     2A    -11.286561     3A    -11.241496
       4A    -11.232395     5A    -11.222360     6A    -11.221857
       7A    -11.221441     8A    -11.220887     9A     -1.389623
      10A     -1.149970    11A     -1.043251    12A     -1.003088
      13A     -0.936663    14A     -0.828835    15A     -0.803665
      16A     -0.717280    17A     -0.676203    18A     -0.652643
      19A     -0.617118    20A     -0.589067    21A     -0.575922
      22A     -0.567405    23A     -0.551040    24A     -0.511517
      25A     -0.502112    26A     -0.479623    27A     -0.461828
      28A     -0.329354    29A     -0.317783

  @DF-RHF Final Energy:  -344.59080396723414

   => Energetics <=

    Nuclear Repulsion Energy =            344.9748175770178023
    One-Electron Energy =               -1151.2795754025410133
    Two-Electron Energy =                 461.7139538582891305
    DFT Exchange-Correlation Energy =       0.0000000000000000
    Empirical Dispersion Energy =           0.0000000000000000
    PCM Polarization Energy =               0.0000000000000000
    EFP Energy =                            0.0000000000000000
    Total Energy =                       -344.5908039672340806
    Molecular point group: c1
  Basis Set: 6-31G*
  Basis Set:

  -Total Gradient:
     Atom            X                  Y                   Z
    ------   -----------------  -----------------  -----------------
       1        0.000022115805     0.000030825346     0.000843543601
       2        0.000106291747    -0.000317897119    -0.001103325792
       3       -0.000495752310     0.000762969656     0.000423982444
       4        0.000006001772     0.000005678836    -0.000000283102
       5        0.000345956670    -0.000470588751    -0.000159065163
       6       -0.000003842604    -0.000003337189    -0.000004388715
       7       -0.000022800166    -0.000007566624    -0.000012641663
       8        0.000014928382     0.000000784947     0.000020494094
       9        0.000017767736    -0.000005064623    -0.000004895175
      10       -0.000000147639     0.000001282290     0.000002037118
      11        0.000013334380    -0.000009561191    -0.000002443910
      12        0.000003347767     0.000004763821     0.000004318932
      13       -0.000005130510    -0.000000807792    -0.000007090802
      14       -0.000008077511     0.000007277419     0.000000549354
      15        0.000001209248    -0.000004290951    -0.000009935400
      16        0.000004797236     0.000005531931     0.000009144176

  **** Optimization is complete! (in 6 steps) ****
    Final optimized geometry and variables:
    Molecular point group: c1

    Geometry (in Angstrom), charge = 0, multiplicity = 1:

    H           -2.761989271656    -1.097663675899     0.451526550818
    O           -1.951759194242    -1.589520065022     0.452451433778
    C           -0.881021677321    -0.735137714793     0.395501253319
    C           -0.163461826893    -0.465841041875     1.545169699764
    C           -0.497787032085    -0.187023525900    -0.819057743594
    H           -0.469200126655    -0.909427272813     2.474669480666
    C            0.940752345108     0.369028023839     1.468832921287
    H           -1.066968493259    -0.431439920375    -1.698595619766
    C            0.604476746416     0.651814727168    -0.900821970642
    H            1.505035108815     0.586413843549     2.358349270335
    C            1.320024163828     0.926649589373     0.261190417753
    C            1.038975584692     1.233961902932    -2.226146440537
    H            2.177643303361     1.575443887777     0.218262201215
    H            1.310156094041     2.279585554331    -2.125296134828
    H            0.251251689437     1.162034287985    -2.967008393982
    H            1.906473584551     0.707564964636    -2.614310624689

  Mulliken Charges: (a.u.)
   Center  Symbol    Alpha    Beta     Spin     Total
       1     H     0.27161  0.27161  0.00000  0.45679
       2     O     4.38873  4.38873  0.00000 -0.77745
       3     C     2.81414  2.81414  0.00000  0.37173
       4     C     3.12214  3.12214  0.00000 -0.24428
       5     C     3.13736  3.13736  0.00000 -0.27473
       6     H     0.39449  0.39449  0.00000  0.21102
       7     C     3.09356  3.09356  0.00000 -0.18712
       8     H     0.39837  0.39837  0.00000  0.20325
       9     C     2.97430  2.97430  0.00000  0.05140
      10     H     0.39855  0.39855  0.00000  0.20289
      11     C     3.11706  3.11706  0.00000 -0.23413
      12     C     3.25388  3.25388  0.00000 -0.50775
      13     H     0.40240  0.40240  0.00000  0.19520
      14     H     0.41210  0.41210  0.00000  0.17580
      15     H     0.41292  0.41292  0.00000  0.17417
      16     H     0.40839  0.40839  0.00000  0.18321

   Total alpha = 29.00000, Total beta = 29.00000, Total charge =  0.00000
