  ==> Input File <==

--------------------------------------------------------------------------
set {
	reference rhf
	basis 6-31G*
}

set_num_threads( 4 )
memory 2 gb

molecule MOL {
0 1

H	 -2.798360	 -0.862255	 -0.071053
N	 -1.863561	 -0.715187	 0.256814
C	 -1.344686	 0.554728	 -0.219830
H	 -1.300452	 -1.461917	 -0.101532
C	 0.081427	 0.741154	 0.254071
H	 -1.362155	 0.656231	 -1.305829
H	 -1.952773	 1.354456	 0.191809
O	 0.874168	 -0.245412	 -0.342030
H	 0.444037	 1.730782	 -0.023037
H	 0.121165	 0.653424	 1.337565
C	 1.515187	 -1.089709	 0.560093
H	 2.093401	 -1.802647	 -0.011820
H	 2.186960	 -0.536813	 1.214317
H	 0.799592	 -1.629462	 1.176860

	symmetry c1
}
set optking {
	frozen_dihedral = ("
		11 8 5 3
	")
}

ee = optimize('scf')
oeprop('DIPOLE', 'QUADRUPOLE', 'MULLIKEN_CHARGES')
f=open( 'psi4out.xyz', 'w' )
f.write( "14  " )
f.write( str(ee) + "\n" )
f.write( MOL.save_string_xyz() )
f.close()
--------------------------------------------------------------------------

    Molecular point group: c1
  Charge       = 0
  Multiplicity = 1
  Basis Set: 6-31G*
  Basis Set:
  @DF-RHF Final Energy:  -248.12073243910285
    Total Energy =                       -248.1207324391028806
    Molecular point group: c1
  Basis Set: 6-31G*
  Basis Set:
  Basis Set: 6-31G*
  Basis Set:
  @DF-RHF Final Energy:  -248.12152754577011
    Total Energy =                       -248.1215275457699363
  Basis Set: 6-31G*
  Basis Set:
  Basis Set: 6-31G*
  Basis Set:
  @DF-RHF Final Energy:  -248.12162917238234
    Total Energy =                       -248.1216291723821428
  Basis Set: 6-31G*
  Basis Set:
  Basis Set: 6-31G*
  Basis Set:
  @DF-RHF Final Energy:  -248.12163535551130
    Total Energy =                       -248.1216353555112732
  Basis Set: 6-31G*
  Basis Set:
  Charge       = 0
  Multiplicity = 1
  Basis Set: 6-31G*
  Basis Set:

    Orbital Energies (a.u.)
    -----------------------

    Doubly Occupied:

       1A    -20.551856     2A    -15.533379     3A    -11.263916
       4A    -11.262486     5A    -11.240984     6A     -1.373536
       7A     -1.176443     8A     -0.998292     9A     -0.906738
      10A     -0.813278    11A     -0.685797    12A     -0.667923
      13A     -0.641393    14A     -0.614335    15A     -0.599880
      16A     -0.538501    17A     -0.530520    18A     -0.504581
      19A     -0.468371    20A     -0.413189    21A     -0.381004

  @DF-RHF Final Energy:  -248.12163572617760

   => Energetics <=

    Nuclear Repulsion Energy =            196.4772446821447716
    One-Electron Energy =                -726.8649510164905223
    Two-Electron Energy =                 282.2660706081682633
    DFT Exchange-Correlation Energy =       0.0000000000000000
    Empirical Dispersion Energy =           0.0000000000000000
    PCM Polarization Energy =               0.0000000000000000
    EFP Energy =                            0.0000000000000000
    Total Energy =                       -248.1216357261774306
    Molecular point group: c1
  Basis Set: 6-31G*
  Basis Set:

  -Total Gradient:
     Atom            X                  Y                   Z
    ------   -----------------  -----------------  -----------------
       1        0.000007845581    -0.000001061857     0.000002569544
       2       -0.000034826271     0.000032752646    -0.000014837187
       3       -0.000149595609    -0.000646237003     0.000788957044
       4        0.000005617113     0.000029632564     0.000003152847
       5       -0.000107501051     0.000472853868    -0.001113855015
       6       -0.000003431623    -0.000013910076     0.000015218537
       7       -0.000016394864    -0.000002089820     0.000012809235
       8        0.001195170084     0.000839405640     0.000313392839
       9        0.000002518882     0.000015757939    -0.000006863027
      10       -0.000000417452    -0.000021831304    -0.000006307902
      11       -0.000913305255    -0.000691459838    -0.000010779059
      12       -0.000005704533     0.000005447493     0.000004500764
      13        0.000011695244    -0.000006749633     0.000007344592
      14        0.000008329755    -0.000012510619     0.000004696789

  **** Optimization is complete! (in 5 steps) ****
    Final optimized geometry and variables:
    Molecular point group: c1

    Geometry (in Angstrom), charge = 0, multiplicity = 1:

    H           -2.693009354488    -0.648775136837    -0.117306772896
    N           -1.722354557172    -0.552414936646     0.109914887522
    C           -1.219033728380     0.741251745161    -0.321093873362
    H           -1.234507537990    -1.277825086088    -0.379020207487
    C            0.214448602763     0.921718906621     0.142171107388
    H           -1.260009114163     0.882466084022    -1.401960249897
    H           -1.828210863343     1.519018664344     0.129937118713
    O            1.030942228852    -0.073791922504    -0.419450451945
    H            0.588557261161     1.893143418869    -0.168209281805
    H            0.246976312638     0.875485875233     1.225963043150
    C            1.687720046405    -0.906226096618     0.488383746519
    H            2.237834826617    -1.638696502342    -0.087423718549
    H            2.391177123792    -0.349229804879     1.103521811305
    H            0.986417071487    -1.419437305137     1.139586490966

  Mulliken Charges: (a.u.)
   Center  Symbol    Alpha    Beta     Spin     Total
       1     H     0.33134  0.33134  0.00000  0.33731
       2     N     3.92628  3.92628  0.00000 -0.85256
       3     C     3.06999  3.06999  0.00000 -0.13998
       4     H     0.32656  0.32656  0.00000  0.34688
       5     C     2.98988  2.98988  0.00000  0.02024
       6     H     0.42656  0.42656  0.00000  0.14687
       7     H     0.42213  0.42213  0.00000  0.15574
       8     O     4.31355  4.31355  0.00000 -0.62710
       9     H     0.42283  0.42283  0.00000  0.15433
      10     H     0.42262  0.42262  0.00000  0.15476
      11     C     3.08308  3.08308  0.00000 -0.16617
      12     H     0.41512  0.41512  0.00000  0.16976
      13     H     0.42878  0.42878  0.00000  0.14244
      14     H     0.42126  0.42126  0.00000  0.15748

   Total alpha = 21.00000, Total beta = 21.00000, Total charge =  0.00000
