                              Psi4 1.0.54 Driver

  ==> Input File <==

--------------------------------------------------------------------------
set {
	reference rhf
	basis cc-pvtz
}

set_num_threads( 4 )
memory 2 gb

molecule MOL {
0 1

O	 1.349677	 0.859691	 0.897228
C	 0.860843	 0.273204	 -0.013120
C	 -0.623368	 -0.117453	 -0.005652
C	 1.714021	 -0.106920	 -1.207112
C	 -0.892588	 -1.253841	 -1.002900
C	 -1.473463	 1.100646	 -0.372896
C	 -0.981836	 -0.579025	 1.418506
H	 -0.609333	 -0.970024	 -2.010649
H	 -1.950451	 -1.487353	 -1.013175
H	 -0.360848	 -2.161259	 -0.746463
H	 -1.232203	 1.461623	 -1.364827
H	 -2.524364	 0.834451	 -0.354500
H	 -1.312381	 1.914833	 0.318657
H	 -2.035706	 -0.826342	 1.468082
H	 -0.425078	 -1.458934	 1.716857
H	 -0.788494	 0.205047	 2.140903
H	 1.523128	 0.588420	 -2.016942
H	 2.753783	 -0.035844	 -0.927271
H	 1.496754	 -1.100994	 -1.572961

	symmetry c1
}
set optking {
	frozen_dihedral = ("
		1 2 3 5
	")
}

ee,wfn = optimize('scf', return_wfn=True)
oeprop( wfn, 'DIPOLE', 'QUADRUPOLE', 'MULLIKEN_CHARGES')
f=open( 'psi4out.xyz', 'w' )
f.write( "19  " )
f.write( str(ee) + "\n" )
f.write( MOL.save_string_xyz() )
f.close()
--------------------------------------------------------------------------

    Molecular point group: c1
  Charge       = 0
  Multiplicity = 1
  Basis Set: CC-PVTZ
  Basis Set:
  @DF-RHF Final Energy:  -309.17061697575787
    Total Energy =                       -309.1706169757578664
    Molecular point group: c1
  Basis Set: CC-PVTZ
  Basis Set:
  Basis Set: CC-PVTZ
  Basis Set:
  @DF-RHF Final Energy:  -309.13539930632652
    Total Energy =                       -309.1353993063269172
  Basis Set: CC-PVTZ
  Basis Set:
  Basis Set: CC-PVTZ
  Basis Set:
  @DF-RHF Final Energy:  -309.17092093891176
    Total Energy =                       -309.1709209389118769
  Basis Set: CC-PVTZ
  Basis Set:
  Basis Set: CC-PVTZ
  Basis Set:
  @DF-RHF Final Energy:  -309.17261593514070
    Total Energy =                       -309.1726159351403567
  Basis Set: CC-PVTZ
  Basis Set:
  @DF-RHF Final Energy:  -309.04415188816876
    Total Energy =                       -309.0441518881686989
  @DF-RHF Final Energy:  -309.15194645139240
    Total Energy =                       -309.1519464513922344
  @DF-RHF Final Energy:  -309.17046327515231
    Total Energy =                       -309.1704632751526560
  @DF-RHF Final Energy:  -309.15536210951484
    Total Energy =                       -309.1553621095147832
  @DF-RHF Final Energy:  -309.16893882768392
    Total Energy =                       -309.1689388276840873
  @DF-RHF Final Energy:  -309.17322302477396
    Total Energy =                       -309.1732230247737903
  @DF-RHF Final Energy:  -309.17334997253539
    Total Energy =                       -309.1733499725353340
  @DF-RHF Final Energy:  -309.17232561600059
    Total Energy =                       -309.1723256160004212
  @DF-RHF Final Energy:  -309.17320985558445
    Total Energy =                       -309.1732098555847301
  Basis Set: CC-PVTZ
  Basis Set:
  @DF-RHF Final Energy:  -309.17355537316098
    Total Energy =                       -309.1735553731610366
  Basis Set: CC-PVTZ
  Basis Set:
  Basis Set: CC-PVTZ
  Basis Set:
  @DF-RHF Final Energy:  -309.17358102668135
    Total Energy =                       -309.1735810266812905
  Basis Set: CC-PVTZ
  Basis Set:
  Basis Set: CC-PVTZ
  Basis Set:
  @DF-RHF Final Energy:  -309.17358243931460
    Total Energy =                       -309.1735824393144867
  Basis Set: CC-PVTZ
  Basis Set:
  Charge       = 0
  Multiplicity = 1
  Basis Set: CC-PVTZ
  Basis Set:

    Orbital Energies (a.u.)
    -----------------------

    Doubly Occupied:

       1A    -20.536611     2A    -11.318267     3A    -11.245591
       4A    -11.225847     5A    -11.220432     6A    -11.219755
       7A    -11.209208     8A     -1.398271     9A     -1.109866
      10A     -1.004315    11A     -0.945088    12A     -0.937958
      13A     -0.834660    14A     -0.705607    15A     -0.666882
      16A     -0.634052    17A     -0.623340    18A     -0.592463
      19A     -0.588705    20A     -0.570576    21A     -0.549893
      22A     -0.546706    23A     -0.524930    24A     -0.514277
      25A     -0.503165    26A     -0.473197    27A     -0.464246
      28A     -0.393922

  @DF-RHF Final Energy:  -309.17358232084024

   => Energetics <=

    Nuclear Repulsion Energy =            326.9103046983639729
    One-Electron Energy =               -1067.0521178752192100
    Two-Electron Energy =                 430.9682308560153956
    DFT Exchange-Correlation Energy =       0.0000000000000000
    Empirical Dispersion Energy =           0.0000000000000000
    PCM Polarization Energy =               0.0000000000000000
    EFP Energy =                            0.0000000000000000
    Total Energy =                       -309.1735823208398983
    Molecular point group: c1
  Basis Set: CC-PVTZ
  Basis Set:

  -Total Gradient:
     Atom            X                  Y                   Z
    ------   -----------------  -----------------  -----------------
       1       -0.001000929200     0.001016496856    -0.000098627582
       2        0.001123092315    -0.001233800296    -0.000033380732
       3        0.000500386035    -0.000525282639     0.000501272499
       4       -0.000085879278     0.000016229798     0.000008832672
       5       -0.000603090397     0.000703435315    -0.000392953507
       6        0.000023112321    -0.000033001848     0.000035144982
       7       -0.000008692709     0.000012043725    -0.000013420354
       8       -0.000000879590    -0.000019560580     0.000001825927
       9        0.000042591463     0.000027130851    -0.000015044681
      10       -0.000027411837     0.000018224369    -0.000018149137
      11        0.000002760323    -0.000002310058    -0.000022363187
      12        0.000002918335    -0.000018367653     0.000016768165
      13        0.000020222385     0.000049869808    -0.000011695620
      14        0.000008867638     0.000010972897     0.000008245412
      15       -0.000015837584     0.000001652285    -0.000003661080
      16        0.000005533880    -0.000001847720     0.000011452587
      17        0.000018045199    -0.000010937337     0.000003114962
      18        0.000005450779     0.000006222072     0.000005271852
      19       -0.000010260079    -0.000017169841     0.000017366824

  **** Optimization is complete! (in 17 steps) ****
    Final optimized geometry and variables:
    Molecular point group: c1

    Geometry (in Angstrom), charge = 0, multiplicity = 1:

    O            1.067228203149     1.001045039589     1.113366561967
    C            0.682244414730     0.591609853298     0.066166687119
    C           -0.452227491462    -0.445124437778     0.009549010689
    C            1.259941730457     1.141704243564    -1.219725125938
    C           -0.496030629315    -1.212999905217    -1.316839455282
    C           -1.761723793801     0.345822041751     0.184171503091
    C           -0.287957562868    -1.430591087189     1.171095253589
    H           -0.669521770947    -0.562854014609    -2.164749439830
    H           -1.303719200557    -1.934493628757    -1.290856094328
    H            0.422761671120    -1.760814474246    -1.494312334336
    H           -1.902118887623     1.068909890050    -0.612464530915
    H           -2.607989516918    -0.331154324461     0.166543632123
    H           -1.767170597672     0.876643158391     1.126909734998
    H           -1.115664447963    -2.130712539796     1.182052843112
    H            0.629716147016    -2.000002491120     1.073608777802
    H           -0.258708472485    -0.913602424325     2.118310836845
    H            0.477572968161     1.531489049456    -1.859878318196
    H            1.957854124386     1.928371545390    -0.979051386665
    H            1.769975990513     0.361796702607    -1.772072030469

  Mulliken Charges: (a.u.)
   Center  Symbol    Alpha    Beta     Spin     Total
       1     O     4.18023  4.18023  0.00000 -0.36046
       2     C     2.84783  2.84783  0.00000  0.30434
       3     C     3.00620  3.00620  0.00000 -0.01240
       4     C     3.16439  3.16439  0.00000 -0.32877
       5     C     3.16553  3.16553  0.00000 -0.33106
       6     C     3.15461  3.15461  0.00000 -0.30921
       7     C     3.15277  3.15277  0.00000 -0.30554
       8     H     0.44559  0.44559  0.00000  0.10881
       9     H     0.44257  0.44257  0.00000  0.11485
      10     H     0.44471  0.44471  0.00000  0.11058
      11     H     0.44851  0.44851  0.00000  0.10297
      12     H     0.44777  0.44777  0.00000  0.10447
      13     H     0.43846  0.43846  0.00000  0.12308
      14     H     0.45127  0.45127  0.00000  0.09745
      15     H     0.44984  0.44984  0.00000  0.10033
      16     H     0.43505  0.43505  0.00000  0.12991
      17     H     0.44639  0.44639  0.00000  0.10723
      18     H     0.43173  0.43173  0.00000  0.13654
      19     H     0.44656  0.44656  0.00000  0.10688

   Total alpha = 28.00000, Total beta = 28.00000, Total charge =  0.00000

*** Psi4 exiting successfully. Buy a developer a beer!
