  ==> Input File <==

--------------------------------------------------------------------------
set {
	reference rhf
	basis 6-31G*
}

set_num_threads( 1 )
memory 2 gb

molecule MOL {
0 1

O	 -1.276010	 1.052711	 -0.768302
C	 -1.204840	 0.067374	 -0.106123
C	 -2.388195	 -0.672128	 0.458071
O	 -0.067104	 -0.527208	 0.221609
H	 -2.388023	 -1.694060	 0.097175
H	 -3.300579	 -0.174919	 0.164318
H	 -2.315377	 -0.706351	 1.539059
C	 0.685678	 -1.200513	 -0.797169
C	 1.505962	 -2.257677	 -0.079445
C	 1.540297	 -0.195339	 -1.553407
H	 -0.015088	 -1.666676	 -1.474018
H	 0.860846	 -2.942786	 0.458791
H	 2.089910	 -2.827195	 -0.794978
H	 2.185743	 -1.798943	 0.630564
H	 2.129906	 -0.701976	 -2.310834
H	 0.919831	 0.542385	 -2.046116
H	 2.218653	 0.312020	 -0.874858

	symmetry c1
}
set optking {
	frozen_dihedral = ("
		11 8 4 2
	")
}

ee = energy('scf')
oeprop('DIPOLE', 'QUADRUPOLE', 'MULLIKEN_CHARGES')
f=open( 'psi4out.xyz', 'w' )
f.write( "17  " )
f.write( str(ee) + "\n" )
f.write( MOL.save_string_xyz() )
f.close()
--------------------------------------------------------------------------

    Molecular point group: c1

    Geometry (in Angstrom), charge = 0, multiplicity = 1:

       Center              X                  Y                   Z               Mass
    ------------   -----------------  -----------------  -----------------  -----------------
           O         -1.105421127399     1.586117230054    -0.392786349659    15.994914619560
           C         -1.034251127399     0.600780230054     0.269392650341    12.000000000000
           C         -2.217606127399    -0.138721769946     0.833586650341    12.000000000000
           O          0.103484872601     0.006198230054     0.597124650341    15.994914619560
           H         -2.217434127399    -1.160653769946     0.472690650341     1.007825032070
           H         -3.129990127399     0.358487230054     0.539833650341     1.007825032070
           H         -2.144788127399    -0.172944769946     1.914574650341     1.007825032070
           C          0.856266872601    -0.667106769946    -0.421653349659    12.000000000000
           C          1.676550872601    -1.724270769946     0.296070650341    12.000000000000
           C          1.710885872601     0.338067230054    -1.177891349659    12.000000000000
           H          0.155500872601    -1.133269769946    -1.098502349659     1.007825032070
           H          1.031434872601    -2.409379769946     0.834306650341     1.007825032070
           H          2.260498872601    -2.293788769946    -0.419462349659     1.007825032070
           H          2.356331872601    -1.265536769946     1.006079650341     1.007825032070
           H          2.300494872601    -0.168569769946    -1.935318349659     1.007825032070
           H          1.090419872601     1.075791230054    -1.670600349659     1.007825032070
           H          2.389241872601     0.845426230054    -0.499342349659     1.007825032070

  Charge       = 0
  Multiplicity = 1
  Basis Set: 6-31G*
  Basis Set:

    Orbital Energies (a.u.)
    -----------------------

    Doubly Occupied:

       1A    -20.582592     2A    -20.551931     3A    -11.375545
       4A    -11.301964     5A    -11.232838     6A    -11.223602
       7A    -11.212852     8A     -1.460967     9A     -1.364459
      10A     -1.077776    11A     -1.006927    12A     -0.948945
      13A     -0.849940    14A     -0.772106    15A     -0.690298
      16A     -0.676612    17A     -0.653286    18A     -0.612920
      19A     -0.590211    20A     -0.583486    21A     -0.555394
      22A     -0.550828    23A     -0.549187    24A     -0.515516
      25A     -0.503373    26A     -0.482708    27A     -0.445375
      28A     -0.433794

  @DF-RHF Final Energy:  -344.89695249376177

   => Energetics <=

    Nuclear Repulsion Energy =            323.3073074043289807
    One-Electron Energy =               -1110.7975558254970565
    Two-Electron Energy =                 442.5932959274065297
    DFT Exchange-Correlation Energy =       0.0000000000000000
    Empirical Dispersion Energy =           0.0000000000000000
    PCM Polarization Energy =               0.0000000000000000
    EFP Energy =                            0.0000000000000000
    Total Energy =                       -344.8969524937615461

  Mulliken Charges: (a.u.)
   Center  Symbol    Alpha    Beta     Spin     Total
       1     O     4.26450  4.26450  0.00000 -0.52901
       2     C     2.62485  2.62485  0.00000  0.75031
       3     C     3.28144  3.28144  0.00000 -0.56288
       4     O     4.31754  4.31754  0.00000 -0.63508
       5     H     0.40705  0.40705  0.00000  0.18590
       6     H     0.39964  0.39964  0.00000  0.20072
       7     H     0.39931  0.39931  0.00000  0.20139
       8     C     2.92873  2.92873  0.00000  0.14255
       9     C     3.24003  3.24003  0.00000 -0.48005
      10     C     3.24525  3.24525  0.00000 -0.49050
      11     H     0.41865  0.41865  0.00000  0.16270
      12     H     0.41308  0.41308  0.00000  0.17383
      13     H     0.41764  0.41764  0.00000  0.16473
      14     H     0.40975  0.40975  0.00000  0.18050
      15     H     0.42331  0.42331  0.00000  0.15337
      16     H     0.39616  0.39616  0.00000  0.20769
      17     H     0.41308  0.41308  0.00000  0.17384

   Total alpha = 28.00000, Total beta = 28.00000, Total charge =  0.00000
