                              Psi4 1.0.54 Driver

  ==> Input File <==

--------------------------------------------------------------------------
set {
	reference rhf
	basis cc-pvtz
}

set_num_threads( 4 )
memory 2 gb

molecule MOL {
0 1

H	 1.155103	 1.077433	 1.751857
C	 0.231802	 1.186641	 1.202040
O	 0.000000	 0.000000	 0.518769
H	 -0.570060	 1.405417	 1.904187
H	 0.328654	 2.027692	 0.518587
C	 -1.165153	 0.000000	 -0.236961
H	 -1.229451	 0.882440	 -0.870223
H	 -2.002557	 0.000000	 0.445289
H	 -1.229451	 -0.882440	 -0.870223

	symmetry c1
}
set optking {
	frozen_dihedral = ("
		2 3 6 7
	")
}

ee,wfn = optimize('scf', return_wfn=True)
oeprop( wfn, 'DIPOLE', 'QUADRUPOLE', 'MULLIKEN_CHARGES')
f=open( 'psi4out.xyz', 'w' )
f.write( "9  " )
f.write( str(ee) + "\n" )
f.write( MOL.save_string_xyz() )
f.close()
--------------------------------------------------------------------------

    Molecular point group: c1
  Charge       = 0
  Multiplicity = 1
  Basis Set: CC-PVTZ
  Basis Set:
  @DF-RHF Final Energy:  -154.12597552745939
    Total Energy =                       -154.1259755274593886
    Molecular point group: c1
  Basis Set: CC-PVTZ
  Basis Set:
  Basis Set: CC-PVTZ
  Basis Set:
  @DF-RHF Final Energy:  -154.12672128615338
    Total Energy =                       -154.1267212861532983
  Basis Set: CC-PVTZ
  Basis Set:
  Basis Set: CC-PVTZ
  Basis Set:
  @DF-RHF Final Energy:  -154.12691992155635
    Total Energy =                       -154.1269199215562651
  Basis Set: CC-PVTZ
  Basis Set:
  Charge       = 0
  Multiplicity = 1
  Basis Set: CC-PVTZ
  Basis Set:

    Orbital Energies (a.u.)
    -----------------------

    Doubly Occupied:

       1A    -20.550169     2A    -11.263310     3A    -11.263206
       4A     -1.382656     5A     -0.975863     6A     -0.872823
       7A     -0.663743     8A     -0.656029     9A     -0.647068
      10A     -0.551642    11A     -0.530047    12A     -0.477225
      13A     -0.419856

  @DF-RHF Final Energy:  -154.12692131063994

   => Energetics <=

    Nuclear Repulsion Energy =             84.8537497800746365
    One-Electron Energy =                -377.4540698849419300
    Two-Electron Energy =                 138.4733987942273927
    DFT Exchange-Correlation Energy =       0.0000000000000000
    Empirical Dispersion Energy =           0.0000000000000000
    PCM Polarization Energy =               0.0000000000000000
    EFP Energy =                            0.0000000000000000
    Total Energy =                       -154.1269213106399150
    Molecular point group: c1
  Basis Set: CC-PVTZ
  Basis Set:

  -Total Gradient:
     Atom            X                  Y                   Z
    ------   -----------------  -----------------  -----------------
       1       -0.000021035944    -0.000085895575    -0.000039192851
       2        0.000468352891     0.000542108149    -0.001040595310
       3       -0.001086879725    -0.000497890404     0.001626178360
       4        0.000010360688    -0.000025636953     0.000006799603
       5        0.000018524787     0.000022382338     0.000008171625
       6        0.001134385889    -0.000708000073    -0.001770665414
       7       -0.000640319234     0.000751324668     0.001139122423
       8        0.000044699331    -0.000005983432     0.000025000351
       9        0.000071911317     0.000007591280     0.000045181213

  **** Optimization is complete! (in 4 steps) ****
    Final optimized geometry and variables:
    Molecular point group: c1

    Geometry (in Angstrom), charge = 0, multiplicity = 1:

    H            1.500682543232     0.640583779710     1.243604562360
    C            0.571576411834     0.766975457064     0.707065733761
    O            0.317450575163    -0.409341457080     0.014110370198
    H           -0.217550520416     0.988661992704     1.423083817448
    H            0.669219284758     1.613515411741     0.030756940428
    C           -0.861439057722    -0.393604282926    -0.720284547586
    H           -0.932188767392     0.495901555018    -1.342602479809
    H           -1.733314494511    -0.418158940077    -0.069290045463
    H           -0.873674175330    -1.269624429341    -1.352100458023

  Mulliken Charges: (a.u.)
   Center  Symbol    Alpha    Beta     Spin     Total
       1     H     0.44839  0.44839  0.00000  0.10321
       2     C     3.02207  3.02207  0.00000 -0.04415
       3     O     4.16752  4.16752  0.00000 -0.33504
       4     H     0.47364  0.47364  0.00000  0.05272
       5     H     0.47236  0.47236  0.00000  0.05528
       6     C     3.02154  3.02154  0.00000 -0.04308
       7     H     0.47482  0.47482  0.00000  0.05035
       8     H     0.47106  0.47106  0.00000  0.05788
       9     H     0.44859  0.44859  0.00000  0.10283

   Total alpha = 13.00000, Total beta = 13.00000, Total charge =  0.00000

*** Psi4 exiting successfully. Buy a developer a beer!
