  ==> Input File <==

--------------------------------------------------------------------------
set {
	reference rhf
	basis 6-31G*
}

set_num_threads( 1 )
memory 2 gb

molecule MOL {
0 1

H	 2.004279	 -0.039420	 -1.115903
O	 1.654024	 -0.625927	 -0.460906
C	 1.135793	 0.118896	 0.612333
C	 0.031547	 1.023609	 0.088541
H	 1.915668	 0.729681	 1.063582
H	 0.754543	 -0.542641	 1.387006
C	 -1.134819	 0.293262	 -0.585751
H	 0.474374	 1.714721	 -0.623187
H	 -0.338529	 1.620940	 0.920081
C	 -1.917817	 -0.639439	 0.339494
H	 -0.758119	 -0.268455	 -1.433105
H	 -1.813832	 1.041889	 -0.986690
H	 -2.777680	 -1.057197	 -0.174994
H	 -1.310268	 -1.471279	 0.680599
H	 -2.283753	 -0.111424	 1.216626

	symmetry c1
}
set optking {
	frozen_dihedral = ("
		8 4 7 11,
		2 3 4 8
	")
}

ee = energy('scf')
oeprop('DIPOLE', 'QUADRUPOLE', 'MULLIKEN_CHARGES')
f=open( 'psi4out.xyz', 'w' )
f.write( "15  " )
f.write( str(ee) + "\n" )
f.write( MOL.save_string_xyz() )
f.close()
--------------------------------------------------------------------------

    Molecular point group: c1

    Geometry (in Angstrom), charge = 0, multiplicity = 1:

       Center              X                  Y                   Z               Mass
    ------------   -----------------  -----------------  -----------------  -----------------
           H          2.008777790887    -0.055265869514    -1.102734608706     1.007825032070
           O          1.658522790887    -0.641772869514    -0.447737608706    15.994914619560
           C          1.140291790887     0.103050130486     0.625501391294    12.000000000000
           C          0.036045790887     1.007763130486     0.101709391294    12.000000000000
           H          1.920166790887     0.713835130486     1.076750391294     1.007825032070
           H          0.759041790887    -0.558486869514     1.400174391294     1.007825032070
           C         -1.130320209113     0.277416130486    -0.572582608706    12.000000000000
           H          0.478872790887     1.698875130486    -0.610018608706     1.007825032070
           H         -0.334030209113     1.605094130486     0.933249391294     1.007825032070
           C         -1.913318209113    -0.655284869514     0.352662391294    12.000000000000
           H         -0.753620209113    -0.284300869514    -1.419936608706     1.007825032070
           H         -1.809333209113     1.026043130486    -0.973521608706     1.007825032070
           H         -2.773181209113    -1.073042869514    -0.161825608706     1.007825032070
           H         -1.305769209113    -1.487124869514     0.693767391294     1.007825032070
           H         -2.279254209113    -0.127269869514     1.229794391294     1.007825032070

  Charge       = 0
  Multiplicity = 1
  Basis Set: 6-31G*
  Basis Set:

    Orbital Energies (a.u.)
    -----------------------

    Doubly Occupied:

       1A    -20.552629     2A    -11.268651     3A    -11.216388
       4A    -11.213674     5A    -11.206982     6A     -1.360934
       7A     -1.066701     8A     -0.971405     9A     -0.876066
      10A     -0.786758    11A     -0.678981    12A     -0.643928
      13A     -0.633368    14A     -0.581270    15A     -0.563380
      16A     -0.541731    17A     -0.502879    18A     -0.483060
      19A     -0.472174    20A     -0.454314    21A     -0.426526

  @DF-RHF Final Energy:  -232.14192241144474

   => Energetics <=

    Nuclear Repulsion Energy =            192.4432684964010036
    One-Electron Energy =                -696.1668342598701429
    Two-Electron Energy =                 271.5816433520252531
    DFT Exchange-Correlation Energy =       0.0000000000000000
    Empirical Dispersion Energy =           0.0000000000000000
    PCM Polarization Energy =               0.0000000000000000
    EFP Energy =                            0.0000000000000000
    Total Energy =                       -232.1419224114438862

  Mulliken Charges: (a.u.)
   Center  Symbol    Alpha    Beta     Spin     Total
       1     H     0.28189  0.28189  0.00000  0.43622
       2     O     4.36876  4.36876  0.00000 -0.73751
       3     C     2.99793  2.99793  0.00000  0.00413
       4     C     3.17025  3.17025  0.00000 -0.34049
       5     H     0.42762  0.42762  0.00000  0.14477
       6     H     0.41402  0.41402  0.00000  0.17195
       7     C     3.14931  3.14931  0.00000 -0.29861
       8     H     0.42741  0.42741  0.00000  0.14517
       9     H     0.42431  0.42431  0.00000  0.15138
      10     C     3.24436  3.24436  0.00000 -0.48871
      11     H     0.41333  0.41333  0.00000  0.17334
      12     H     0.42246  0.42246  0.00000  0.15509
      13     H     0.41829  0.41829  0.00000  0.16343
      14     H     0.41585  0.41585  0.00000  0.16831
      15     H     0.42423  0.42423  0.00000  0.15153

   Total alpha = 21.00000, Total beta = 21.00000, Total charge =  0.00000
