  ==> Input File <==

--------------------------------------------------------------------------
set {
	reference rhf
	basis 6-31G*
}

set_num_threads( 1 )
memory 2 gb

molecule MOL {
0 1

H	 0.134948	 -3.362005	 1.111715
O	 0.666797	 -2.619832	 0.841400
C	 -0.138576	 -1.569521	 0.684433
C	 0.624473	 -0.343591	 0.253101
O	 -1.309402	 -1.637948	 0.872843
C	 -0.265902	 0.883932	 0.072916
H	 1.402601	 -0.178692	 0.991138
H	 1.139744	 -0.593966	 -0.670782
C	 -1.728698	 0.646073	 0.462102
H	 -0.209144	 1.219470	 -0.958188
H	 0.135059	 1.692851	 0.673903
C	 -2.482460	 -0.343073	 -0.431425
H	 -2.245265	 1.602650	 0.432430
H	 -1.779332	 0.308348	 1.496285
C	 -3.960546	 -0.461025	 -0.060175
H	 -2.395034	 -0.026811	 -1.468912
H	 -2.024850	 -1.327147	 -0.371646
H	 -4.472726	 -1.168004	 -0.705284
H	 -4.465146	 0.496508	 -0.151489
H	 -4.081218	 -0.800940	 0.964585

	symmetry c1
}
set optking {
	frozen_dihedral = ("
		16 12 9 6,
		12 9 6 10,
		5 3 4 7,
		1 2 3 5
	")
}

ee = energy('scf')
oeprop('DIPOLE', 'QUADRUPOLE', 'MULLIKEN_CHARGES')
f=open( 'psi4out.xyz', 'w' )
f.write( "20  " )
f.write( str(ee) + "\n" )
f.write( MOL.save_string_xyz() )
f.close()
--------------------------------------------------------------------------

    Molecular point group: c1

    Geometry (in Angstrom), charge = 0, multiplicity = 1:

       Center              X                  Y                   Z               Mass
    ------------   -----------------  -----------------  -----------------  -----------------
           H          1.209231764472    -2.634049810147     0.762442414776     1.007825032070
           O          1.741080764472    -1.891876810147     0.492127414776    15.994914619560
           C          0.935707764472    -0.841565810147     0.335160414776    12.000000000000
           C          1.698756764472     0.384364189853    -0.096171585224    12.000000000000
           O         -0.235118235528    -0.909992810147     0.523570414776    15.994914619560
           C          0.808381764472     1.611887189853    -0.276356585224    12.000000000000
           H          2.476884764472     0.549263189853     0.641865414776     1.007825032070
           H          2.214027764472     0.133989189853    -1.020054585224     1.007825032070
           C         -0.654414235528     1.374028189853     0.112829414776    12.000000000000
           H          0.865139764472     1.947425189853    -1.307460585224     1.007825032070
           H          1.209342764472     2.420806189853     0.324630414776     1.007825032070
           C         -1.408176235528     0.384882189853    -0.780697585224    12.000000000000
           H         -1.170981235528     2.330605189853     0.083157414776     1.007825032070
           H         -0.705048235528     1.036303189853     1.147012414776     1.007825032070
           C         -2.886262235528     0.266930189853    -0.409447585224    12.000000000000
           H         -1.320750235528     0.701144189853    -1.818184585224     1.007825032070
           H         -0.950566235528    -0.599191810147    -0.720918585224     1.007825032070
           H         -3.398442235528    -0.440048810147    -1.054556585224     1.007825032070
           H         -3.390862235528     1.224463189853    -0.500761585224     1.007825032070
           H         -3.006934235528    -0.072984810147     0.615312414776     1.007825032070

  Charge       = 0
  Multiplicity = 1
  Basis Set: 6-31G*
  Basis Set:

    Orbital Energies (a.u.)
    -----------------------

    Doubly Occupied:

       1A    -20.617847     2A    -20.554072     3A    -11.387777
       4A    -11.244307     5A    -11.221945     6A    -11.197658
       7A    -11.187885     8A    -11.172220     9A     -1.487179
      10A     -1.385699    11A     -1.088480    12A     -1.029489
      13A     -0.947757    14A     -0.861462    15A     -0.825479
      16A     -0.768069    17A     -0.728388    18A     -0.695307
      19A     -0.667984    20A     -0.631927    21A     -0.607389
      22A     -0.570908    23A     -0.557177    24A     -0.550278
      25A     -0.535667    26A     -0.517332    27A     -0.503584
      28A     -0.487227    29A     -0.455274    30A     -0.442508
      31A     -0.425032    32A     -0.380166

  @DF-RHF Final Energy:  -383.85683296416568

   => Energetics <=

    Nuclear Repulsion Energy =            410.2602727232837765
    One-Electron Energy =               -1336.7672037817965247
    Two-Electron Energy =                 542.6500980943477543
    DFT Exchange-Correlation Energy =       0.0000000000000000
    Empirical Dispersion Energy =           0.0000000000000000
    PCM Polarization Energy =               0.0000000000000000
    EFP Energy =                            0.0000000000000000
    Total Energy =                       -383.8568329641649370

  Mulliken Charges: (a.u.)
   Center  Symbol    Alpha    Beta     Spin     Total
       1     H     0.26788  0.26788  0.00000  0.46425
       2     O     4.34924  4.34924  0.00000 -0.69847
       3     C     2.62336  2.62336  0.00000  0.75329
       4     C     3.21438  3.21438  0.00000 -0.42876
       5     O     4.28192  4.28192  0.00000 -0.56384
       6     C     3.15863  3.15863  0.00000 -0.31726
       7     H     0.39263  0.39263  0.00000  0.21473
       8     H     0.39298  0.39298  0.00000  0.21405
       9     C     3.15731  3.15731  0.00000 -0.31462
      10     H     0.41501  0.41501  0.00000  0.16998
      11     H     0.41514  0.41514  0.00000  0.16972
      12     C     3.15388  3.15388  0.00000 -0.30775
      13     H     0.42544  0.42544  0.00000  0.14912
      14     H     0.41391  0.41391  0.00000  0.17217
      15     C     3.23482  3.23482  0.00000 -0.46963
      16     H     0.44294  0.44294  0.00000  0.11411
      17     H     0.38393  0.38393  0.00000  0.23213
      18     H     0.42521  0.42521  0.00000  0.14957
      19     H     0.42794  0.42794  0.00000  0.14412
      20     H     0.42346  0.42346  0.00000  0.15309

   Total alpha = 32.00000, Total beta = 32.00000, Total charge =  0.00000
