  ==> Input File <==

--------------------------------------------------------------------------
set {
	reference rhf
	basis 6-31G*
}

set_num_threads( 1 )
memory 2 gb

molecule MOL {
0 1

H	 -3.161837	 0.500524	 -0.000234
C	 -2.367097	 -0.232926	 -0.000000
O	 -1.158440	 0.455814	 -0.000122
H	 -2.468853	 -0.861886	 -0.882833
H	 -2.468942	 -0.861421	 0.883154
C	 -0.029776	 -0.365156	 0.000148
C	 1.212217	 0.508981	 0.000007
H	 -0.036772	 -1.013236	 -0.877259
H	 -0.036869	 -1.012778	 0.877897
C	 2.437561	 -0.216542	 0.554108
H	 1.400300	 0.839650	 -1.016824
H	 1.006575	 1.399463	 0.586056
H	 2.675415	 -1.098736	 -0.033756
H	 3.308470	 0.430167	 0.542729
H	 2.278647	 -0.535632	 1.580427

	symmetry c1
}
set optking {
	frozen_dihedral = ("
		6 3 2 4,
		8 6 3 2
	")
}

ee = energy('scf')
oeprop('DIPOLE', 'QUADRUPOLE', 'MULLIKEN_CHARGES')
f=open( 'psi4out.xyz', 'w' )
f.write( "15  " )
f.write( str(ee) + "\n" )
f.write( MOL.save_string_xyz() )
f.close()
--------------------------------------------------------------------------

    Molecular point group: c1

    Geometry (in Angstrom), charge = 0, multiplicity = 1:

       Center              X                  Y                   Z               Mass
    ------------   -----------------  -----------------  -----------------  -----------------
           H         -3.148625433246     0.481734721961    -0.112576251730     1.007825032070
           C         -2.353885433246    -0.251715278039    -0.112342251730    12.000000000000
           O         -1.145228433246     0.437024721961    -0.112464251730    15.994914619560
           H         -2.455641433246    -0.880675278039    -0.995175251730     1.007825032070
           H         -2.455730433246    -0.880210278039     0.770811748270     1.007825032070
           C         -0.016564433246    -0.383945278039    -0.112194251730    12.000000000000
           C          1.225428566754     0.490191721961    -0.112335251730    12.000000000000
           H         -0.023560433246    -1.032025278039    -0.989601251730     1.007825032070
           H         -0.023657433246    -1.031567278039     0.765554748270     1.007825032070
           C          2.450772566754    -0.235331278039     0.441765748270    12.000000000000
           H          1.413511566754     0.820860721961    -1.129166251730     1.007825032070
           H          1.019786566754     1.380673721961     0.473713748270     1.007825032070
           H          2.688626566754    -1.117525278039    -0.146098251730     1.007825032070
           H          3.321681566754     0.411377721961     0.430386748270     1.007825032070
           H          2.291858566754    -0.554421278039     1.468084748270     1.007825032070

  Charge       = 0
  Multiplicity = 1
  Basis Set: 6-31G*
  Basis Set:

    Orbital Energies (a.u.)
    -----------------------

    Doubly Occupied:

       1A    -20.553474     2A    -11.265804     3A    -11.263825
       4A    -11.213571     5A    -11.212465     6A     -1.378393
       7A     -1.057041     8A     -0.955017     9A     -0.877520
      10A     -0.808951    11A     -0.674150    12A     -0.654792
      13A     -0.630762    14A     -0.604906    15A     -0.566802
      16A     -0.542107    17A     -0.500484    18A     -0.488945
      19A     -0.477939    20A     -0.461716    21A     -0.413024

  @DF-RHF Final Energy:  -232.13741636667731

   => Energetics <=

    Nuclear Repulsion Energy =            189.8833136381638269
    One-Electron Energy =                -690.8380955858411880
    Two-Electron Energy =                 268.8173655810001037
    DFT Exchange-Correlation Energy =       0.0000000000000000
    Empirical Dispersion Energy =           0.0000000000000000
    PCM Polarization Energy =               0.0000000000000000
    EFP Energy =                            0.0000000000000000
    Total Energy =                       -232.1374163666772574

  Mulliken Charges: (a.u.)
   Center  Symbol    Alpha    Beta     Spin     Total
       1     H     0.41223  0.41223  0.00000  0.17555
       2     C     3.07950  3.07950  0.00000 -0.15900
       3     O     4.30552  4.30552  0.00000 -0.61104
       4     H     0.43050  0.43050  0.00000  0.13900
       5     H     0.43039  0.43039  0.00000  0.13922
       6     C     2.98284  2.98284  0.00000  0.03433
       7     C     3.16192  3.16192  0.00000 -0.32384
       8     H     0.43221  0.43221  0.00000  0.13559
       9     H     0.43306  0.43306  0.00000  0.13387
      10     C     3.24759  3.24759  0.00000 -0.49519
      11     H     0.41718  0.41718  0.00000  0.16564
      12     H     0.40928  0.40928  0.00000  0.18145
      13     H     0.42187  0.42187  0.00000  0.15627
      14     H     0.41625  0.41625  0.00000  0.16750
      15     H     0.41967  0.41967  0.00000  0.16066

   Total alpha = 21.00000, Total beta = 21.00000, Total charge =  0.00000
