                              Psi4 1.0.54 Driver

  ==> Input File <==

--------------------------------------------------------------------------
set {
	reference rhf
	basis cc-pvtz
}

set_num_threads( 4 )
memory 2 gb

molecule MOL {
0 1

H	 -3.144994	 -1.202467	 -0.018751
O	 -2.321472	 -0.864941	 -0.318626
C	 -2.021813	 0.336996	 0.342658
C	 -0.669613	 0.837286	 -0.127252
H	 -2.780861	 1.084746	 0.127159
H	 -2.006390	 0.184138	 1.420053
C	 0.490865	 -0.082543	 0.241244
H	 -0.708709	 0.967192	 -1.204587
H	 -0.507562	 1.822272	 0.303070
C	 1.839232	 0.631889	 0.251352
H	 0.524416	 -0.911050	 -0.456972
H	 0.307055	 -0.513849	 1.223237
C	 2.998600	 -0.284883	 0.627091
H	 2.024061	 1.061052	 -0.729648
H	 1.801381	 1.466972	 0.946256
H	 3.084520	 -1.111268	 -0.070492
H	 3.941149	 0.250740	 0.623372
H	 2.860699	 -0.704246	 1.618334

	symmetry c1
}
set optking {
	frozen_dihedral = ("
		10 7 4 8
	")
}

ee,wfn = optimize('scf', return_wfn=True)
oeprop( wfn, 'DIPOLE', 'QUADRUPOLE', 'MULLIKEN_CHARGES')
f=open( 'psi4out.xyz', 'w' )
f.write( "18  " )
f.write( str(ee) + "\n" )
f.write( MOL.save_string_xyz() )
f.close()
--------------------------------------------------------------------------

    Molecular point group: c1
  Charge       = 0
  Multiplicity = 1
  Basis Set: CC-PVTZ
  Basis Set:
  @DF-RHF Final Energy:  -271.28534578039080
    Total Energy =                       -271.2853457803906281
    Molecular point group: c1
  Basis Set: CC-PVTZ
  Basis Set:
  Basis Set: CC-PVTZ
  Basis Set:
  @DF-RHF Final Energy:  -271.28545964322740
    Total Energy =                       -271.2854596432271705
  Basis Set: CC-PVTZ
  Basis Set:
  Basis Set: CC-PVTZ
  Basis Set:
  @DF-RHF Final Energy:  -271.28552827710649
    Total Energy =                       -271.2855282771067209
  Basis Set: CC-PVTZ
  Basis Set:
  Basis Set: CC-PVTZ
  Basis Set:
  @DF-RHF Final Energy:  -271.28552950893061
    Total Energy =                       -271.2855295089305514
  Basis Set: CC-PVTZ
  Basis Set:
  Charge       = 0
  Multiplicity = 1
  Basis Set: CC-PVTZ
  Basis Set:

    Orbital Energies (a.u.)
    -----------------------

    Doubly Occupied:

       1A    -20.546038     2A    -11.265606     3A    -11.210382
       4A    -11.209607     5A    -11.205325     6A    -11.202995
       7A     -1.363985     8A     -1.076209     9A     -1.010262
      10A     -0.914254    11A     -0.819008    12A     -0.784649
      13A     -0.706905    14A     -0.648463    15A     -0.623355
      16A     -0.579546    17A     -0.573812    18A     -0.559622
      19A     -0.523964    20A     -0.505761    21A     -0.486899
      22A     -0.468160    23A     -0.458842    24A     -0.449350
      25A     -0.431497

  @DF-RHF Final Energy:  -271.28552964878224

   => Energetics <=

    Nuclear Repulsion Energy =            249.2919474870128624
    One-Electron Energy =                -861.9059589901701202
    Two-Electron Energy =                 341.3284818543751271
    DFT Exchange-Correlation Energy =       0.0000000000000000
    Empirical Dispersion Energy =           0.0000000000000000
    PCM Polarization Energy =               0.0000000000000000
    EFP Energy =                            0.0000000000000000
    Total Energy =                       -271.2855296487821306
    Molecular point group: c1
  Basis Set: CC-PVTZ
  Basis Set:

  -Total Gradient:
     Atom            X                  Y                   Z
    ------   -----------------  -----------------  -----------------
       1        0.000002718305     0.000001837405     0.000001372274
       2       -0.000001951939    -0.000038135713    -0.000027321562
       3       -0.000015225857     0.000048683354     0.000031225990
       4        0.002420563479     0.003537621847     0.001202286931
       5        0.000009831262    -0.000006918388     0.000001648654
       6        0.000009049899     0.000006516336    -0.000017611968
       7       -0.000054573426    -0.001458339148    -0.003350757838
       8       -0.002062025677    -0.002673068448    -0.000201614724
       9        0.000001194908    -0.000003639879    -0.000004471249
      10       -0.000306936245     0.000588673172     0.002355660324
      11        0.000002811894     0.000005121283    -0.000001859998
      12       -0.000000024739     0.000001022597     0.000004528546
      13        0.000004896686    -0.000005215550     0.000004643363
      14       -0.000004263722    -0.000002801166     0.000005026758
      15       -0.000006918533    -0.000004260528    -0.000005563230
      16        0.000000097460     0.000005718201     0.000003196882
      17       -0.000000746490    -0.000000996798     0.000001652744
      18        0.000001502737    -0.000001818577    -0.000002041898

  **** Optimization is complete! (in 5 steps) ****
    Final optimized geometry and variables:
    Molecular point group: c1

    Geometry (in Angstrom), charge = 0, multiplicity = 1:

    H           -3.111549132956    -1.296944216515    -0.187047259449
    O           -2.286843273408    -0.950764777903    -0.473270686752
    C           -2.032226800192     0.277653584780     0.157226197300
    C           -0.675846951000     0.787554523577    -0.290955517158
    H           -2.799532787386     1.002500740033    -0.103531679709
    H           -2.044140530345     0.158955732144     1.238871282240
    C            0.481398921360    -0.136628975527     0.092217931515
    H           -0.713434314475     0.901753911520    -1.369850851712
    H           -0.528323441612     1.773257146799     0.140528163008
    C            1.835648585496     0.567479811643     0.093020521188
    H            0.502978279279    -0.987823653206    -0.577809749766
    H            0.301752639032    -0.539848283772     1.086482616349
    C            2.993955206767    -0.363523597537     0.434825287871
    H            2.011849140490     1.016740156837    -0.881227775309
    H            1.810294310357     1.387857921752     0.805114512116
    H            3.070637787882    -1.172040186327    -0.284330842060
    H            3.938869035297     0.167924207647     0.437321273776
    H            2.861832053199    -0.807910852808     1.415928922897

  Mulliken Charges: (a.u.)
   Center  Symbol    Alpha    Beta     Spin     Total
       1     H     0.39614  0.39614  0.00000  0.20772
       2     O     4.19899  4.19899  0.00000 -0.39799
       3     C     2.97278  2.97278  0.00000  0.05445
       4     C     3.09279  3.09279  0.00000 -0.18557
       5     H     0.46630  0.46630  0.00000  0.06741
       6     H     0.47459  0.47459  0.00000  0.05082
       7     C     3.08339  3.08339  0.00000 -0.16678
       8     H     0.45127  0.45127  0.00000  0.09746
       9     H     0.45443  0.45443  0.00000  0.09114
      10     C     3.08409  3.08409  0.00000 -0.16818
      11     H     0.44502  0.44502  0.00000  0.10996
      12     H     0.45908  0.45908  0.00000  0.08184
      13     C     3.14980  3.14980  0.00000 -0.29960
      14     H     0.45504  0.45504  0.00000  0.08993
      15     H     0.45672  0.45672  0.00000  0.08655
      16     H     0.45440  0.45440  0.00000  0.09120
      17     H     0.44943  0.44943  0.00000  0.10113
      18     H     0.45575  0.45575  0.00000  0.08851

   Total alpha = 25.00000, Total beta = 25.00000, Total charge = -0.00000

*** Psi4 exiting successfully. Buy a developer a beer!
