  ==> Input File <==

--------------------------------------------------------------------------
set {
	reference rhf
	basis 6-31G*
}

set_num_threads( 1 )
memory 2 gb

molecule MOL {
0 1

O	 -0.198696	 -2.259577	 -0.048862
C	 -1.278543	 -1.761562	 -0.025906
C	 -2.565246	 -2.546200	 -0.023491
O	 -1.481751	 -0.454642	 0.000584
H	 -2.571033	 -3.202319	 0.838678
H	 -3.430809	 -1.900701	 0.000382
H	 -2.594552	 -3.169091	 -0.909510
C	 -0.334255	 0.388708	 0.000906
C	 0.891947	 -0.504646	 0.000751
H	 -0.365390	 1.025305	 -0.873475
H	 -0.365484	 1.024911	 0.875569
C	 2.191998	 0.301789	 0.000897
H	 0.855148	 -1.151283	 -0.871571
H	 0.855132	 -1.151660	 0.872805
C	 3.441114	 -0.581407	 0.000108
H	 2.215074	 0.954890	 -0.869742
H	 2.215465	 0.953923	 0.872248
C	 4.739576	 0.224112	 -0.001102
H	 3.419457	 -1.233487	 -0.870178
H	 3.420834	 -1.233096	 0.870717
H	 4.804918	 0.861552	 -0.878265
H	 5.606527	 -0.429058	 -0.001824
H	 4.806469	 0.861674	 0.875853

	symmetry c1
}
set optking {
	frozen_dihedral = ("
		13 9 8 10,
		16 12 9 13,
		19 15 12 16,
		1 2 4 8
	")
}

ee = energy('scf')
oeprop('DIPOLE', 'QUADRUPOLE', 'MULLIKEN_CHARGES')
f=open( 'psi4out.xyz', 'w' )
f.write( "23  " )
f.write( str(ee) + "\n" )
f.write( MOL.save_string_xyz() )
f.close()
--------------------------------------------------------------------------

    Molecular point group: c1

    Geometry (in Angstrom), charge = 0, multiplicity = 1:

       Center              X                  Y                   Z               Mass
    ------------   -----------------  -----------------  -----------------  -----------------
           O         -0.791934138362    -1.452397456113    -0.037984976275    15.994914619560
           C         -1.871781138362    -0.954382456113    -0.015028976275    12.000000000000
           C         -3.158484138362    -1.739020456113    -0.012613976275    12.000000000000
           O         -2.074989138362     0.352537543887     0.011461023725    15.994914619560
           H         -3.164271138362    -2.395139456113     0.849555023725     1.007825032070
           H         -4.024047138362    -1.093521456113     0.011259023725     1.007825032070
           H         -3.187790138362    -2.361911456113    -0.898632976275     1.007825032070
           C         -0.927493138362     1.195887543887     0.011783023725    12.000000000000
           C          0.298708861638     0.302533543887     0.011628023725    12.000000000000
           H         -0.958628138362     1.832484543887    -0.862597976275     1.007825032070
           H         -0.958722138362     1.832090543887     0.886446023725     1.007825032070
           C          1.598759861638     1.108968543887     0.011774023725    12.000000000000
           H          0.261909861638    -0.344103456113    -0.860693976275     1.007825032070
           H          0.261893861638    -0.344480456113     0.883682023725     1.007825032070
           C          2.847875861638     0.225772543887     0.010985023725    12.000000000000
           H          1.621835861638     1.762069543887    -0.858864976275     1.007825032070
           H          1.622226861638     1.761102543887     0.883125023725     1.007825032070
           C          4.146337861638     1.031291543887     0.009775023725    12.000000000000
           H          2.826218861638    -0.426307456113    -0.859300976275     1.007825032070
           H          2.827595861638    -0.425916456113     0.881594023725     1.007825032070
           H          4.211679861638     1.668731543887    -0.867387976275     1.007825032070
           H          5.013288861638     0.378121543887     0.009053023725     1.007825032070
           H          4.213230861638     1.668853543887     0.886730023725     1.007825032070

  Charge       = 0
  Multiplicity = 1
  Basis Set: 6-31G*
  Basis Set:

    Orbital Energies (a.u.)
    -----------------------

    Doubly Occupied:

       1A    -20.607661     2A    -20.531121     3A    -11.381653
       4A    -11.282583     5A    -11.234803     6A    -11.206482
       7A    -11.201915     8A    -11.200853     9A    -11.191901
      10A     -1.480118    11A     -1.371568    12A     -1.082283
      13A     -1.039630    14A     -0.992534    15A     -0.926510
      16A     -0.853649    17A     -0.793853    18A     -0.768322
      19A     -0.699400    20A     -0.691013    21A     -0.663011
      22A     -0.629898    23A     -0.601898    24A     -0.586786
      25A     -0.574164    26A     -0.560595    27A     -0.558443
      28A     -0.535761    29A     -0.530362    30A     -0.524943
      31A     -0.499865    32A     -0.470285    33A     -0.459543
      34A     -0.442207    35A     -0.421024    36A     -0.377230

  @DF-RHF Final Energy:  -422.89494357880852

   => Energetics <=

    Nuclear Repulsion Energy =            474.5141729469000325
    One-Electron Energy =               -1516.8703495565443973
    Two-Electron Energy =                 619.4612330308349328
    DFT Exchange-Correlation Energy =       0.0000000000000000
    Empirical Dispersion Energy =           0.0000000000000000
    PCM Polarization Energy =               0.0000000000000000
    EFP Energy =                            0.0000000000000000
    Total Energy =                       -422.8949435788093751

  Mulliken Charges: (a.u.)
   Center  Symbol    Alpha    Beta     Spin     Total
       1     O     4.28408  4.28408  0.00000 -0.56817
       2     C     2.60867  2.60867  0.00000  0.78267
       3     C     3.28640  3.28640  0.00000 -0.57280
       4     O     4.31680  4.31680  0.00000 -0.63360
       5     H     0.39759  0.39759  0.00000  0.20482
       6     H     0.39912  0.39912  0.00000  0.20176
       7     H     0.39759  0.39759  0.00000  0.20481
       8     C     2.98564  2.98564  0.00000  0.02871
       9     C     3.18304  3.18304  0.00000 -0.36608
      10     H     0.41448  0.41448  0.00000  0.17105
      11     H     0.41424  0.41424  0.00000  0.17152
      12     C     3.14820  3.14820  0.00000 -0.29639
      13     H     0.39852  0.39852  0.00000  0.20296
      14     H     0.40298  0.40298  0.00000  0.19403
      15     C     3.14843  3.14843  0.00000 -0.29686
      16     H     0.43168  0.43168  0.00000  0.13665
      17     H     0.43208  0.43208  0.00000  0.13584
      18     C     3.23874  3.23874  0.00000 -0.47748
      19     H     0.42229  0.42229  0.00000  0.15542
      20     H     0.42246  0.42246  0.00000  0.15508
      21     H     0.42322  0.42322  0.00000  0.15355
      22     H     0.42053  0.42053  0.00000  0.15893
      23     H     0.42321  0.42321  0.00000  0.15357

   Total alpha = 36.00000, Total beta = 36.00000, Total charge = -0.00000
