  ==> Input File <==

--------------------------------------------------------------------------
set {
	reference rhf
	basis 6-31G*
}

set_num_threads( 4 )
memory 2 gb

molecule MOL {
0 1

O	 1.070411	 1.536134	 0.435341
C	 0.694775	 0.800578	 1.290266
C	 -0.588867	 0.007166	 1.264632
O	 1.375417	 0.577496	 2.407376
C	 -1.412532	 0.227344	 -0.000452
H	 -0.325658	 -1.040123	 1.385712
H	 -1.153629	 0.274486	 2.153642
C	 -2.706999	 -0.587347	 -0.000541
H	 -0.813764	 -0.032940	 -0.867767
H	 -1.642525	 1.283704	 -0.098992
C	 -3.956778	 0.291888	 0.000910
H	 -2.726114	 -1.239230	 -0.871609
H	 -2.725217	 -1.240844	 0.869333
H	 -3.985213	 0.933254	 -0.875158
H	 -4.860123	 -0.309979	 0.000519
H	 -3.984618	 0.931166	 0.878514
C	 2.604959	 1.263424	 2.558604
H	 3.289451	 0.995564	 1.766638
H	 2.999470	 0.954804	 3.514147
H	 2.447842	 2.332376	 2.545863

	symmetry c1
}
set optking {
	frozen_dihedral = ("
		9 5 8 12
	")
}

ee = optimize('scf')
oeprop('DIPOLE', 'QUADRUPOLE', 'MULLIKEN_CHARGES')
f=open( 'psi4out.xyz', 'w' )
f.write( "20  " )
f.write( str(ee) + "\n" )
f.write( MOL.save_string_xyz() )
f.close()
--------------------------------------------------------------------------

    Molecular point group: c1
  Charge       = 0
  Multiplicity = 1
  Basis Set: 6-31G*
  Basis Set:
  @DF-RHF Final Energy:  -383.93558519505541
    Total Energy =                       -383.9355851950555234
    Molecular point group: c1
  Basis Set: 6-31G*
  Basis Set:
  Basis Set: 6-31G*
  Basis Set:
  @DF-RHF Final Energy:  -383.93583672963877
    Total Energy =                       -383.9358367296388224
  Basis Set: 6-31G*
  Basis Set:
  Basis Set: 6-31G*
  Basis Set:
  @DF-RHF Final Energy:  -383.93589286392051
    Total Energy =                       -383.9358928639205715
  Basis Set: 6-31G*
  Basis Set:
  Basis Set: 6-31G*
  Basis Set:
  @DF-RHF Final Energy:  -383.93592066541430
    Total Energy =                       -383.9359206654145282
  Basis Set: 6-31G*
  Basis Set:
  Basis Set: 6-31G*
  Basis Set:
  @DF-RHF Final Energy:  -383.93592251855381
    Total Energy =                       -383.9359225185537525
  Basis Set: 6-31G*
  Basis Set:
  Charge       = 0
  Multiplicity = 1
  Basis Set: 6-31G*
  Basis Set:

    Orbital Energies (a.u.)
    -----------------------

    Doubly Occupied:

       1A    -20.603760     2A    -20.545679     3A    -11.372234
       4A    -11.280947     5A    -11.236160     6A    -11.219939
       7A    -11.218980     8A    -11.211711     9A     -1.469444
      10A     -1.362924    11A     -1.086506    12A     -1.023329
      13A     -0.968927    14A     -0.886928    15A     -0.804281
      16A     -0.767434    17A     -0.699778    18A     -0.682703
      19A     -0.672425    20A     -0.634236    21A     -0.605426
      22A     -0.596036    23A     -0.574881    24A     -0.543993
      25A     -0.526857    26A     -0.522538    27A     -0.512820
      28A     -0.475584    29A     -0.472462    30A     -0.464858
      31A     -0.455314    32A     -0.436404

  @DF-RHF Final Energy:  -383.93592284358891

   => Energetics <=

    Nuclear Repulsion Energy =            382.0690599787283759
    One-Electron Energy =               -1280.1389629994878305
    Two-Electron Energy =                 514.1339801771704288
    DFT Exchange-Correlation Energy =       0.0000000000000000
    Empirical Dispersion Energy =           0.0000000000000000
    PCM Polarization Energy =               0.0000000000000000
    EFP Energy =                            0.0000000000000000
    Total Energy =                       -383.9359228435890827
    Molecular point group: c1
  Basis Set: 6-31G*
  Basis Set:

  -Total Gradient:
     Atom            X                  Y                   Z
    ------   -----------------  -----------------  -----------------
       1       -0.000012202271    -0.000006075408    -0.000020021436
       2        0.000019535566     0.000005066703     0.000006646424
       3       -0.000004553884     0.000008673214     0.000000816629
       4       -0.000003244292    -0.000009797759     0.000019791862
       5        0.000563765205    -0.000917312206     0.000659410875
       6        0.000009287244     0.000007305351    -0.000009913122
       7       -0.000003714202    -0.000004648428     0.000001281666
       8       -0.000546780386     0.000919370849    -0.000639955277
       9       -0.000369274818     0.000612921331    -0.000448074008
      10       -0.000010650938    -0.000001015466     0.000003453788
      11       -0.000002673212    -0.000005200126     0.000001029947
      12        0.000376431364    -0.000613423288     0.000436179391
      13       -0.000000231422     0.000007358532     0.000001530230
      14        0.000002081048    -0.000000377617     0.000001809788
      15       -0.000006966436     0.000006602269    -0.000003055112
      16        0.000000229527    -0.000006799551    -0.000002873114
      17       -0.000004505539     0.000000739365    -0.000008566227
      18       -0.000001417685    -0.000000579068     0.000000073163
      19       -0.000005777282    -0.000003414203     0.000000131199
      20        0.000000662407     0.000000605506     0.000000303336

  **** Optimization is complete! (in 6 steps) ****
    Final optimized geometry and variables:
    Molecular point group: c1

    Geometry (in Angstrom), charge = 0, multiplicity = 1:

    O            1.404810086946     1.011794072297    -0.570203659547
    C            1.033270342485     0.269582846649     0.280873749018
    C           -0.245015744407    -0.532271273087     0.249965799911
    O            1.714427199854     0.045591841968     1.397538943690
    C           -1.066412825071    -0.317601702556    -1.018554372699
    H            0.023692919218    -1.577841308046     0.372169232512
    H           -0.816121537623    -0.268398837843     1.136241977989
    C           -2.387400960757    -1.120156587133    -1.018324826758
    H           -0.462408881614    -0.578095254128    -1.880086801107
    H           -1.275538490088     0.741784947973    -1.122189372797
    C           -3.633899547785    -0.234898813670    -1.005236316674
    H           -2.421207765358    -1.772502756202    -1.885704827864
    H           -2.418912135086    -1.781567805393    -0.155684980428
    H           -3.668268752518     0.403633704148    -1.882972750706
    H           -4.540725482664    -0.831718676036    -0.992359962883
    H           -3.647811451562     0.408516199408    -0.129628760573
    C            2.938987658773     0.739289274960     1.553440467493
    H            3.626061591128     0.480284547134     0.760751946207
    H            3.334762020990     0.428477568104     2.507752580641
    H            2.774472056452     1.807182807842     1.546083579448

  Mulliken Charges: (a.u.)
   Center  Symbol    Alpha    Beta     Spin     Total
       1     O     4.28589  4.28589  0.00000 -0.57177
       2     C     2.60604  2.60604  0.00000  0.78793
       3     C     3.20955  3.20955  0.00000 -0.41910
       4     O     4.30714  4.30714  0.00000 -0.61428
       5     C     3.15621  3.15621  0.00000 -0.31242
       6     H     0.40022  0.40022  0.00000  0.19956
       7     H     0.40073  0.40073  0.00000  0.19853
       8     C     3.15836  3.15836  0.00000 -0.31671
       9     H     0.40918  0.40918  0.00000  0.18164
      10     H     0.40865  0.40865  0.00000  0.18270
      11     C     3.23963  3.23963  0.00000 -0.47925
      12     H     0.41736  0.41736  0.00000  0.16528
      13     H     0.42118  0.42118  0.00000  0.15763
      14     H     0.41891  0.41891  0.00000  0.16217
      15     H     0.41967  0.41967  0.00000  0.16065
      16     H     0.42228  0.42228  0.00000  0.15544
      17     C     3.09246  3.09246  0.00000 -0.18492
      18     H     0.40905  0.40905  0.00000  0.18190
      19     H     0.40843  0.40843  0.00000  0.18314
      20     H     0.40906  0.40906  0.00000  0.18187

   Total alpha = 32.00000, Total beta = 32.00000, Total charge =  0.00000
