                              Psi4 1.0.54 Driver

  ==> Input File <==

--------------------------------------------------------------------------
set {
	reference rhf
	basis cc-pvtz
}

set_num_threads( 4 )
memory 2 gb

molecule MOL {
0 1

H	 1.055693	 0.500052	 0.505155
C	 0.788096	 -0.429819	 0.000000
N	 -0.537714	 -0.645117	 0.000000
O	 1.611994	 -1.141128	 -0.481611
C	 -1.522613	 0.412524	 0.000000
H	 -0.845894	 -1.585866	 0.000000
H	 -2.150256	 0.356137	 -0.880771
H	 -1.005621	 1.357208	 0.000000
H	 -2.150256	 0.356137	 0.880771

	symmetry c1
}
set optking {
	frozen_dihedral = ("
		1 2 3 6
	")
}

ee,wfn = optimize('scf', return_wfn=True)
oeprop( wfn, 'DIPOLE', 'QUADRUPOLE', 'MULLIKEN_CHARGES')
f=open( 'psi4out.xyz', 'w' )
f.write( "9  " )
f.write( str(ee) + "\n" )
f.write( MOL.save_string_xyz() )
f.close()
--------------------------------------------------------------------------

    Molecular point group: c1
  Charge       = 0
  Multiplicity = 1
  Basis Set: CC-PVTZ
  Basis Set:
  @DF-RHF Final Energy:  -208.03266733093949
    Total Energy =                       -208.0326673309396028
    Molecular point group: c1
  Basis Set: CC-PVTZ
  Basis Set:
  Basis Set: CC-PVTZ
  Basis Set:
  @DF-RHF Final Energy:  -208.03285860419717
    Total Energy =                       -208.0328586041971448
  Basis Set: CC-PVTZ
  Basis Set:
  Basis Set: CC-PVTZ
  Basis Set:
  @DF-RHF Final Energy:  -208.03511679830888
    Total Energy =                       -208.0351167983087635
  Basis Set: CC-PVTZ
  Basis Set:
  Basis Set: CC-PVTZ
  Basis Set:
  @DF-RHF Final Energy:  -208.03612672066117
    Total Energy =                       -208.0361267206610592
  Basis Set: CC-PVTZ
  Basis Set:
  @DF-RHF Final Energy:  -208.03674668565418
    Total Energy =                       -208.0367466856542933
  @DF-RHF Final Energy:  -208.03722669626598
    Total Energy =                       -208.0372266962660888
  @DF-RHF Final Energy:  -208.03804535917342
    Total Energy =                       -208.0380453591733954
  @DF-RHF Final Energy:  -208.03773346484456
    Total Energy =                       -208.0377334648446492
  @DF-RHF Final Energy:  -208.03750687858940
    Total Energy =                       -208.0375068785895110
  @DF-RHF Final Energy:  -208.03800445407234
    Total Energy =                       -208.0380044540723645
  @DF-RHF Final Energy:  -208.03819081773275
    Total Energy =                       -208.0381908177328114
  @DF-RHF Final Energy:  -208.03828105241433
    Total Energy =                       -208.0382810524143053
  Basis Set: CC-PVTZ
  Basis Set:
  @DF-RHF Final Energy:  -208.03836081554786
    Total Energy =                       -208.0383608155479180
  Basis Set: CC-PVTZ
  Basis Set:
  Basis Set: CC-PVTZ
  Basis Set:
  @DF-RHF Final Energy:  -208.03842163259202
    Total Energy =                       -208.0384216325921614
  Basis Set: CC-PVTZ
  Basis Set:
  Basis Set: CC-PVTZ
  Basis Set:
  @DF-RHF Final Energy:  -208.03846198499048
    Total Energy =                       -208.0384619849904482
  Basis Set: CC-PVTZ
  Basis Set:
  Charge       = 0
  Multiplicity = 1
  Basis Set: CC-PVTZ
  Basis Set:

    Orbital Energies (a.u.)
    -----------------------

    Doubly Occupied:

       1A    -20.524504     2A    -15.582181     3A    -11.340866
       4A    -11.271559     5A     -1.400281     6A     -1.241912
       7A     -0.961724     8A     -0.844500     9A     -0.694182
      10A     -0.680272    11A     -0.637775    12A     -0.593120
      13A     -0.568770    14A     -0.548161    15A     -0.434286
      16A     -0.399794

  @DF-RHF Final Energy:  -208.03846486708227

   => Energetics <=

    Nuclear Repulsion Energy =            120.6651046597250456
    One-Electron Energy =                -521.9593654474587083
    Two-Electron Energy =                 193.2557959206513658
    DFT Exchange-Correlation Energy =       0.0000000000000000
    Empirical Dispersion Energy =           0.0000000000000000
    PCM Polarization Energy =               0.0000000000000000
    EFP Energy =                            0.0000000000000000
    Total Energy =                       -208.0384648670822969
    Molecular point group: c1
  Basis Set: CC-PVTZ
  Basis Set:

  -Total Gradient:
     Atom            X                  Y                   Z
    ------   -----------------  -----------------  -----------------
       1       -0.000617303793    -0.002234631198     0.007263088759
       2        0.000643747080     0.003473520455    -0.007230702895
       3        0.001473603477    -0.003032429224    -0.008005535836
       4       -0.000085822891     0.000058552504     0.000015041661
       5        0.000053439731     0.000029078120    -0.000046794418
       6       -0.001507366637     0.001741624992     0.008022118303
       7        0.000043111361    -0.000000171542     0.000022470275
       8       -0.000044731366    -0.000014177342     0.000024302249
       9        0.000041323038    -0.000021366765    -0.000063988097

  **** Optimization is complete! (in 14 steps) ****
    Final optimized geometry and variables:
    Molecular point group: c1

    Geometry (in Angstrom), charge = 0, multiplicity = 1:

    H            0.906442753162     1.104305421825     0.365041082748
    C            0.706881123428     0.084361482217     0.027937714628
    N           -0.612327721260    -0.172588532415    -0.164151207353
    O            1.576781634775    -0.712440070861    -0.097533151758
    C           -1.622024503112     0.800239584698     0.194522988069
    H           -0.859766459222    -1.122812946706    -0.003907683930
    H           -2.510653170327     0.635267203784    -0.398137123419
    H           -1.261490148048     1.794739124122    -0.027606346399
    H           -1.894850480579     0.760654291058     1.244504863518

  Mulliken Charges: (a.u.)
   Center  Symbol    Alpha    Beta     Spin     Total
       1     H     0.47224  0.47224  0.00000  0.05552
       2     C     2.87607  2.87607  0.00000  0.24785
       3     N     3.59977  3.59977  0.00000 -0.19955
       4     O     4.19951  4.19951  0.00000 -0.39902
       5     C     3.07927  3.07927  0.00000 -0.15854
       6     H     0.41611  0.41611  0.00000  0.16778
       7     H     0.44645  0.44645  0.00000  0.10711
       8     H     0.45295  0.45295  0.00000  0.09410
       9     H     0.45762  0.45762  0.00000  0.08476

   Total alpha = 16.00000, Total beta = 16.00000, Total charge = -0.00000

*** Psi4 exiting successfully. Buy a developer a beer!
