  ==> Input File <==

--------------------------------------------------------------------------
set {
	reference rhf
	basis 6-31G*
}

set_num_threads( 4 )
memory 2 gb

molecule MOL {
0 1

H	 -1.847671	 1.908361	 0.983875
C	 -2.060660	 0.876582	 1.235698
C	 -0.778927	 0.054879	 1.304417
H	 -2.731482	 0.487430	 0.479497
H	 -2.573540	 0.856321	 2.191637
C	 -0.000005	 0.033229	 -0.000001
H	 -0.995106	 -0.974834	 1.582542
H	 -0.119033	 0.433594	 2.082563
C	 1.290528	 -0.768786	 0.000276
O	 -0.380584	 0.613499	 -0.970378
C	 2.545731	 0.095645	 -0.000061
H	 1.275672	 -1.427874	 -0.865626
H	 1.275566	 -1.427086	 0.866768
H	 2.577157	 0.734767	 -0.874036
H	 3.433520	 -0.528139	 0.000137
H	 2.577172	 0.735117	 0.873581

	symmetry c1
}
set optking {
	frozen_dihedral = ("
		3 6 9 12
	")
}

ee = optimize('scf')
oeprop('DIPOLE', 'QUADRUPOLE', 'MULLIKEN_CHARGES')
f=open( 'psi4out.xyz', 'w' )
f.write( "16  " )
f.write( str(ee) + "\n" )
f.write( MOL.save_string_xyz() )
f.close()
--------------------------------------------------------------------------

    Molecular point group: c1
  Charge       = 0
  Multiplicity = 1
  Basis Set: 6-31G*
  Basis Set:
  @DF-RHF Final Energy:  -270.03056455960251
    Total Energy =                       -270.0305645596026238
    Molecular point group: c1
  Basis Set: 6-31G*
  Basis Set:
  Basis Set: 6-31G*
  Basis Set:
  @DF-RHF Final Energy:  -270.03098153431290
    Total Energy =                       -270.0309815343127866
  Basis Set: 6-31G*
  Basis Set:
  Basis Set: 6-31G*
  Basis Set:
  @DF-RHF Final Energy:  -270.03132081897081
    Total Energy =                       -270.0313208189709258
  Basis Set: 6-31G*
  Basis Set:
  Basis Set: 6-31G*
  Basis Set:
  @DF-RHF Final Energy:  -270.03141643126241
    Total Energy =                       -270.0314164312624143
  Basis Set: 6-31G*
  Basis Set:
  Basis Set: 6-31G*
  Basis Set:
  @DF-RHF Final Energy:  -270.03141758933702
    Total Energy =                       -270.0314175893369111
  Basis Set: 6-31G*
  Basis Set:
  Charge       = 0
  Multiplicity = 1
  Basis Set: 6-31G*
  Basis Set:

    Orbital Energies (a.u.)
    -----------------------

    Doubly Occupied:

       1A    -20.548515     2A    -11.323096     3A    -11.234463
       4A    -11.232119     5A    -11.224437     6A    -11.213302
       7A     -1.394507     8A     -1.069738     9A     -1.036955
      10A     -0.912969    11A     -0.852713    12A     -0.726282
      13A     -0.665078    14A     -0.642464    15A     -0.623445
      16A     -0.600422    17A     -0.566558    18A     -0.537261
      19A     -0.529445    20A     -0.511897    21A     -0.502699
      22A     -0.497481    23A     -0.476681    24A     -0.396406

  @DF-RHF Final Energy:  -270.03141770822231

   => Energetics <=

    Nuclear Repulsion Energy =            240.3354289525386491
    One-Electron Energy =                -842.0958266311272382
    Two-Electron Energy =                 331.7289799703662538
    DFT Exchange-Correlation Energy =       0.0000000000000000
    Empirical Dispersion Energy =           0.0000000000000000
    PCM Polarization Energy =               0.0000000000000000
    EFP Energy =                            0.0000000000000000
    Total Energy =                       -270.0314177082223068
    Molecular point group: c1
  Basis Set: 6-31G*
  Basis Set:

  -Total Gradient:
     Atom            X                  Y                   Z
    ------   -----------------  -----------------  -----------------
       1       -0.000002592527    -0.000003829328    -0.000000557676
       2        0.000007392256     0.000018011488     0.000009835313
       3        0.000052891857     0.000077737561     0.000025039882
       4       -0.000000166696    -0.000002638620    -0.000000995108
       5       -0.000003031889     0.000001249303    -0.000000269417
       6       -0.000053332386    -0.000130864760    -0.000087182890
       7        0.000001983674     0.000003916799     0.000007176032
       8        0.000003188732     0.000005155382    -0.000006030487
       9       -0.000043891080    -0.000093081269     0.000160069849
      10       -0.000017373958     0.000005563076    -0.000005955701
      11       -0.000004609868    -0.000002173413     0.000001281794
      12        0.000072657402     0.000138378478    -0.000098837900
      13        0.000000881831    -0.000005556024     0.000002643870
      14       -0.000001563157    -0.000001840132    -0.000002056711
      15       -0.000005103161    -0.000006089404    -0.000002094204
      16       -0.000007331025    -0.000003939139    -0.000002066641

  **** Optimization is complete! (in 6 steps) ****
    Final optimized geometry and variables:
    Molecular point group: c1

    Geometry (in Angstrom), charge = 0, multiplicity = 1:

    H           -1.875671610392     1.782877011558     0.755782537098
    C           -2.150871645511     0.755415333198     0.961545216331
    C           -0.917488775390    -0.135151785164     1.036945497249
    H           -2.815114926722     0.430603383880     0.170146939002
    H           -2.695757543240     0.728408205310     1.899445224817
    C           -0.101065462890    -0.159685057815    -0.240127659586
    H           -1.193106126613    -1.162948173897     1.268668035704
    H           -0.258852995911     0.175576465590     1.846697846830
    C            1.194122156819    -0.956909321680    -0.225290704552
    O           -0.437492007566     0.431612332527    -1.220967996502
    C            2.411485577754    -0.026785679949    -0.290299009738
    H            1.187043247588    -1.604067808158    -1.096059910469
    H            1.248230351451    -1.586282812567     0.657229271318
    H            2.366169995077     0.591217380227    -1.178454383784
    H            3.329378157477    -0.603612412951    -0.319063396832
    H            2.457454519288     0.626886513431     0.575766726931

  Mulliken Charges: (a.u.)
   Center  Symbol    Alpha    Beta     Spin     Total
       1     H     0.41121  0.41121  0.00000  0.17758
       2     C     3.23536  3.23536  0.00000 -0.47071
       3     C     3.20958  3.20958  0.00000 -0.41917
       4     H     0.40960  0.40960  0.00000  0.18081
       5     H     0.42003  0.42003  0.00000  0.15994
       6     C     2.73482  2.73482  0.00000  0.53036
       7     H     0.40784  0.40784  0.00000  0.18432
       8     H     0.40941  0.40941  0.00000  0.18118
       9     C     3.19769  3.19769  0.00000 -0.39539
      10     O     4.26619  4.26619  0.00000 -0.53238
      11     C     3.24610  3.24610  0.00000 -0.49220
      12     H     0.40114  0.40114  0.00000  0.19773
      13     H     0.41556  0.41556  0.00000  0.16888
      14     H     0.40281  0.40281  0.00000  0.19437
      15     H     0.41372  0.41372  0.00000  0.17255
      16     H     0.41894  0.41894  0.00000  0.16212

   Total alpha = 24.00000, Total beta = 24.00000, Total charge =  0.00000
