                              Psi4 1.0.54 Driver

  ==> Input File <==

--------------------------------------------------------------------------
set {
	reference rhf
	basis cc-pvtz
}

set_num_threads( 4 )
memory 2 gb

molecule MOL {
0 1

H	 -3.401682	 -1.036167	 0.000000
O	 -3.113760	 -0.140926	 0.000000
C	 -1.775087	 -0.058754	 0.000000
C	 -1.050970	 0.190495	 1.159295
C	 -1.123158	 -0.232414	 -1.209551
H	 -1.563876	 0.324118	 2.093907
C	 0.320533	 0.264754	 1.103099
H	 -1.700403	 -0.423690	 -2.091719
C	 0.250704	 -0.155015	 -1.248793
H	 0.890652	 0.456500	 1.990402
C	 0.988522	 0.092977	 -0.101374
H	 0.757516	 -0.289583	 -2.186637
C	 2.459665	 0.171518	 -0.167955
O	 3.172150	 0.378661	 0.757038
H	 2.881778	 0.020865	 -1.167418

	symmetry c1
}
set optking {
	frozen_dihedral = ("
		5 3 2 1
	")
}

ee,wfn = optimize('scf', return_wfn=True)
oeprop( wfn, 'DIPOLE', 'QUADRUPOLE', 'MULLIKEN_CHARGES')
f=open( 'psi4out.xyz', 'w' )
f.write( "15  " )
f.write( str(ee) + "\n" )
f.write( MOL.save_string_xyz() )
f.close()
--------------------------------------------------------------------------

    Molecular point group: c1
  Charge       = 0
  Multiplicity = 1
  Basis Set: CC-PVTZ
  Basis Set:
  @DF-RHF Final Energy:  -418.43572239343052
    Total Energy =                       -418.4357223934302965
    Molecular point group: c1
  Basis Set: CC-PVTZ
  Basis Set:
  Basis Set: CC-PVTZ
  Basis Set:
  @DF-RHF Final Energy:  -418.43684947380933
    Total Energy =                       -418.4368494738091613
  Basis Set: CC-PVTZ
  Basis Set:
  Basis Set: CC-PVTZ
  Basis Set:
  @DF-RHF Final Energy:  -418.43680435525908
    Total Energy =                       -418.4368043552588006
  Basis Set: CC-PVTZ
  Basis Set:
  Basis Set: CC-PVTZ
  Basis Set:
  @DF-RHF Final Energy:  -418.43670118016098
    Total Energy =                       -418.4367011801608669
  Basis Set: CC-PVTZ
  Basis Set:
  Basis Set: CC-PVTZ
  Basis Set:
  @DF-RHF Final Energy:  -418.43693567197442
    Total Energy =                       -418.4369356719745383
  Basis Set: CC-PVTZ
  Basis Set:
  Charge       = 0
  Multiplicity = 1
  Basis Set: CC-PVTZ
  Basis Set:

    Orbital Energies (a.u.)
    -----------------------

    Doubly Occupied:

       1A    -20.587948     2A    -20.550721     3A    -11.326366
       4A    -11.312601     5A    -11.258176     6A    -11.251498
       7A    -11.243323     8A    -11.241900     9A    -11.239880
      10A     -1.417077    11A     -1.406836    12A     -1.175704
      13A     -1.045368    14A     -1.040589    15A     -0.891479
      16A     -0.860536    17A     -0.801220    18A     -0.756167
      19A     -0.707991    20A     -0.680334    21A     -0.649263
      22A     -0.636582    23A     -0.622706    24A     -0.609906
      25A     -0.564970    26A     -0.558593    27A     -0.540993
      28A     -0.502696    29A     -0.487684    30A     -0.425237
      31A     -0.359816    32A     -0.345901

  @DF-RHF Final Energy:  -418.43693730580765

   => Energetics <=

    Nuclear Repulsion Energy =            401.6994294679627728
    One-Electron Energy =               -1366.0726108922376625
    Two-Electron Energy =                 545.9362441184671297
    DFT Exchange-Correlation Energy =       0.0000000000000000
    Empirical Dispersion Energy =           0.0000000000000000
    PCM Polarization Energy =               0.0000000000000000
    EFP Energy =                            0.0000000000000000
    Total Energy =                       -418.4369373058077599
    Molecular point group: c1
  Basis Set: CC-PVTZ
  Basis Set:

  -Total Gradient:
     Atom            X                  Y                   Z
    ------   -----------------  -----------------  -----------------
       1        0.000042676251    -0.000031559050     0.001163195967
       2       -0.000147490246     0.000436928916    -0.001512632023
       3        0.000155693160    -0.001155998580     0.000733397759
       4       -0.000249937774    -0.000062091286    -0.000111500749
       5        0.000161156429     0.000837256795    -0.000243785337
       6        0.000005388788     0.000007526068    -0.000001993180
       7        0.000218471115    -0.000046797571    -0.000136388868
       8        0.000000830281     0.000007975671     0.000013711353
       9       -0.000172078129    -0.000092919342    -0.000100656621
      10       -0.000019370884     0.000007680605     0.000000637942
      11        0.000007044009     0.000068414806     0.000227004538
      12        0.000020600189     0.000014497025     0.000005601228
      13       -0.000037460032     0.000030230579    -0.000101316188
      14        0.000015704130    -0.000008699666     0.000048814216
      15       -0.000001227285    -0.000012444971     0.000015909960

  **** Optimization is complete! (in 6 steps) ****
    Final optimized geometry and variables:
    Molecular point group: c1

    Geometry (in Angstrom), charge = 0, multiplicity = 1:

    H           -3.438981262691    -1.056706192579    -0.009579110012
    O           -3.125253040457    -0.168938120869    -0.000701367776
    C           -1.764945193152    -0.132677563508    -0.054180984836
    C           -1.050637978247     0.126708182783     1.105653634661
    C           -1.111955357994    -0.292885189033    -1.260303443559
    H           -1.583932330788     0.263413951395     2.025555767959
    C            0.320988810569     0.212479748746     1.056408688478
    H           -1.682729490524    -0.470232485410    -2.150628585090
    C            0.266121347589    -0.209322479560    -1.299670317239
    H            0.888653779330     0.411911477548     1.943469115594
    C            0.991044766074     0.041543661172    -0.148533870591
    H            0.778107644356    -0.334456134370    -2.235886624261
    C            2.466164814413     0.130482588720    -0.213173919988
    O            3.173006578962     0.337263684461     0.714560898568
    H            2.890504498318    -0.012849448074    -1.212619633125

  Mulliken Charges: (a.u.)
   Center  Symbol    Alpha    Beta     Spin     Total
       1     H     0.38613  0.38613  0.00000  0.22774
       2     O     4.18601  4.18601  0.00000 -0.37201
       3     C     2.86580  2.86580  0.00000  0.26841
       4     C     3.10611  3.10611  0.00000 -0.21223
       5     C     3.11237  3.11237  0.00000 -0.22475
       6     H     0.41267  0.41267  0.00000  0.17465
       7     C     3.06985  3.06985  0.00000 -0.13970
       8     H     0.41544  0.41544  0.00000  0.16912
       9     C     3.07838  3.07838  0.00000 -0.15676
      10     H     0.40674  0.40674  0.00000  0.18652
      11     C     2.99531  2.99531  0.00000  0.00938
      12     H     0.42088  0.42088  0.00000  0.15823
      13     C     2.91020  2.91020  0.00000  0.17961
      14     O     4.17491  4.17491  0.00000 -0.34983
      15     H     0.45918  0.45918  0.00000  0.08163

   Total alpha = 32.00000, Total beta = 32.00000, Total charge = -0.00000

*** Psi4 exiting successfully. Buy a developer a beer!
