  ==> Input File <==

--------------------------------------------------------------------------
set {
	reference rhf
	basis 6-31G*
}

set_num_threads( 1 )
memory 2 gb

molecule MOL {
0 1

H	 -3.261111	 -0.295142	 1.469456
C	 -3.306842	 -0.277400	 0.373456
C	 -2.660244	 0.921717	 -0.272021
O	 -3.838538	 -1.161155	 -0.216482
C	 -1.190137	 1.088988	 0.136708
H	 -2.767302	 0.831009	 -1.346740
H	 -3.222535	 1.798584	 0.046707
C	 -0.281181	 -0.027510	 -0.383418
H	 -0.836199	 2.045488	 -0.236281
H	 -1.120851	 1.143133	 1.222076
C	 1.182442	 0.158202	 0.021714
H	 -0.355185	 -0.070396	 -1.468099
H	 -0.634390	 -0.990548	 -0.019630
C	 2.091257	 -0.951493	 -0.513620
H	 1.526487	 1.125680	 -0.335149
H	 1.254710	 0.188763	 1.108097
C	 3.553643	 -0.852844	 -0.064436
H	 2.049790	 -0.957432	 -1.601709
H	 1.695139	 -1.911829	 -0.190267
C	 4.304071	 0.365159	 -0.605683
H	 4.072631	 -1.752364	 -0.386094
H	 3.597148	 -0.850635	 1.022773
H	 4.263324	 0.397846	 -1.691288
H	 3.891969	 1.296117	 -0.230901
H	 5.349993	 0.332968	 -0.315842

	symmetry c1
}
set optking {
	frozen_dihedral = ("
		6 3 5 8,
		3 5 8 12,
		12 8 11 14,
		8 11 14 18,
		20 17 14 18
	")
}

ee = energy('scf')
oeprop('DIPOLE', 'QUADRUPOLE', 'MULLIKEN_CHARGES')
f=open( 'psi4out.xyz', 'w' )
f.write( "25  " )
f.write( str(ee) + "\n" )
f.write( MOL.save_string_xyz() )
f.close()
--------------------------------------------------------------------------

    Molecular point group: c1

    Geometry (in Angstrom), charge = 0, multiplicity = 1:

       Center              X                  Y                   Z               Mass
    ------------   -----------------  -----------------  -----------------  -----------------
           H         -3.249746310978    -0.208307368060     1.642154943882     1.007825032070
           C         -3.295477310978    -0.190565368060     0.546154943882    12.000000000000
           C         -2.648879310978     1.008551631940    -0.099322056118    12.000000000000
           O         -3.827173310978    -1.074320368060    -0.043783056118    15.994914619560
           C         -1.178772310978     1.175822631940     0.309406943882    12.000000000000
           H         -2.755937310978     0.917843631940    -1.174041056118     1.007825032070
           H         -3.211170310978     1.885418631940     0.219405943882     1.007825032070
           C         -0.269816310978     0.059324631940    -0.210719056118    12.000000000000
           H         -0.824834310978     2.132322631940    -0.063582056118     1.007825032070
           H         -1.109486310978     1.229967631940     1.394774943882     1.007825032070
           C          1.193806689022     0.245036631940     0.194412943882    12.000000000000
           H         -0.343820310978     0.016438631940    -1.295400056118     1.007825032070
           H         -0.623025310978    -0.903713368060     0.153068943882     1.007825032070
           C          2.102621689022    -0.864658368060    -0.340921056118    12.000000000000
           H          1.537851689022     1.212514631940    -0.162450056118     1.007825032070
           H          1.266074689022     0.275597631940     1.280795943882     1.007825032070
           C          3.565007689022    -0.766009368060     0.108262943882    12.000000000000
           H          2.061154689022    -0.870597368060    -1.429010056118     1.007825032070
           H          1.706503689022    -1.824994368060    -0.017568056118     1.007825032070
           C          4.315435689022     0.451993631940    -0.432984056118    12.000000000000
           H          4.083995689022    -1.665529368060    -0.213395056118     1.007825032070
           H          3.608512689022    -0.763800368060     1.195471943882     1.007825032070
           H          4.274688689022     0.484680631940    -1.518589056118     1.007825032070
           H          3.903333689022     1.382951631940    -0.058202056118     1.007825032070
           H          5.361357689022     0.419802631940    -0.143143056118     1.007825032070

  Charge       = 0
  Multiplicity = 1
  Basis Set: 6-31G*
  Basis Set:

    Orbital Energies (a.u.)
    -----------------------

    Doubly Occupied:

       1A    -20.562145     2A    -11.326140     3A    -11.235465
       4A    -11.234630     5A    -11.223428     6A    -11.219572
       7A    -11.217812     8A    -11.216732     9A    -11.210530
      10A     -1.402091    11A     -1.103732    12A     -1.069530
      13A     -1.013223    14A     -0.942409    15A     -0.875257
      16A     -0.820322    17A     -0.787754    18A     -0.780969
      19A     -0.665156    20A     -0.662266    21A     -0.632700
      22A     -0.625153    23A     -0.600442    24A     -0.594183
      25A     -0.576334    26A     -0.549438    27A     -0.535993
      28A     -0.524295    29A     -0.508343    30A     -0.494904
      31A     -0.491580    32A     -0.479247    33A     -0.464535
      34A     -0.458609    35A     -0.440987    36A     -0.409529

  @DF-RHF Final Energy:  -387.12203785655208

   => Energetics <=

    Nuclear Repulsion Energy =            439.4437807992449052
    One-Electron Energy =               -1395.2208151068084589
    Two-Electron Energy =                 568.6549964510114705
    DFT Exchange-Correlation Energy =       0.0000000000000000
    Empirical Dispersion Energy =           0.0000000000000000
    PCM Polarization Energy =               0.0000000000000000
    EFP Energy =                            0.0000000000000000
    Total Energy =                       -387.1220378565520832

  Mulliken Charges: (a.u.)
   Center  Symbol    Alpha    Beta     Spin     Total
       1     H     0.43259  0.43259  0.00000  0.13482
       2     C     2.83107  2.83107  0.00000  0.33786
       3     C     3.20772  3.20772  0.00000 -0.41544
       4     O     4.23748  4.23748  0.00000 -0.47496
       5     C     3.16636  3.16636  0.00000 -0.33272
       6     H     0.39983  0.39983  0.00000  0.20034
       7     H     0.40769  0.40769  0.00000  0.18462
       8     C     3.15477  3.15477  0.00000 -0.30955
       9     H     0.41279  0.41279  0.00000  0.17441
      10     H     0.41958  0.41958  0.00000  0.16084
      11     C     3.15425  3.15425  0.00000 -0.30851
      12     H     0.41798  0.41798  0.00000  0.16403
      13     H     0.41780  0.41780  0.00000  0.16441
      14     C     3.15310  3.15310  0.00000 -0.30620
      15     H     0.42099  0.42099  0.00000  0.15803
      16     H     0.42383  0.42383  0.00000  0.15233
      17     C     3.15275  3.15275  0.00000 -0.30550
      18     H     0.42299  0.42299  0.00000  0.15402
      19     H     0.42056  0.42056  0.00000  0.15888
      20     C     3.24132  3.24132  0.00000 -0.48265
      21     H     0.41998  0.41998  0.00000  0.16004
      22     H     0.42326  0.42326  0.00000  0.15348
      23     H     0.42191  0.42191  0.00000  0.15618
      24     H     0.42069  0.42069  0.00000  0.15862
      25     H     0.41871  0.41871  0.00000  0.16259

   Total alpha = 36.00000, Total beta = 36.00000, Total charge = -0.00000
