  ==> Input File <==

--------------------------------------------------------------------------
set {
	reference rhf
	basis 6-31G*
}

set_num_threads( 1 )
memory 2 gb

molecule MOL {
0 1

H	 -0.000158	 1.970498	 0.756846
O	 -0.000074	 1.880206	 -0.189275
C	 -0.000015	 0.544847	 -0.545111
C	 -1.278788	 -0.123820	 -0.051541
C	 1.278802	 -0.123718	 -0.051505
H	 -0.000001	 0.490777	 -1.623619
F	 -1.660299	 0.431590	 1.078731
F	 -2.266024	 -0.010792	 -0.914645
F	 -1.077515	 -1.411433	 0.178977
F	 2.323327	 0.466644	 -0.591854
F	 1.326242	 -1.401483	 -0.363667
F	 1.388946	 -0.015632	 1.262939

	symmetry c1
}
set optking {
	frozen_dihedral = ("
		6 3 2 1
	")
}

ee = energy('scf')
oeprop('DIPOLE', 'QUADRUPOLE', 'MULLIKEN_CHARGES')
f=open( 'psi4out.xyz', 'w' )
f.write( "12  " )
f.write( str(ee) + "\n" )
f.write( MOL.save_string_xyz() )
f.close()
--------------------------------------------------------------------------

    Molecular point group: c1

    Geometry (in Angstrom), charge = 0, multiplicity = 1:

       Center              X                  Y                   Z               Mass
    ------------   -----------------  -----------------  -----------------  -----------------
           H         -0.004071380416     1.974997601594     0.752803027631     1.007825032070
           O         -0.003987380416     1.884705601594    -0.193317972369    15.994914619560
           C         -0.003928380416     0.549346601594    -0.549153972369    12.000000000000
           C         -1.282701380416    -0.119320398406    -0.055583972369    12.000000000000
           C          1.274888619584    -0.119218398406    -0.055547972369    12.000000000000
           H         -0.003914380416     0.495276601594    -1.627661972369     1.007825032070
           F         -1.664212380416     0.436089601594     1.074688027631    18.998403224000
           F         -2.269937380416    -0.006292398406    -0.918687972369    18.998403224000
           F         -1.081428380416    -1.406933398406     0.174934027631    18.998403224000
           F          2.319413619584     0.471143601594    -0.595896972369    18.998403224000
           F          1.322328619584    -1.396983398406    -0.367709972369    18.998403224000
           F          1.385032619584    -0.011132398406     1.258896027631    18.998403224000

  Charge       = 0
  Multiplicity = 1
  Basis Set: 6-31G*
  Basis Set:

    Orbital Energies (a.u.)
    -----------------------

    Doubly Occupied:

       1A    -26.364312     2A    -26.363184     3A    -26.362252
       4A    -26.358374     5A    -26.358289     6A    -26.357621
       7A    -20.614814     8A    -11.526546     9A    -11.524991
      10A    -11.348167    11A     -1.765398    12A     -1.758380
      13A     -1.662221    14A     -1.659938    15A     -1.657486
      16A     -1.652831    17A     -1.433789    18A     -1.101575
      19A     -0.997132    20A     -0.937893    21A     -0.865630
      22A     -0.861278    23A     -0.851623    24A     -0.844806
      25A     -0.833911    26A     -0.816091    27A     -0.741421
      28A     -0.729371    29A     -0.724418    30A     -0.719157
      31A     -0.688719    32A     -0.687919    33A     -0.682111
      34A     -0.675988    35A     -0.667571    36A     -0.661215
      37A     -0.655883    38A     -0.650219    39A     -0.620685
      40A     -0.550006    41A     -0.505426

  @DF-RHF Final Energy:  -786.27389466588147

   => Energetics <=

    Nuclear Repulsion Energy =            671.6584162478927738
    One-Electron Energy =               -2430.1877638043824845
    Two-Electron Energy =                 972.2554528906097175
    DFT Exchange-Correlation Energy =       0.0000000000000000
    Empirical Dispersion Energy =           0.0000000000000000
    PCM Polarization Energy =               0.0000000000000000
    EFP Energy =                            0.0000000000000000
    Total Energy =                       -786.2738946658799932

  Mulliken Charges: (a.u.)
   Center  Symbol    Alpha    Beta     Spin     Total
       1     H     0.26496  0.26496  0.00000  0.47008
       2     O     4.36281  4.36281  0.00000 -0.72562
       3     C     3.06252  3.06252  0.00000 -0.12505
       4     C     2.43361  2.43361  0.00000  1.13277
       5     C     2.44250  2.44250  0.00000  1.11501
       6     H     0.37357  0.37357  0.00000  0.25286
       7     F     4.67787  4.67787  0.00000 -0.35573
       8     F     4.67491  4.67491  0.00000 -0.34982
       9     F     4.67717  4.67717  0.00000 -0.35435
      10     F     4.67507  4.67507  0.00000 -0.35014
      11     F     4.67362  4.67362  0.00000 -0.34724
      12     F     4.68139  4.68139  0.00000 -0.36278

   Total alpha = 41.00000, Total beta = 41.00000, Total charge = -0.00000
