  ==> Input File <==

--------------------------------------------------------------------------
set {
	reference rhf
	basis 6-31G*
}

set_num_threads( 4 )
memory 2 gb

molecule MOL {
0 1

H	 -2.646374	 -0.642757	 1.268656
C	 -2.083525	 -0.384536	 0.393091
O	 -0.807605	 -0.127164	 0.768327
F	 -2.118945	 -1.383102	 -0.486752
F	 -2.621877	 0.670592	 -0.209486
C	 -0.434912	 1.195757	 0.922169
C	 0.900084	 1.367476	 0.209107
Cl	 -0.284695	 1.613985	 2.636734
H	 -1.143678	 1.874843	 0.481411
F	 1.314019	 2.613303	 0.302447
F	 0.738422	 1.084572	 -1.068105
F	 1.825945	 0.577359	 0.695388

	symmetry c1
}
set optking {
	frozen_dihedral = ("
		6 3 2 4
	")
}

ee = optimize('scf')
oeprop('DIPOLE', 'QUADRUPOLE', 'MULLIKEN_CHARGES')
f=open( 'psi4out.xyz', 'w' )
f.write( "12  " )
f.write( str(ee) + "\n" )
f.write( MOL.save_string_xyz() )
f.close()
--------------------------------------------------------------------------

    Molecular point group: c1
  Charge       = 0
  Multiplicity = 1
  Basis Set: 6-31G*
  Basis Set:
  @DF-RHF Final Energy: -1146.30599599575953
    Total Energy =                      -1146.3059959957599858
    Molecular point group: c1
  Basis Set: 6-31G*
  Basis Set:
  Basis Set: 6-31G*
  Basis Set:
  @DF-RHF Final Energy: -1146.30781501573665
    Total Energy =                      -1146.3078150157364234
  Basis Set: 6-31G*
  Basis Set:
  Basis Set: 6-31G*
  Basis Set:
  @DF-RHF Final Energy: -1146.30918423670687
    Total Energy =                      -1146.3091842367057325
  Basis Set: 6-31G*
  Basis Set:
  Basis Set: 6-31G*
  Basis Set:
  @DF-RHF Final Energy: -1146.30945668272625
    Total Energy =                      -1146.3094566827248855
  Basis Set: 6-31G*
  Basis Set:
  @DF-RHF Final Energy: -1146.30965783828560
    Total Energy =                      -1146.3096578382851476
  @DF-RHF Final Energy: -1146.31008628006862
    Total Energy =                      -1146.3100862800683899
  @DF-RHF Final Energy: -1146.31030212810924
    Total Energy =                      -1146.3103021281092424
  Basis Set: 6-31G*
  Basis Set:
  @DF-RHF Final Energy: -1146.31033894953453
    Total Energy =                      -1146.3103389495349802
  Basis Set: 6-31G*
  Basis Set:
  Basis Set: 6-31G*
  Basis Set:
  @DF-RHF Final Energy: -1146.31034015376781
    Total Energy =                      -1146.3103401537680384
  Basis Set: 6-31G*
  Basis Set:
  Basis Set: 6-31G*
  Basis Set:
  @DF-RHF Final Energy: -1146.31034526116400
    Total Energy =                      -1146.3103452611637749
  Basis Set: 6-31G*
  Basis Set:
  Charge       = 0
  Multiplicity = 1
  Basis Set: 6-31G*
  Basis Set:

    Orbital Energies (a.u.)
    -----------------------

    Doubly Occupied:

       1A   -104.846803     2A    -26.360947     3A    -26.358997
       4A    -26.358456     5A    -26.353839     6A    -26.344330
       7A    -20.647397     8A    -11.529486     9A    -11.491846
      10A    -11.403875    11A    -10.581665    12A     -8.050963
      13A     -8.047568    14A     -8.047406    15A     -1.762163
      16A     -1.720770    17A     -1.658533    18A     -1.656970
      19A     -1.643401    20A     -1.484388    21A     -1.177933
      22A     -1.058310    23A     -0.985455    24A     -0.920087
      25A     -0.860722    26A     -0.849244    27A     -0.841150
      28A     -0.839128    29A     -0.814596    30A     -0.792554
      31A     -0.728524    32A     -0.726022    33A     -0.699448
      34A     -0.694386    35A     -0.684295    36A     -0.673886
      37A     -0.662757    38A     -0.661165    39A     -0.658400
      40A     -0.633088    41A     -0.604393    42A     -0.574592
      43A     -0.512313    44A     -0.482148    45A     -0.473475

  @DF-RHF Final Energy: -1146.31034636407708

   => Energetics <=

    Nuclear Repulsion Energy =            730.9350409757123543
    One-Electron Energy =               -3044.5750238978944253
    Two-Electron Energy =                1167.3296365581043119
    DFT Exchange-Correlation Energy =       0.0000000000000000
    Empirical Dispersion Energy =           0.0000000000000000
    PCM Polarization Energy =               0.0000000000000000
    EFP Energy =                            0.0000000000000000
    Total Energy =                      -1146.3103463640775317
    Molecular point group: c1
  Basis Set: 6-31G*
  Basis Set:

  -Total Gradient:
     Atom            X                  Y                   Z
    ------   -----------------  -----------------  -----------------
       1        0.000006098799    -0.000010778635    -0.000003026680
       2        0.000410321431    -0.001542345382     0.000495574589
       3        0.000076990262    -0.000228639708     0.002605851350
       4       -0.000398566762     0.001433034535    -0.001136398068
       5        0.000031567862    -0.000056536018    -0.000015869806
       6       -0.000131075138     0.000418837395    -0.001927274501
       7       -0.000019424757     0.000013956862     0.000070826459
       8       -0.000001328567    -0.000012843875    -0.000018789746
       9       -0.000023369731     0.000012703832    -0.000001092000
      10        0.000004515219    -0.000105610858    -0.000030254295
      11        0.000009634675     0.000034272911    -0.000061330634
      12        0.000034636695     0.000043948926     0.000021783345

  **** Optimization is complete! (in 11 steps) ****
    Final optimized geometry and variables:
    Molecular point group: c1

    Geometry (in Angstrom), charge = 0, multiplicity = 1:

    H           -2.017757880122    -1.716253957062     0.789653400495
    C           -1.734387486669    -1.250531610372    -0.136634370100
    O           -0.416156802972    -0.887254208225    -0.137220925113
    F           -1.908757093024    -2.092654175047    -1.135957961413
    F           -2.515189461572    -0.194661798740    -0.352854826573
    C           -0.047310519971     0.407844373586     0.118620783379
    C            1.390343605878     0.545386213800    -0.366975025576
    CL          -0.155658957947     0.794806087317     1.857189752510
    H           -0.656620608077     1.124432454655    -0.400816660308
    F            1.819647962062     1.773347896327    -0.167255535667
    F            1.429192824515     0.305328098462    -1.661205492329
    F            2.201042835778    -0.288130026355     0.236963684681

  Mulliken Charges: (a.u.)
   Center  Symbol    Alpha    Beta     Spin     Total
       1     H     0.40980  0.40980  0.00000  0.18039
       2     C     2.56189  2.56189  0.00000  0.87622
       3     O     4.30780  4.30780  0.00000 -0.61561
       4     F     4.67087  4.67087  0.00000 -0.34174
       5     F     4.68418  4.68418  0.00000 -0.36837
       6     C     3.03456  3.03456  0.00000 -0.06911
       7     C     2.43173  2.43173  0.00000  1.13654
       8    CL     8.51572  8.51572  0.00000 -0.03144
       9     H     0.36604  0.36604  0.00000  0.26793
      10     F     4.67472  4.67472  0.00000 -0.34943
      11     F     4.67483  4.67483  0.00000 -0.34967
      12     F     4.66786  4.66786  0.00000 -0.33571

   Total alpha = 45.00000, Total beta = 45.00000, Total charge = -0.00000
