  ==> Input File <==

--------------------------------------------------------------------------
set {
	reference rhf
	basis cc-pvtz
}

set_num_threads( 4 )
memory 2 gb

molecule MOL {
0 1

H	 -2.677889	 -1.434451	 -0.492593
N	 -1.756550	 -1.331857	 -0.124249
C	 -1.426741	 0.067733	 0.072009
H	 -1.123206	 -1.743896	 -0.776243
C	 -0.025496	 0.210181	 0.620525
H	 -1.501652	 0.662272	 -0.837637
H	 -2.117626	 0.489288	 0.793826
O	 0.881195	 -0.248324	 -0.336237
H	 0.174963	 1.254564	 0.855586
H	 0.069351	 -0.369556	 1.535859
C	 2.208068	 -0.234417	 0.074171
H	 2.725499	 -1.027054	 -0.446768
H	 2.688377	 0.712084	 -0.164856
H	 2.295137	 -0.403407	 1.144883

	symmetry c1
}
set optking {
	frozen_dihedral = ("
		5 8 11 13
	")
}

ee = optimize('scf')
oeprop('DIPOLE', 'QUADRUPOLE', 'MULLIKEN_CHARGES')
f=open( 'psi4out.xyz', 'w' )
f.write( "14  " )
f.write( str(ee) + "\n" )
f.write( MOL.save_string_xyz() )
f.close()
--------------------------------------------------------------------------

    Molecular point group: c1
  Charge       = 0
  Multiplicity = 1
  Basis Set: CC-PVTZ
  Basis Set:
  @DF-RHF Final Energy:  -248.22436334485010
    Total Energy =                       -248.2243633448502464
    Molecular point group: c1
  Basis Set: CC-PVTZ
  Basis Set:
  Basis Set: CC-PVTZ
  Basis Set:
  @DF-RHF Final Energy:  -248.22445891857936
    Total Energy =                       -248.2244589185793302
  Basis Set: CC-PVTZ
  Basis Set:
  Basis Set: CC-PVTZ
  Basis Set:
  @DF-RHF Final Energy:  -248.22447630948602
    Total Energy =                       -248.2244763094860218
  Basis Set: CC-PVTZ
  Basis Set:
  Charge       = 0
  Multiplicity = 1
  Basis Set: CC-PVTZ
  Basis Set:

    Orbital Energies (a.u.)
    -----------------------

    Doubly Occupied:

       1A    -20.549234     2A    -15.523281     3A    -11.264223
       4A    -11.263367     5A    -11.239641     6A     -1.382334
       7A     -1.175756     8A     -1.000647     9A     -0.907777
      10A     -0.815498    11A     -0.684242    12A     -0.675151
      13A     -0.646656    14A     -0.611181    15A     -0.608281
      16A     -0.541271    17A     -0.532956    18A     -0.497696
      19A     -0.473939    20A     -0.417642    21A     -0.383651

  @DF-RHF Final Energy:  -248.22447655142187

   => Energetics <=

    Nuclear Repulsion Energy =            194.5567078146786741
    One-Electron Energy =                -723.1735223385655900
    Two-Electron Energy =                 280.3923379724646452
    DFT Exchange-Correlation Energy =       0.0000000000000000
    Empirical Dispersion Energy =           0.0000000000000000
    PCM Polarization Energy =               0.0000000000000000
    EFP Energy =                            0.0000000000000000
    Total Energy =                       -248.2244765514222422
    Molecular point group: c1
  Basis Set: CC-PVTZ
  Basis Set:

  -Total Gradient:
     Atom            X                  Y                   Z
    ------   -----------------  -----------------  -----------------
       1        0.000006100160     0.000001019879    -0.000001212469
       2        0.000004371654     0.000002985281    -0.000016139399
       3       -0.000029337565    -0.000003478427     0.000063680166
       4       -0.000002787919    -0.000001238153    -0.000005264261
       5       -0.000249712429    -0.002052224700     0.000772899169
       6        0.000025555264    -0.000017200134     0.000018963987
       7       -0.000034374146     0.000005336973     0.000001950510
       8        0.000612609152     0.002695199395    -0.001859491580
       9        0.000002151257    -0.000004853253     0.000006272522
      10       -0.000002862572    -0.000000306566    -0.000022766406
      11       -0.001079447374     0.000442004545     0.003557259169
      12        0.000014009623    -0.000005299948    -0.000000387889
      13        0.000744935871    -0.001056094738    -0.002515621924
      14       -0.000011210976    -0.000005850155    -0.000000141596

  **** Optimization is complete! (in 4 steps) ****
    Final optimized geometry and variables:
    Molecular point group: c1

    Geometry (in Angstrom), charge = 0, multiplicity = 1:

    H           -2.659974625168    -1.117948294280    -0.554676755554
    N           -1.741923934629    -1.012401381544    -0.179083265889
    C           -1.417413071804     0.388256581213     0.018020907428
    H           -1.102309144168    -1.423344598671    -0.825554889298
    C           -0.019890756646     0.535009296509     0.575110256745
    H           -1.488322112301     0.981721595279    -0.892592334722
    H           -2.113837056540     0.808858154807     0.735186771759
    O            0.891925032281     0.069527745133    -0.374319560296
    H            0.174589324097     1.581258969018     0.807608938759
    H            0.069752311205    -0.041176516067     1.492361854147
    C            2.225913262142     0.080758009887     0.021870181070
    H            2.742230835256    -0.706032382307    -0.511938869712
    H            2.702322695600     1.024400370231    -0.231132547343
    H            2.333114118889    -0.099274085092     1.086990856282

  Mulliken Charges: (a.u.)
   Center  Symbol    Alpha    Beta     Spin     Total
       1     H     0.43030  0.43030  0.00000  0.13941
       2     N     3.69422  3.69422  0.00000 -0.38844
       3     C     3.02294  3.02294  0.00000 -0.04587
       4     H     0.42232  0.42232  0.00000  0.15537
       5     C     2.96901  2.96901  0.00000  0.06199
       6     H     0.46460  0.46460  0.00000  0.07079
       7     H     0.45868  0.45868  0.00000  0.08264
       8     O     4.18226  4.18226  0.00000 -0.36453
       9     H     0.47091  0.47091  0.00000  0.05817
      10     H     0.46718  0.46718  0.00000  0.06564
      11     C     3.02979  3.02979  0.00000 -0.05959
      12     H     0.45082  0.45082  0.00000  0.09836
      13     H     0.46481  0.46481  0.00000  0.07038
      14     H     0.47215  0.47215  0.00000  0.05570

   Total alpha = 21.00000, Total beta = 21.00000, Total charge = -0.00000
