  ==> Input File <==

--------------------------------------------------------------------------
set {
	reference rhf
	basis 6-31G*
}

set_num_threads( 1 )
memory 2 gb

molecule MOL {
0 1

H	 -2.798360	 -0.862255	 -0.071053
N	 -1.863561	 -0.715187	 0.256814
C	 -1.344686	 0.554728	 -0.219830
H	 -1.300452	 -1.461917	 -0.101532
C	 0.138189	 0.649650	 0.072070
H	 -1.495997	 0.717686	 -1.287796
H	 -1.852473	 1.356757	 0.307127
O	 0.795461	 -0.336725	 -0.670994
H	 0.513301	 1.635872	 -0.200505
H	 0.311950	 0.499564	 1.135327
C	 2.164324	 -0.418936	 -0.432191
H	 2.559694	 -1.207588	 -1.057816
H	 2.668475	 0.513138	 -0.681294
H	 2.372707	 -0.656412	 0.608958

	symmetry c1
}
set optking {
	frozen_dihedral = ("
		8 5 3 6,
		5 8 11 13,
		11 8 5 3
	")
}

ee = energy('scf')
oeprop('DIPOLE', 'QUADRUPOLE', 'MULLIKEN_CHARGES')
f=open( 'psi4out.xyz', 'w' )
f.write( "14  " )
f.write( str(ee) + "\n" )
f.write( MOL.save_string_xyz() )
f.close()
--------------------------------------------------------------------------

    Molecular point group: c1

    Geometry (in Angstrom), charge = 0, multiplicity = 1:

       Center              X                  Y                   Z               Mass
    ------------   -----------------  -----------------  -----------------  -----------------
           H         -2.786479859243    -0.789836126990     0.134823935454     1.007825032070
           N         -1.851680859243    -0.642768126990     0.462690935454    14.003074004780
           C         -1.332805859243     0.627146873010    -0.013953064546    12.000000000000
           H         -1.288571859243    -1.389498126990     0.104344935454     1.007825032070
           C          0.150069140757     0.722068873010     0.277946935454    12.000000000000
           H         -1.484116859243     0.790104873010    -1.081919064546     1.007825032070
           H         -1.840592859243     1.429175873010     0.513003935454     1.007825032070
           O          0.807341140757    -0.264306126990    -0.465117064546    15.994914619560
           H          0.525181140757     1.708290873010     0.005371935454     1.007825032070
           H          0.323830140757     0.571982873010     1.341203935454     1.007825032070
           C          2.176204140757    -0.346517126990    -0.226314064546    12.000000000000
           H          2.571574140757    -1.135169126990    -0.851939064546     1.007825032070
           H          2.680355140757     0.585556873010    -0.475417064546     1.007825032070
           H          2.384587140757    -0.583993126990     0.814834935454     1.007825032070

  Charge       = 0
  Multiplicity = 1
  Basis Set: 6-31G*
  Basis Set:

    Orbital Energies (a.u.)
    -----------------------

    Doubly Occupied:

       1A    -20.559244     2A    -15.527544     3A    -11.267527
       4A    -11.267335     5A    -11.240561     6A     -1.383291
       7A     -1.173301     8A     -0.999682     9A     -0.908227
      10A     -0.816289    11A     -0.685489    12A     -0.673593
      13A     -0.647379    14A     -0.612371    15A     -0.601149
      16A     -0.543385    17A     -0.531666    18A     -0.497570
      19A     -0.472845    20A     -0.419311    21A     -0.379390

  @DF-RHF Final Energy:  -248.12501610625651

   => Energetics <=

    Nuclear Repulsion Energy =            194.8001123295826460
    One-Electron Energy =                -723.4359206283720596
    Two-Electron Energy =                 280.5107921925331311
    DFT Exchange-Correlation Energy =       0.0000000000000000
    Empirical Dispersion Energy =           0.0000000000000000
    PCM Polarization Energy =               0.0000000000000000
    EFP Energy =                            0.0000000000000000
    Total Energy =                       -248.1250161062563393

  Mulliken Charges: (a.u.)
   Center  Symbol    Alpha    Beta     Spin     Total
       1     H     0.33286  0.33286  0.00000  0.33428
       2     N     3.92737  3.92737  0.00000 -0.85473
       3     C     3.06533  3.06533  0.00000 -0.13066
       4     H     0.32315  0.32315  0.00000  0.35369
       5     C     2.99447  2.99447  0.00000  0.01106
       6     H     0.42667  0.42667  0.00000  0.14667
       7     H     0.42028  0.42028  0.00000  0.15944
       8     O     4.30941  4.30941  0.00000 -0.61882
       9     H     0.42963  0.42963  0.00000  0.14074
      10     H     0.42230  0.42230  0.00000  0.15540
      11     C     3.07940  3.07940  0.00000 -0.15880
      12     H     0.41217  0.41217  0.00000  0.17566
      13     H     0.42948  0.42948  0.00000  0.14103
      14     H     0.42748  0.42748  0.00000  0.14504

   Total alpha = 21.00000, Total beta = 21.00000, Total charge =  0.00000
