  ==> Input File <==

--------------------------------------------------------------------------
set {
	reference rhf
	basis cc-pvtz
}

set_num_threads( 4 )
memory 2 gb

molecule MOL {
0 1

O	 -0.294688	 1.318815	 -0.000872
C	 -0.448732	 0.145721	 -0.000187
C	 -1.780748	 -0.548101	 0.000195
O	 0.550743	 -0.719877	 0.000412
H	 -1.859389	 -1.183260	 -0.872613
H	 -2.570236	 0.185547	 -0.001342
H	 -1.860233	 -1.180337	 0.875064
C	 1.040368	 -1.143262	 1.257424
H	 1.413406	 -0.302646	 1.823318
H	 1.839539	 -1.835304	 1.047453
H	 0.262038	 -1.632417	 1.823949

	symmetry c1
}
set optking {
	frozen_dihedral = ("
		8 4 2 1
	")
}

ee = optimize('scf')
oeprop('DIPOLE', 'QUADRUPOLE', 'MULLIKEN_CHARGES')
f=open( 'psi4out.xyz', 'w' )
f.write( "11  " )
f.write( str(ee) + "\n" )
f.write( MOL.save_string_xyz() )
f.close()
--------------------------------------------------------------------------

    Molecular point group: c1
  Charge       = 0
  Multiplicity = 1
  Basis Set: CC-PVTZ
  Basis Set:
  @DF-RHF Final Energy:  -266.91806668233556
    Total Energy =                       -266.9180666823357342
    Molecular point group: c1
  Basis Set: CC-PVTZ
  Basis Set:
  Basis Set: CC-PVTZ
  Basis Set:
  @DF-RHF Final Energy:  -266.91710123299862
    Total Energy =                       -266.9171012329989026
  Basis Set: CC-PVTZ
  Basis Set:
  Basis Set: CC-PVTZ
  Basis Set:
  @DF-RHF Final Energy:  -266.91906950521224
    Total Energy =                       -266.9190695052124624
  Basis Set: CC-PVTZ
  Basis Set:
  Basis Set: CC-PVTZ
  Basis Set:
  @DF-RHF Final Energy:  -266.91958697297048
    Total Energy =                       -266.9195869729707056
  Basis Set: CC-PVTZ
  Basis Set:
  Basis Set: CC-PVTZ
  Basis Set:
  @DF-RHF Final Energy:  -266.91960480809081
    Total Energy =                       -266.9196048080905257
  Basis Set: CC-PVTZ
  Basis Set:
  Basis Set: CC-PVTZ
  Basis Set:
  @DF-RHF Final Energy:  -266.91960904003804
    Total Energy =                       -266.9196090400381536
  Basis Set: CC-PVTZ
  Basis Set:
  Basis Set: CC-PVTZ
  Basis Set:
  @DF-RHF Final Energy:  -266.91961020521603
    Total Energy =                       -266.9196102052159745
  Basis Set: CC-PVTZ
  Basis Set:
  Charge       = 0
  Multiplicity = 1
  Basis Set: CC-PVTZ
  Basis Set:

    Orbital Energies (a.u.)
    -----------------------

    Doubly Occupied:

       1A    -20.580167     2A    -20.547699     3A    -11.372384
       4A    -11.290800     5A    -11.238065     6A     -1.463967
       7A     -1.372225     8A     -1.027611     9A     -0.964462
      10A     -0.780249    11A     -0.697187    12A     -0.687045
      13A     -0.671464    14A     -0.615175    15A     -0.590380
      16A     -0.579356    17A     -0.542976    18A     -0.499552
      19A     -0.463401    20A     -0.444802

  @DF-RHF Final Energy:  -266.91961017561721

   => Energetics <=

    Nuclear Repulsion Energy =            182.7444554940063028
    One-Electron Energy =                -726.4702018695103334
    Two-Electron Energy =                 276.8061361998865664
    DFT Exchange-Correlation Energy =       0.0000000000000000
    Empirical Dispersion Energy =           0.0000000000000000
    PCM Polarization Energy =               0.0000000000000000
    EFP Energy =                            0.0000000000000000
    Total Energy =                       -266.9196101756174926
    Molecular point group: c1
  Basis Set: CC-PVTZ
  Basis Set:

  -Total Gradient:
     Atom            X                  Y                   Z
    ------   -----------------  -----------------  -----------------
       1       -0.000095281563    -0.000089604623    -0.002869891308
       2       -0.000608950343    -0.000666809354     0.004266077071
       3        0.000003487721     0.000003892469    -0.000064640782
       4        0.002200164480     0.002496329494    -0.001462866984
       5        0.000013059691    -0.000020549459     0.000017809964
       6       -0.000006318635    -0.000001281388     0.000016058063
       7       -0.000007909573     0.000026407155     0.000018696280
       8       -0.001502610657    -0.001748484801     0.000072019370
       9        0.000000469803     0.000000214926     0.000001251988
      10        0.000001606982    -0.000000041841     0.000001164016
      11        0.000002282096    -0.000000072576     0.000004322322

  **** Optimization is complete! (in 8 steps) ****
    Final optimized geometry and variables:
    Molecular point group: c1

    Geometry (in Angstrom), charge = 0, multiplicity = 1:

    O           -0.112967151170     1.499575270406    -0.283822016462
    C           -0.292386788292     0.338525851225    -0.249640794631
    C           -1.644368682870    -0.316531235096    -0.286546821597
    O            0.734366324014    -0.538627159140    -0.254887035432
    H           -1.719893763277    -0.906416598151    -1.191670179378
    H           -2.420695255784     0.431028378399    -0.264795904637
    H           -1.757162882938    -0.993653220489     0.551140406731
    C            1.251962974408    -0.920306117003     0.999310731827
    H            1.633187581194    -0.059511663009     1.533426696335
    H            2.057807856038    -1.609435558998     0.806404371929
    H            0.498407596188    -1.416914060916     1.600870597208

  Mulliken Charges: (a.u.)
   Center  Symbol    Alpha    Beta     Spin     Total
       1     O     4.16762  4.16762  0.00000 -0.33525
       2     C     2.79846  2.79846  0.00000  0.40309
       3     C     3.14080  3.14080  0.00000 -0.28161
       4     O     4.16589  4.16589  0.00000 -0.33178
       5     H     0.44344  0.44344  0.00000  0.11312
       6     H     0.43721  0.43721  0.00000  0.12558
       7     H     0.45106  0.45106  0.00000  0.09787
       8     C     3.02982  3.02982  0.00000 -0.05964
       9     H     0.45427  0.45427  0.00000  0.09147
      10     H     0.44334  0.44334  0.00000  0.11331
      11     H     0.46808  0.46808  0.00000  0.06383

   Total alpha = 20.00000, Total beta = 20.00000, Total charge = -0.00000
