  ==> Input File <==

--------------------------------------------------------------------------
set {
	reference rhf
	basis 6-31G*
}

set_num_threads( 4 )
memory 2 gb

molecule MOL {
0 1

H	 2.885845	 0.346891	 0.254578
C	 1.951159	 -0.223429	 0.317018
C	 0.692068	 0.589600	 0.160137
O	 1.979503	 -1.397766	 0.496627
C	 -0.558097	 -0.297372	 0.091132
H	 0.791645	 1.202255	 -0.728243
H	 0.616171	 1.253469	 1.020572
C	 -1.850991	 0.512573	 -0.019058
H	 -0.476753	 -0.965681	 -0.762987
H	 -0.604799	 -0.930658	 0.975228
C	 -3.096943	 -0.368295	 -0.099594
H	 -1.800724	 1.150330	 -0.898172
H	 -1.931651	 1.177355	 0.838044
H	 -3.060452	 -1.020287	 -0.967456
H	 -3.996858	 0.233488	 -0.175704
H	 -3.191959	 -0.995686	 0.782074

	symmetry c1
}
set optking {
	frozen_dihedral = ("
		4 2 3 6
	")
}

ee = optimize('scf')
oeprop('DIPOLE', 'QUADRUPOLE', 'MULLIKEN_CHARGES')
f=open( 'psi4out.xyz', 'w' )
f.write( "16  " )
f.write( str(ee) + "\n" )
f.write( MOL.save_string_xyz() )
f.close()
--------------------------------------------------------------------------

    Molecular point group: c1
  Charge       = 0
  Multiplicity = 1
  Basis Set: 6-31G*
  Basis Set:
  @DF-RHF Final Energy:  -270.02080218519211
    Total Energy =                       -270.0208021851921103
    Molecular point group: c1
  Basis Set: 6-31G*
  Basis Set:
  Basis Set: 6-31G*
  Basis Set:
  @DF-RHF Final Energy:  -270.02125596506386
    Total Energy =                       -270.0212559650635740
  Basis Set: 6-31G*
  Basis Set:
  Basis Set: 6-31G*
  Basis Set:
  @DF-RHF Final Energy:  -270.02125505402455
    Total Energy =                       -270.0212550540246070
  Basis Set: 6-31G*
  Basis Set:
  Basis Set: 6-31G*
  Basis Set:
  @DF-RHF Final Energy:  -270.02138160475079
    Total Energy =                       -270.0213816047506157
  Basis Set: 6-31G*
  Basis Set:
  Basis Set: 6-31G*
  Basis Set:
  @DF-RHF Final Energy:  -270.02137753671508
    Total Energy =                       -270.0213775367151356
  Basis Set: 6-31G*
  Basis Set:
  Basis Set: 6-31G*
  Basis Set:
  @DF-RHF Final Energy:  -270.02138655581678
    Total Energy =                       -270.0213865558165480
  Basis Set: 6-31G*
  Basis Set:
  Charge       = 0
  Multiplicity = 1
  Basis Set: 6-31G*
  Basis Set:

    Orbital Energies (a.u.)
    -----------------------

    Doubly Occupied:

       1A    -20.563852     2A    -11.328507     3A    -11.237582
       4A    -11.222634     5A    -11.221932     6A    -11.212337
       7A     -1.404061     8A     -1.088885     9A     -1.015453
      10A     -0.908708    11A     -0.814136    12A     -0.770949
      13A     -0.674830    14A     -0.656607    15A     -0.628743
      16A     -0.598034    17A     -0.585398    18A     -0.534507
      19A     -0.528480    20A     -0.495504    21A     -0.484882
      22A     -0.477811    23A     -0.472041    24A     -0.411342

  @DF-RHF Final Energy:  -270.02138780941721

   => Energetics <=

    Nuclear Repulsion Energy =            231.7954202878644026
    One-Electron Energy =                -824.9591880338500687
    Two-Electron Energy =                 323.1423799365682044
    DFT Exchange-Correlation Energy =       0.0000000000000000
    Empirical Dispersion Energy =           0.0000000000000000
    PCM Polarization Energy =               0.0000000000000000
    EFP Energy =                            0.0000000000000000
    Total Energy =                       -270.0213878094174333
    Molecular point group: c1
  Basis Set: 6-31G*
  Basis Set:

  -Total Gradient:
     Atom            X                  Y                   Z
    ------   -----------------  -----------------  -----------------
       1        0.000006563418    -0.000005041138     0.000009025950
       2        0.000094115757    -0.000009359049    -0.000866319704
       3       -0.000302905780    -0.000492521324    -0.000113194814
       4       -0.000022768752     0.000088269260     0.000642353051
       5       -0.000025637107    -0.000018374402    -0.000008296564
       6        0.000231193452     0.000439319841     0.000348013876
       7        0.000014404485    -0.000010402555    -0.000012342385
       8       -0.000007061466     0.000004546170     0.000010262397
       9       -0.000000949881    -0.000009995734     0.000002545142
      10        0.000001329612     0.000011540362    -0.000010686100
      11        0.000009513715    -0.000005373346    -0.000004080035
      12        0.000000476594     0.000001277452    -0.000001529910
      13       -0.000002333205     0.000005500903     0.000005087760
      14       -0.000001654900    -0.000003796088    -0.000000379138
      15        0.000006666222     0.000003578727    -0.000001352718
      16       -0.000000952174     0.000000830922     0.000000893192

  **** Optimization is complete! (in 7 steps) ****
    Final optimized geometry and variables:
    Molecular point group: c1

    Geometry (in Angstrom), charge = 0, multiplicity = 1:

    H            3.028575471785     0.605609788533     0.126205079541
    C            2.116516626739    -0.001556593825     0.155695938515
    C            0.831032137631     0.774346908566     0.021582020033
    O            2.188700435259    -1.179080607789     0.298682358953
    C           -0.420391100327    -0.094964327289    -0.052116462628
    H            0.923117679288     1.416558498501    -0.853603946488
    H            0.783772905987     1.455980324462     0.871473750196
    C           -1.703161739050     0.728445798912    -0.176888935687
    H           -0.334371817219    -0.771878126161    -0.897069026076
    H           -0.469423890572    -0.722470130606     0.832106720241
    C           -2.957359549398    -0.141267979286    -0.251835055385
    H           -1.647087637045     1.356860476249    -1.063491209600
    H           -1.784195189266     1.405032204473     0.671528109484
    H           -2.922423722495    -0.805519359692    -1.110437409896
    H           -3.852001076913     0.467116745239    -0.339688566384
    H           -3.060631736067    -0.756609152770     0.637137338519

  Mulliken Charges: (a.u.)
   Center  Symbol    Alpha    Beta     Spin     Total
       1     H     0.42790  0.42790  0.00000  0.14420
       2     C     2.83382  2.83382  0.00000  0.33235
       3     C     3.21517  3.21517  0.00000 -0.43035
       4     O     4.23760  4.23760  0.00000 -0.47521
       5     C     3.14848  3.14848  0.00000 -0.29696
       6     H     0.40888  0.40888  0.00000  0.18223
       7     H     0.40693  0.40693  0.00000  0.18615
       8     C     3.15364  3.15364  0.00000 -0.30728
       9     H     0.41308  0.41308  0.00000  0.17383
      10     H     0.41048  0.41048  0.00000  0.17905
      11     C     3.23954  3.23954  0.00000 -0.47908
      12     H     0.42329  0.42329  0.00000  0.15342
      13     H     0.42314  0.42314  0.00000  0.15373
      14     H     0.41984  0.41984  0.00000  0.16031
      15     H     0.41859  0.41859  0.00000  0.16283
      16     H     0.41962  0.41962  0.00000  0.16077

   Total alpha = 24.00000, Total beta = 24.00000, Total charge =  0.00000
