                              Psi4 1.0.54 Driver

  ==> Input File <==

--------------------------------------------------------------------------
set {
	reference rhf
	basis cc-pvtz
}

set_num_threads( 4 )
memory 2 gb

molecule MOL {
0 1

O	 1.853282	 0.241504	 0.923364
C	 1.121787	 0.124983	 0.000110
C	 -0.170912	 -0.649867	 -0.000147
O	 1.352523	 0.675256	 -1.180711
C	 -1.413045	 0.229353	 0.001137
H	 -0.152877	 -1.303435	 -0.866175
H	 -0.152278	 -1.305116	 0.864586
C	 -2.702562	 -0.586401	 0.000228
H	 -1.390744	 0.882001	 -0.864365
H	 -1.390549	 0.879837	 0.868264
C	 -3.953810	 0.284959	 -0.000782
H	 -2.717793	 -1.238567	 -0.869075
H	 -2.719108	 -1.238472	 0.869576
H	 -3.983727	 0.924403	 -0.876454
H	 -4.852989	 -0.320147	 -0.001515
H	 -3.985140	 0.924399	 0.874841
C	 2.536119	 1.434369	 -1.322725
H	 2.540001	 2.266943	 -0.634952
H	 2.540260	 1.791750	 -2.339646
H	 3.406357	 0.821779	 -1.139304

	symmetry c1
}
set optking {
	frozen_dihedral = ("
		1 2 3 6
	")
}

ee,wfn = optimize('scf', return_wfn=True)
oeprop( wfn, 'DIPOLE', 'QUADRUPOLE', 'MULLIKEN_CHARGES')
f=open( 'psi4out.xyz', 'w' )
f.write( "20  " )
f.write( str(ee) + "\n" )
f.write( MOL.save_string_xyz() )
f.close()
--------------------------------------------------------------------------

    Molecular point group: c1
  Charge       = 0
  Multiplicity = 1
  Basis Set: CC-PVTZ
  Basis Set:
  @DF-RHF Final Energy:  -384.08168290678759
    Total Energy =                       -384.0816829067871367
    Molecular point group: c1
  Basis Set: CC-PVTZ
  Basis Set:
  Basis Set: CC-PVTZ
  Basis Set:
  @DF-RHF Final Energy:  -384.08205981170164
    Total Energy =                       -384.0820598117014697
  Basis Set: CC-PVTZ
  Basis Set:
  Basis Set: CC-PVTZ
  Basis Set:
  @DF-RHF Final Energy:  -384.08076261109164
    Total Energy =                       -384.0807626110921547
  Basis Set: CC-PVTZ
  Basis Set:
  Basis Set: CC-PVTZ
  Basis Set:
  @DF-RHF Final Energy:  -384.08213037879636
    Total Energy =                       -384.0821303787967054
  Basis Set: CC-PVTZ
  Basis Set:
  Basis Set: CC-PVTZ
  Basis Set:
  @DF-RHF Final Energy:  -384.08214259875376
    Total Energy =                       -384.0821425987536486
  Basis Set: CC-PVTZ
  Basis Set:
  Charge       = 0
  Multiplicity = 1
  Basis Set: CC-PVTZ
  Basis Set:

    Orbital Energies (a.u.)
    -----------------------

    Doubly Occupied:

       1A    -20.596932     2A    -20.532674     3A    -11.363387
       4A    -11.278503     5A    -11.232423     6A    -11.227311
       7A    -11.222316     8A    -11.212577     9A     -1.471702
      10A     -1.364523    11A     -1.094119    12A     -1.026299
      13A     -0.967839    14A     -0.891372    15A     -0.807693
      16A     -0.775885    17A     -0.696131    18A     -0.683316
      19A     -0.676580    20A     -0.649085    21A     -0.598311
      22A     -0.593389    23A     -0.576663    24A     -0.553627
      25A     -0.534686    26A     -0.521450    27A     -0.512111
      28A     -0.486322    29A     -0.481250    30A     -0.476281
      31A     -0.458052    32A     -0.432287

  @DF-RHF Final Energy:  -384.08214334066150

   => Energetics <=

    Nuclear Repulsion Energy =            384.0395174661644546
    One-Electron Energy =               -1284.2531235696064869
    Two-Electron Energy =                 516.1314627627806431
    DFT Exchange-Correlation Energy =       0.0000000000000000
    Empirical Dispersion Energy =           0.0000000000000000
    PCM Polarization Energy =               0.0000000000000000
    EFP Energy =                            0.0000000000000000
    Total Energy =                       -384.0821433406614460
    Molecular point group: c1
  Basis Set: CC-PVTZ
  Basis Set:

  -Total Gradient:
     Atom            X                  Y                   Z
    ------   -----------------  -----------------  -----------------
       1        0.000092251322    -0.000170487821    -0.000107762692
       2       -0.000089295734     0.000165550832     0.000333733383
       3       -0.000079042439     0.000100909555    -0.000188638259
       4        0.000011215455     0.000067076442    -0.000126604661
       5        0.000025350393    -0.000007013105    -0.000018440424
       6        0.000093793412    -0.000145269970     0.000117259100
       7        0.000001526805    -0.000016745413     0.000010522754
       8       -0.000020988243    -0.000004130089    -0.000006929510
       9       -0.000008840838     0.000007350999    -0.000010756746
      10        0.000000504325     0.000025636508     0.000010926563
      11       -0.000001643452    -0.000007004213     0.000001362799
      12       -0.000008351497    -0.000015706386    -0.000019735058
      13        0.000007650621    -0.000019345269     0.000013106102
      14       -0.000006451409     0.000007000477    -0.000014845619
      15       -0.000012049994    -0.000006330762     0.000002630325
      16       -0.000001118360     0.000020486079     0.000018822242
      17       -0.000016066863    -0.000025295193    -0.000012628630
      18        0.000009112276    -0.000001633878    -0.000004514806
      19        0.000014021507     0.000008796760     0.000005805770
      20       -0.000011577281     0.000016154448    -0.000003312636

  **** Optimization is complete! (in 6 steps) ****
    Final optimized geometry and variables:
    Molecular point group: c1

    Geometry (in Angstrom), charge = 0, multiplicity = 1:

    O            2.007901878570     0.165809136620     1.093185267056
    C            1.274255808831    -0.035260548856     0.185735173043
    C            0.051857521438    -0.912940372065     0.246108461762
    O            1.437907823509     0.506282764999    -1.010648901324
    C           -1.247465240225    -0.102592334303     0.201772709578
    H            0.083542755637    -1.601931554290    -0.590011355142
    H            0.112504097066    -1.481622852593     1.162920387587
    C           -2.486795679090    -0.987541511465     0.296410389389
    H           -1.280616366706     0.473631386922    -0.716057101865
    H           -1.250022603658     0.610425654203     1.021200525689
    C           -3.786792321409    -0.191380514917     0.262439750888
    H           -2.479653982929    -1.702593279687    -0.521587675826
    H           -2.443721212656    -1.569870773887     1.212315317495
    H           -3.874272650522     0.376010933780    -0.658002434919
    H           -4.647811177994    -0.845886028369     0.330702103394
    H           -3.837739093551     0.509776799112     1.088584415529
    C            2.540828585780     1.372450422288    -1.185292753549
    H            2.473213294161     2.215856780917    -0.514250617036
    H            2.498013949247     1.706875366946    -2.209155808595
    H            3.467939991467     0.850047179628    -1.001986163002

  Mulliken Charges: (a.u.)
   Center  Symbol    Alpha    Beta     Spin     Total
       1     O     4.20107  4.20107  0.00000 -0.40214
       2     C     2.80782  2.80782  0.00000  0.38437
       3     C     3.07666  3.07666  0.00000 -0.15331
       4     O     4.15035  4.15035  0.00000 -0.30070
       5     C     3.09875  3.09875  0.00000 -0.19750
       6     H     0.44614  0.44614  0.00000  0.10772
       7     H     0.43794  0.43794  0.00000  0.12413
       8     C     3.08856  3.08856  0.00000 -0.17713
       9     H     0.44467  0.44467  0.00000  0.11067
      10     H     0.44735  0.44735  0.00000  0.10530
      11     C     3.14922  3.14922  0.00000 -0.29844
      12     H     0.45353  0.45353  0.00000  0.09295
      13     H     0.45222  0.45222  0.00000  0.09556
      14     H     0.45440  0.45440  0.00000  0.09120
      15     H     0.44736  0.44736  0.00000  0.10528
      16     H     0.45371  0.45371  0.00000  0.09258
      17     C     3.03763  3.03763  0.00000 -0.07525
      18     H     0.45446  0.45446  0.00000  0.09108
      19     H     0.44557  0.44557  0.00000  0.10886
      20     H     0.45262  0.45262  0.00000  0.09477

   Total alpha = 32.00000, Total beta = 32.00000, Total charge =  0.00000

*** Psi4 exiting successfully. Buy a developer a beer!
