                              Psi4 1.0.54 Driver

  ==> Input File <==

--------------------------------------------------------------------------
set {
	reference rhf
	basis cc-pvtz
}

set_num_threads( 4 )
memory 2 gb

molecule MOL {
0 1

H	 -2.816458	 -0.841657	 -0.064679
N	 -1.878861	 -0.711874	 0.250184
C	 -1.341419	 0.551458	 -0.220231
H	 -1.333674	 -1.468530	 -0.105118
C	 0.082190	 0.731516	 0.254705
H	 -1.357065	 0.652078	 -1.304747
H	 -1.939897	 1.357530	 0.189797
O	 0.675474	 1.758734	 -0.480512
H	 0.089469	 0.978361	 1.315454
H	 0.633547	 -0.195782	 0.116679
C	 2.014768	 1.979022	 -0.185577
H	 2.362931	 2.791044	 -0.807500
H	 2.152055	 2.254825	 0.857869
H	 2.617486	 1.097333	 -0.390314

	symmetry c1
}
set optking {
	frozen_dihedral = ("
		8 5 3 6
	")
}

ee,wfn = optimize('scf', return_wfn=True)
oeprop( wfn, 'DIPOLE', 'QUADRUPOLE', 'MULLIKEN_CHARGES')
f=open( 'psi4out.xyz', 'w' )
f.write( "14  " )
f.write( str(ee) + "\n" )
f.write( MOL.save_string_xyz() )
f.close()
--------------------------------------------------------------------------

    Molecular point group: c1
  Charge       = 0
  Multiplicity = 1
  Basis Set: CC-PVTZ
  Basis Set:
  @DF-RHF Final Energy:  -248.22327031124763
    Total Energy =                       -248.2232703112476315
    Molecular point group: c1
  Basis Set: CC-PVTZ
  Basis Set:
  Basis Set: CC-PVTZ
  Basis Set:
  @DF-RHF Final Energy:  -248.22387886806064
    Total Energy =                       -248.2238788680606945
  Basis Set: CC-PVTZ
  Basis Set:
  Basis Set: CC-PVTZ
  Basis Set:
  @DF-RHF Final Energy:  -248.22398511275554
    Total Energy =                       -248.2239851127553152
  Basis Set: CC-PVTZ
  Basis Set:
  Basis Set: CC-PVTZ
  Basis Set:
  @DF-RHF Final Energy:  -248.22401595402511
    Total Energy =                       -248.2240159540251057
  Basis Set: CC-PVTZ
  Basis Set:
  Basis Set: CC-PVTZ
  Basis Set:
  @DF-RHF Final Energy:  -248.22401809715348
    Total Energy =                       -248.2240180971534755
  Basis Set: CC-PVTZ
  Basis Set:
  Charge       = 0
  Multiplicity = 1
  Basis Set: CC-PVTZ
  Basis Set:

    Orbital Energies (a.u.)
    -----------------------

    Doubly Occupied:

       1A    -20.548638     2A    -15.532539     3A    -11.262300
       4A    -11.262234     5A    -11.239685     6A     -1.383054
       7A     -1.182787     8A     -0.999888     9A     -0.900367
      10A     -0.823587    11A     -0.688167    12A     -0.667406
      13A     -0.653606    14A     -0.622415    15A     -0.587873
      16A     -0.570013    17A     -0.515726    18A     -0.498142
      19A     -0.471417    20A     -0.417055    21A     -0.390140

  @DF-RHF Final Energy:  -248.22401817492789

   => Energetics <=

    Nuclear Repulsion Energy =            191.1027752368756865
    One-Electron Energy =                -716.2195129013751966
    Two-Electron Energy =                 276.8927194895713342
    DFT Exchange-Correlation Energy =       0.0000000000000000
    Empirical Dispersion Energy =           0.0000000000000000
    PCM Polarization Energy =               0.0000000000000000
    EFP Energy =                            0.0000000000000000
    Total Energy =                       -248.2240181749281760
    Molecular point group: c1
  Basis Set: CC-PVTZ
  Basis Set:

  -Total Gradient:
     Atom            X                  Y                   Z
    ------   -----------------  -----------------  -----------------
       1       -0.000014934880     0.000016085184    -0.000001446103
       2        0.000014110339     0.000000069118     0.000015043209
       3        0.000583785215    -0.003967426953    -0.000731043169
       4        0.000015379084    -0.000002095083    -0.000007277152
       5       -0.000912040110     0.002688251827     0.001986589033
       6       -0.000312851053     0.002869623599     0.000215129010
       7       -0.000005643015    -0.000010669059     0.000001722377
       8        0.000632891906    -0.001577833863    -0.001501440604
       9       -0.000001063635    -0.000000945546     0.000008840797
      10       -0.000001734795    -0.000001184326     0.000002745743
      11        0.000001009269    -0.000016307816     0.000012100058
      12       -0.000008620023    -0.000002490322    -0.000001682320
      13        0.000002864478     0.000002901925     0.000000614522
      14        0.000006847222     0.000002021317     0.000000104599

  **** Optimization is complete! (in 6 steps) ****
    Final optimized geometry and variables:
    Molecular point group: c1

    Geometry (in Angstrom), charge = 0, multiplicity = 1:

    H           -2.866009163714    -1.464321844884     0.145240015706
    N           -1.881782164338    -1.469127685428     0.303714339116
    C           -1.263079820481    -0.256320952979    -0.199284896380
    H           -1.511559563024    -2.278182202330    -0.148900302285
    C            0.158289274895    -0.143395048327     0.318885451831
    H           -1.240299816662    -0.172088947604    -1.283436856340
    H           -1.834590907564     0.591358233691     0.159734520781
    O            0.826456137714     0.837084936054    -0.409513050203
    H            0.152888214135     0.092966255298     1.380170472460
    H            0.665974394901    -1.101898707571     0.204597529112
    C            2.130114277199     1.073548946068     0.005790089205
    H            2.547599887300     1.839876838927    -0.631186214252
    H            2.164407028602     1.418318373044     1.036842338602
    H            2.742917778436     0.178187824225    -0.076710554426

  Mulliken Charges: (a.u.)
   Center  Symbol    Alpha    Beta     Spin     Total
       1     H     0.42679  0.42679  0.00000  0.14643
       2     N     3.69531  3.69531  0.00000 -0.39062
       3     C     3.03203  3.03203  0.00000 -0.06406
       4     H     0.42895  0.42895  0.00000  0.14210
       5     C     2.95219  2.95219  0.00000  0.09563
       6     H     0.46260  0.46260  0.00000  0.07480
       7     H     0.45565  0.45565  0.00000  0.08870
       8     O     4.17410  4.17410  0.00000 -0.34821
       9     H     0.47054  0.47054  0.00000  0.05892
      10     H     0.48054  0.48054  0.00000  0.03892
      11     C     3.03100  3.03100  0.00000 -0.06199
      12     H     0.44728  0.44728  0.00000  0.10543
      13     H     0.47083  0.47083  0.00000  0.05833
      14     H     0.47219  0.47219  0.00000  0.05561

   Total alpha = 21.00000, Total beta = 21.00000, Total charge = -0.00000

*** Psi4 exiting successfully. Buy a developer a beer!
