                              Psi4 1.0.54 Driver

  ==> Input File <==

--------------------------------------------------------------------------
set {
	reference rhf
	basis cc-pvtz
}

set_num_threads( 4 )
memory 2 gb

molecule MOL {
0 1

H	 -2.700645	 1.625854	 1.785164
O	 -2.014652	 1.046652	 1.509239
C	 -2.302264	 0.528872	 0.237390
C	 -1.175688	 -0.398187	 -0.171891
H	 -3.243783	 -0.016192	 0.252265
H	 -2.401422	 1.333876	 -0.487845
C	 0.196029	 0.106276	 0.266738
H	 -1.201873	 -0.515469	 -1.250677
H	 -1.365975	 -1.378728	 0.252664
C	 1.330220	 -0.826136	 -0.155230
H	 0.359542	 1.097229	 -0.145561
H	 0.212134	 0.218135	 1.348778
C	 2.719700	 -0.407669	 0.328325
H	 1.339388	 -0.911200	 -1.239363
H	 1.119001	 -1.821953	 0.224128
C	 3.241564	 0.893452	 -0.276737
H	 3.418299	 -1.204729	 0.093035
H	 2.711776	 -0.323368	 1.411960
H	 3.254204	 0.841071	 -1.360784
H	 2.634460	 1.745075	 0.005842
H	 4.254264	 1.092401	 0.054971

	symmetry c1
}
set optking {
	frozen_dihedral = ("
		2 3 4 8
	")
}

ee,wfn = optimize('scf', return_wfn=True)
oeprop( wfn, 'DIPOLE', 'QUADRUPOLE', 'MULLIKEN_CHARGES')
f=open( 'psi4out.xyz', 'w' )
f.write( "21  " )
f.write( str(ee) + "\n" )
f.write( MOL.save_string_xyz() )
f.close()
--------------------------------------------------------------------------

    Molecular point group: c1
  Charge       = 0
  Multiplicity = 1
  Basis Set: CC-PVTZ
  Basis Set:
  @DF-RHF Final Energy:  -310.32925861406835
    Total Energy =                       -310.3292586140682943
    Molecular point group: c1
  Basis Set: CC-PVTZ
  Basis Set:
  Basis Set: CC-PVTZ
  Basis Set:
  @DF-RHF Final Energy:  -310.32987046634531
    Total Energy =                       -310.3298704663453691
  Basis Set: CC-PVTZ
  Basis Set:
  Basis Set: CC-PVTZ
  Basis Set:
  @DF-RHF Final Energy:  -310.33022628728247
    Total Energy =                       -310.3302262872829260
  Basis Set: CC-PVTZ
  Basis Set:
  Basis Set: CC-PVTZ
  Basis Set:
  @DF-RHF Final Energy:  -310.33024049408664
    Total Energy =                       -310.3302404940864108
  Basis Set: CC-PVTZ
  Basis Set:
  Basis Set: CC-PVTZ
  Basis Set:
  @DF-RHF Final Energy:  -310.33024197721272
    Total Energy =                       -310.3302419772125518
  Basis Set: CC-PVTZ
  Basis Set:
  Charge       = 0
  Multiplicity = 1
  Basis Set: CC-PVTZ
  Basis Set:

    Orbital Energies (a.u.)
    -----------------------

    Doubly Occupied:

       1A    -20.546190     2A    -11.266353     3A    -11.210903
       4A    -11.208083     5A    -11.205775     6A    -11.202163
       7A    -11.201495     8A     -1.364420     9A     -1.080960
      10A     -1.029687    11A     -0.953362    12A     -0.875881
      13A     -0.800903    14A     -0.772573    15A     -0.703161
      16A     -0.654132    17A     -0.618283    18A     -0.604839
      19A     -0.585897    20A     -0.567845    21A     -0.532324
      22A     -0.526170    23A     -0.500648    24A     -0.492467
      25A     -0.478654    26A     -0.455186    27A     -0.452454
      28A     -0.437184    29A     -0.431292

  @DF-RHF Final Energy:  -310.33024222348541

   => Energetics <=

    Nuclear Repulsion Energy =            318.3534627608802907
    One-Electron Energy =               -1051.8488485401958314
    Two-Electron Energy =                 423.1651435558300136
    DFT Exchange-Correlation Energy =       0.0000000000000000
    Empirical Dispersion Energy =           0.0000000000000000
    PCM Polarization Energy =               0.0000000000000000
    EFP Energy =                            0.0000000000000000
    Total Energy =                       -310.3302422234854703
    Molecular point group: c1
  Basis Set: CC-PVTZ
  Basis Set:

  -Total Gradient:
     Atom            X                  Y                   Z
    ------   -----------------  -----------------  -----------------
       1        0.000050939199    -0.000032067632    -0.000021912092
       2        0.002167178963     0.003428045769    -0.001853864989
       3       -0.002113438542    -0.003533209357     0.002359392180
       4       -0.003554058571    -0.004341121338     0.000030222834
       5        0.000014611196    -0.000013717739    -0.000009106781
       6       -0.000003409951    -0.000032989690    -0.000023182831
       7        0.000004843328     0.000002476744     0.000047727994
       8        0.003449540305     0.004473135097    -0.000531988539
       9       -0.000023953484     0.000026242786     0.000002542133
      10        0.000012938493     0.000005464690     0.000013609815
      11        0.000029444453     0.000022955535    -0.000007362740
      12       -0.000001480773    -0.000018284382     0.000004614318
      13        0.000005309918    -0.000004575808    -0.000030662537
      14       -0.000004366983    -0.000003767870     0.000015567770
      15       -0.000001617469     0.000019498351     0.000008830861
      16       -0.000004040157     0.000003796974     0.000003928728
      17       -0.000006506281    -0.000004670433    -0.000008714621
      18       -0.000005353910    -0.000006754960    -0.000005179706
      19        0.000003905167    -0.000001748706     0.000004249272
      20       -0.000020369318     0.000006758028    -0.000001912897
      21       -0.000000115579     0.000004533944     0.000003201828

  **** Optimization is complete! (in 6 steps) ****
    Final optimized geometry and variables:
    Molecular point group: c1

    Geometry (in Angstrom), charge = 0, multiplicity = 1:

    H           -3.057639371324     1.409986062854     1.520082507009
    O           -2.325125833966     0.874755401143     1.277875841034
    C           -2.542678802332     0.313266533547     0.009653181654
    C           -1.392819036619    -0.616176142127    -0.357015252259
    H           -3.480751013219    -0.234443931523    -0.014420591002
    H           -2.608952528766     1.107379918300    -0.731395850200
    C           -0.014644995139    -0.074885151395     0.025418736825
    H           -1.407335912353    -0.738987966664    -1.436431231024
    H           -1.540769252759    -1.591083240189     0.095081930132
    C            1.115234003552    -0.979539886324    -0.462810958244
    H            0.098981067811     0.921858716783    -0.389549914274
    H            0.045910227936     0.034192227306     1.100990999346
    C            2.516092516823    -0.543149620253    -0.030422611502
    H            1.083024456157    -1.048628065906    -1.548285277343
    H            0.940195411271    -1.985907293001    -0.091344035441
    C            2.983633657618     0.781932889416    -0.627622287854
    H            3.220644195894    -1.319621448299    -0.313066619707
    H            2.552104898044    -0.481532327370     1.053898622031
    H            2.950722188032     0.753352776703    -1.712303317780
    H            2.370447567573     1.612488489394    -0.299819555263
    H            4.005328765797     0.996342692584    -0.335091798594

  Mulliken Charges: (a.u.)
   Center  Symbol    Alpha    Beta     Spin     Total
       1     H     0.39679  0.39679  0.00000  0.20643
       2     O     4.19553  4.19553  0.00000 -0.39107
       3     C     2.97309  2.97309  0.00000  0.05381
       4     C     3.09393  3.09393  0.00000 -0.18786
       5     H     0.46621  0.46621  0.00000  0.06758
       6     H     0.47358  0.47358  0.00000  0.05284
       7     C     3.08873  3.08873  0.00000 -0.17745
       8     H     0.45646  0.45646  0.00000  0.08709
       9     H     0.45261  0.45261  0.00000  0.09478
      10     C     3.09522  3.09522  0.00000 -0.19043
      11     H     0.45551  0.45551  0.00000  0.08898
      12     H     0.44273  0.44273  0.00000  0.11454
      13     C     3.08926  3.08926  0.00000 -0.17852
      14     H     0.45638  0.45638  0.00000  0.08724
      15     H     0.45099  0.45099  0.00000  0.09801
      16     C     3.15271  3.15271  0.00000 -0.30543
      17     H     0.44986  0.44986  0.00000  0.10029
      18     H     0.45447  0.45447  0.00000  0.09106
      19     H     0.45618  0.45618  0.00000  0.08765
      20     H     0.45256  0.45256  0.00000  0.09489
      21     H     0.44720  0.44720  0.00000  0.10559

   Total alpha = 29.00000, Total beta = 29.00000, Total charge = -0.00000

*** Psi4 exiting successfully. Buy a developer a beer!
