  ==> Input File <==

--------------------------------------------------------------------------
set {
	reference rhf
	basis 6-31G*
}

set_num_threads( 4 )
memory 2 gb

molecule MOL {
0 1

H	 -1.836216	 1.387520	 -0.000064
C	 -1.301823	 0.443321	 -0.000031
O	 -0.003969	 0.658512	 0.000451
O	 -1.829879	 -0.616434	 -0.000857
C	 0.850537	 -0.484732	 0.000380
C	 0.896553	 -1.017204	 1.416246
H	 1.829796	 -0.187950	 -0.349318
H	 0.455347	 -1.215843	 -0.691427
H	 1.287310	 -0.268951	 2.096291
H	 1.538900	 -1.890521	 1.460290
H	 -0.093734	 -1.301866	 1.752680

	symmetry c1
}
set optking {
	frozen_dihedral = ("
		7 5 3 2
	")
}

ee = optimize('scf')
oeprop('DIPOLE', 'QUADRUPOLE', 'MULLIKEN_CHARGES')
f=open( 'psi4out.xyz', 'w' )
f.write( "11  " )
f.write( str(ee) + "\n" )
f.write( MOL.save_string_xyz() )
f.close()
--------------------------------------------------------------------------

    Molecular point group: c1
  Charge       = 0
  Multiplicity = 1
  Basis Set: 6-31G*
  Basis Set:
  @DF-RHF Final Energy:  -266.82622663683856
    Total Energy =                       -266.8262266368386690
    Molecular point group: c1
  Basis Set: 6-31G*
  Basis Set:
  Basis Set: 6-31G*
  Basis Set:
  @DF-RHF Final Energy:  -266.82781346496722
    Total Energy =                       -266.8278134649672779
  Basis Set: 6-31G*
  Basis Set:
  Basis Set: 6-31G*
  Basis Set:
  @DF-RHF Final Energy:  -266.82269097481395
    Total Energy =                       -266.8226909748138382
  Basis Set: 6-31G*
  Basis Set:
  Basis Set: 6-31G*
  Basis Set:
  @DF-RHF Final Energy:  -266.82813083680009
    Total Energy =                       -266.8281308367998008
  Basis Set: 6-31G*
  Basis Set:
  Basis Set: 6-31G*
  Basis Set:
  @DF-RHF Final Energy:  -266.82817361944126
    Total Energy =                       -266.8281736194413725
  Basis Set: 6-31G*
  Basis Set:
  Charge       = 0
  Multiplicity = 1
  Basis Set: 6-31G*
  Basis Set:

    Orbital Energies (a.u.)
    -----------------------

    Doubly Occupied:

       1A    -20.612857     2A    -20.557229     3A    -11.379434
       4A    -11.292103     5A    -11.222658     6A     -1.475671
       7A     -1.374274     8A     -1.048240     9A     -0.912067
      10A     -0.796684    11A     -0.744362    12A     -0.683701
      13A     -0.653049    14A     -0.624680    15A     -0.575346
      16A     -0.541146    17A     -0.535597    18A     -0.501730
      19A     -0.458628    20A     -0.452944

  @DF-RHF Final Energy:  -266.82817545649425

   => Energetics <=

    Nuclear Repulsion Energy =            182.3224348339151391
    One-Electron Energy =                -725.4164224870678481
    Two-Electron Energy =                 276.2658121966586009
    DFT Exchange-Correlation Energy =       0.0000000000000000
    Empirical Dispersion Energy =           0.0000000000000000
    PCM Polarization Energy =               0.0000000000000000
    EFP Energy =                            0.0000000000000000
    Total Energy =                       -266.8281754564940798
    Molecular point group: c1
  Basis Set: 6-31G*
  Basis Set:

  -Total Gradient:
     Atom            X                  Y                   Z
    ------   -----------------  -----------------  -----------------
       1        0.000025966481    -0.000028472233    -0.000036818484
       2        0.000081836597    -0.000088112877     0.000695662537
       3        0.000109677799     0.000179244014    -0.000741702421
       4       -0.000124121381    -0.000008027991    -0.000013695943
       5       -0.000198110677    -0.000307402015    -0.000514527285
       6       -0.000083979097     0.000065688334    -0.000032329127
       7        0.000149375882     0.000191137550     0.000634634868
       8        0.000017378879     0.000001338814     0.000010289886
       9        0.000000498319    -0.000008630247     0.000011070354
      10        0.000015582326     0.000002814312    -0.000023500375
      11        0.000005894877     0.000000422339     0.000010915991

  **** Optimization is complete! (in 6 steps) ****
    Final optimized geometry and variables:
    Molecular point group: c1

    Geometry (in Angstrom), charge = 0, multiplicity = 1:

    H           -1.525224519960     1.642881463622    -0.354029600872
    C           -1.024331201770     0.681265391867    -0.318323800479
    O            0.279722043627     0.856104687757    -0.302730828221
    O           -1.592322063326    -0.358028200005    -0.303542166556
    C            1.117307355077    -0.300629810818    -0.252196484509
    C            1.229732858079    -0.849459467870     1.158210979649
    H            2.075829374119     0.048864122715    -0.605929723771
    H            0.734850121507    -1.043328981126    -0.936474422693
    H            1.587062966878    -0.083009804468     1.837192776759
    H            1.936200597571    -1.673586587656     1.172396672291
    H            0.273926705920    -1.214449815697     1.511304266520

  Mulliken Charges: (a.u.)
   Center  Symbol    Alpha    Beta     Spin     Total
       1     H     0.41062  0.41062  0.00000  0.17876
       2     C     2.72705  2.72705  0.00000  0.54589
       3     O     4.29177  4.29177  0.00000 -0.58353
       4     O     4.26458  4.26458  0.00000 -0.52917
       5     C     3.00957  3.00957  0.00000 -0.01913
       6     C     3.25637  3.25637  0.00000 -0.51274
       7     H     0.40752  0.40752  0.00000  0.18496
       8     H     0.40294  0.40294  0.00000  0.19413
       9     H     0.41287  0.41287  0.00000  0.17427
      10     H     0.41622  0.41622  0.00000  0.16756
      11     H     0.40050  0.40050  0.00000  0.19900

   Total alpha = 20.00000, Total beta = 20.00000, Total charge = -0.00000
