                              Psi4 1.0.54 Driver

  ==> Input File <==

--------------------------------------------------------------------------
set {
	reference rhf
	basis cc-pvtz
}

set_num_threads( 4 )
memory 2 gb

molecule MOL {
0 1

O	 1.216069	 1.304886	 0.000821
C	 1.121787	 0.124983	 0.000110
C	 -0.170912	 -0.649867	 -0.000147
O	 2.167739	 -0.685178	 -0.000678
C	 -1.413045	 0.229353	 0.001137
H	 -0.152877	 -1.303435	 -0.866175
H	 -0.152278	 -1.305116	 0.864586
C	 -1.564153	 1.020010	 1.297415
H	 -2.289655	 -0.388986	 -0.156191
H	 -1.370802	 0.910231	 -0.841576
C	 -2.807185	 1.902957	 1.310336
H	 -1.602561	 0.332604	 2.138389
H	 -0.682815	 1.637488	 1.449728
H	 -3.708353	 1.310417	 1.194672
H	 -2.888686	 2.451680	 2.241431
H	 -2.781900	 2.624842	 0.501124
C	 3.449556	 -0.089977	 -0.000570
H	 3.585694	 0.522473	 -0.879546
H	 4.155805	 -0.904274	 -0.001389
H	 3.586173	 0.521118	 0.879272

	symmetry c1
}
set optking {
	frozen_dihedral = ("
		9 5 3 6
	")
}

ee,wfn = optimize('scf', return_wfn=True)
oeprop( wfn, 'DIPOLE', 'QUADRUPOLE', 'MULLIKEN_CHARGES')
f=open( 'psi4out.xyz', 'w' )
f.write( "20  " )
f.write( str(ee) + "\n" )
f.write( MOL.save_string_xyz() )
f.close()
--------------------------------------------------------------------------

    Molecular point group: c1
  Charge       = 0
  Multiplicity = 1
  Basis Set: CC-PVTZ
  Basis Set:
  @DF-RHF Final Energy:  -384.08146426633903
    Total Energy =                       -384.0814642663382301
    Molecular point group: c1
  Basis Set: CC-PVTZ
  Basis Set:
  Basis Set: CC-PVTZ
  Basis Set:
  @DF-RHF Final Energy:  -384.08226874121010
    Total Energy =                       -384.0822687412096457
  Basis Set: CC-PVTZ
  Basis Set:
  Basis Set: CC-PVTZ
  Basis Set:
  @DF-RHF Final Energy:  -384.08007525121405
    Total Energy =                       -384.0800752512139979
  Basis Set: CC-PVTZ
  Basis Set:
  Basis Set: CC-PVTZ
  Basis Set:
  @DF-RHF Final Energy:  -384.08254265618717
    Total Energy =                       -384.0825426561871154
  Basis Set: CC-PVTZ
  Basis Set:
  Basis Set: CC-PVTZ
  Basis Set:
  @DF-RHF Final Energy:  -384.08262993817584
    Total Energy =                       -384.0826299381756144
  Basis Set: CC-PVTZ
  Basis Set:
  Basis Set: CC-PVTZ
  Basis Set:
  @DF-RHF Final Energy:  -384.08267459114376
    Total Energy =                       -384.0826745911442686
  Basis Set: CC-PVTZ
  Basis Set:
  Basis Set: CC-PVTZ
  Basis Set:
  @DF-RHF Final Energy:  -384.08267939436621
    Total Energy =                       -384.0826793943664370
  Basis Set: CC-PVTZ
  Basis Set:
  Charge       = 0
  Multiplicity = 1
  Basis Set: CC-PVTZ
  Basis Set:

    Orbital Energies (a.u.)
    -----------------------

    Doubly Occupied:

       1A    -20.597460     2A    -20.534388     3A    -11.365466
       4A    -11.279082     5A    -11.234283     6A    -11.218347
       7A    -11.212335     8A    -11.205403     9A     -1.473163
      10A     -1.366395    11A     -1.088112    12A     -1.023148
      13A     -0.969882    14A     -0.884889    15A     -0.806239
      16A     -0.768066    17A     -0.703482    18A     -0.684027
      19A     -0.675877    20A     -0.633311    21A     -0.607335
      22A     -0.588585    23A     -0.581445    24A     -0.541989
      25A     -0.534680    26A     -0.518415    27A     -0.513404
      28A     -0.477370    29A     -0.472418    30A     -0.464100
      31A     -0.459221    32A     -0.438864

  @DF-RHF Final Energy:  -384.08268001968702

   => Energetics <=

    Nuclear Repulsion Energy =            389.4348569644874942
    One-Electron Energy =               -1295.1927124504088624
    Two-Electron Energy =                 521.6751754662340090
    DFT Exchange-Correlation Energy =       0.0000000000000000
    Empirical Dispersion Energy =           0.0000000000000000
    PCM Polarization Energy =               0.0000000000000000
    EFP Energy =                            0.0000000000000000
    Total Energy =                       -384.0826800196873592
    Molecular point group: c1
  Basis Set: CC-PVTZ
  Basis Set:

  -Total Gradient:
     Atom            X                  Y                   Z
    ------   -----------------  -----------------  -----------------
       1        0.000022469262    -0.000001729502     0.000010351800
       2       -0.000047821570     0.000043358138    -0.000031639637
       3       -0.000384763646    -0.000474488292     0.000532623913
       4       -0.000005097045    -0.000002007652     0.000011606485
       5        0.000147788263     0.000159131171    -0.000759691712
       6        0.000277466498     0.000378825916    -0.000302244260
       7       -0.000017543342    -0.000020869799    -0.000005535598
       8        0.000018989872     0.000011755912     0.000007782545
       9       -0.000065998467    -0.000068989652     0.000550508798
      10        0.000003289992    -0.000003440847     0.000002069340
      11        0.000005189934    -0.000008920748    -0.000014649215
      12        0.000002082413    -0.000008440842     0.000005248384
      13        0.000003347260     0.000005559258     0.000001610626
      14       -0.000004811815    -0.000003123505     0.000000517916
      15        0.000006683000    -0.000010245526    -0.000001391824
      16       -0.000000342432     0.000006992454    -0.000002620553
      17        0.000063243675     0.000008997291    -0.000008762519
      18       -0.000004797234    -0.000003968886     0.000004745781
      19       -0.000006582439     0.000001985391     0.000000168889
      20       -0.000012792182    -0.000010380284    -0.000000699161

  **** Optimization is complete! (in 8 steps) ****
    Final optimized geometry and variables:
    Molecular point group: c1

    Geometry (in Angstrom), charge = 0, multiplicity = 1:

    O            0.978837127627     0.857231206090    -0.676934066049
    C            0.865373074129    -0.278325286731    -0.361077700174
    C           -0.430956467707    -1.049702054040    -0.317930915582
    O            1.892752022279    -1.043209568078    -0.032304536456
    C           -1.681081739570    -0.178166533987    -0.347298035730
    H           -0.406469491291    -1.706318649572    -1.182750412876
    H           -0.413832595770    -1.695422254395     0.551519604963
    C           -1.910272589442     0.619697356223     0.934655887430
    H           -2.536268840736    -0.826051157748    -0.514892332055
    H           -1.624966339236     0.497813890202    -1.192022945235
    C           -3.177975471043     1.465321259439     0.879815271377
    H           -1.971943861585    -0.066498566803     1.775895152372
    H           -1.057970458708     1.263533159061     1.117491636640
    H           -4.056366136934     0.847978688297     0.721552708611
    H           -3.322082517108     2.014428383271     1.803042201568
    H           -3.129944950454     2.185880089073     0.070606962902
    C            3.179307905790    -0.460014956460    -0.084012076823
    H            3.404865497912    -0.122243801989    -1.084647859460
    H            3.868738047773    -1.233865465239     0.212011451390
    H            3.245289531942     0.377729502452     0.594102777576

  Mulliken Charges: (a.u.)
   Center  Symbol    Alpha    Beta     Spin     Total
       1     O     4.20020  4.20020  0.00000 -0.40039
       2     C     2.80397  2.80397  0.00000  0.39206
       3     C     3.10925  3.10925  0.00000 -0.21851
       4     O     4.14586  4.14586  0.00000 -0.29171
       5     C     3.08880  3.08880  0.00000 -0.17761
       6     H     0.43417  0.43417  0.00000  0.13166
       7     H     0.43779  0.43779  0.00000  0.12442
       8     C     3.08598  3.08598  0.00000 -0.17197
       9     H     0.44737  0.44737  0.00000  0.10526
      10     H     0.44558  0.44558  0.00000  0.10885
      11     C     3.15099  3.15099  0.00000 -0.30198
      12     H     0.45715  0.45715  0.00000  0.08571
      13     H     0.44524  0.44524  0.00000  0.10952
      14     H     0.45675  0.45675  0.00000  0.08650
      15     H     0.44835  0.44835  0.00000  0.10329
      16     H     0.45223  0.45223  0.00000  0.09555
      17     C     3.03644  3.03644  0.00000 -0.07288
      18     H     0.45440  0.45440  0.00000  0.09120
      19     H     0.44527  0.44527  0.00000  0.10947
      20     H     0.45421  0.45421  0.00000  0.09157

   Total alpha = 32.00000, Total beta = 32.00000, Total charge = -0.00000

*** Psi4 exiting successfully. Buy a developer a beer!
