  ==> Input File <==

--------------------------------------------------------------------------
set {
	reference rhf
	basis cc-pvtz
}

set_num_threads( 4 )
memory 2 gb

molecule MOL {
0 1

H	 2.867672	 -0.456275	 0.875795
C	 2.403497	 -0.020426	 0.000000
N	 0.989899	 -0.304564	 0.000000
H	 2.867672	 -0.456275	 -0.875795
H	 2.620366	 1.051270	 0.000000
C	 0.401572	 -0.185759	 1.318076
C	 0.685001	 -1.595831	 -0.580719
H	 0.852441	 -0.891945	 2.022180
H	 0.577453	 0.813858	 1.698285
C	 -1.091736	 -0.440945	 1.246287
H	 1.068843	 -1.630830	 -1.593718
H	 1.157188	 -2.408076	 -0.019433
C	 -0.815590	 -1.814787	 -0.603720
H	 -1.523895	 -0.445163	 2.237170
H	 -1.567707	 0.346713	 0.665644
O	 -1.364044	 -1.685938	 0.674459
H	 -1.048139	 -2.812069	 -0.950093
H	 -1.277270	 -1.098221	 -1.280096

	symmetry c1
}
set optking {
	frozen_dihedral = ("
		6 3 2 5
	")
}

ee = optimize('scf')
oeprop('DIPOLE', 'QUADRUPOLE', 'MULLIKEN_CHARGES')
f=open( 'psi4out.xyz', 'w' )
f.write( "18  " )
f.write( str(ee) + "\n" )
f.write( MOL.save_string_xyz() )
f.close()
--------------------------------------------------------------------------

    Molecular point group: c1
  Charge       = 0
  Multiplicity = 1
  Basis Set: CC-PVTZ
  Basis Set:
  @DF-RHF Final Energy:  -325.14326391016584
    Total Energy =                       -325.1432639101661266
    Molecular point group: c1
  Basis Set: CC-PVTZ
  Basis Set:
  Basis Set: CC-PVTZ
  Basis Set:
  @DF-RHF Final Energy:  -325.14400972059963
    Total Energy =                       -325.1440097205996267
  Basis Set: CC-PVTZ
  Basis Set:
  Basis Set: CC-PVTZ
  Basis Set:
  @DF-RHF Final Energy:  -325.14408484303931
    Total Energy =                       -325.1440848430390815
  Basis Set: CC-PVTZ
  Basis Set:
  Charge       = 0
  Multiplicity = 1
  Basis Set: CC-PVTZ
  Basis Set:

    Orbital Energies (a.u.)
    -----------------------

    Doubly Occupied:

       1A    -20.547440     2A    -15.544818     3A    -11.264213
       4A    -11.264180     5A    -11.242547     6A    -11.242398
       7A    -11.238951     8A     -1.386446     9A     -1.233243
      10A     -1.038772    11A     -0.981876    12A     -0.883469
      13A     -0.869844    14A     -0.775187    15A     -0.685004
      16A     -0.646175    17A     -0.644736    18A     -0.633484
      19A     -0.631620    20A     -0.574212    21A     -0.556346
      22A     -0.544143    23A     -0.526072    24A     -0.501203
      25A     -0.483356    26A     -0.453770    27A     -0.410484
      28A     -0.357034

  @DF-RHF Final Energy:  -325.14408644428767

   => Energetics <=

    Nuclear Repulsion Energy =            341.8592118795912143
    One-Electron Energy =               -1119.6845501222330768
    Two-Electron Energy =                 452.6812517983539692
    DFT Exchange-Correlation Energy =       0.0000000000000000
    Empirical Dispersion Energy =           0.0000000000000000
    PCM Polarization Energy =               0.0000000000000000
    EFP Energy =                            0.0000000000000000
    Total Energy =                       -325.1440864442879501
    Molecular point group: c1
  Basis Set: CC-PVTZ
  Basis Set:

  -Total Gradient:
     Atom            X                  Y                   Z
    ------   -----------------  -----------------  -----------------
       1        0.000033867415    -0.000026647253     0.000037007644
       2        0.000113264070    -0.001174176585     0.005671265338
       3       -0.000759331572     0.004246313134    -0.001770204357
       4        0.000000875854     0.000002622641     0.000001949421
       5        0.000037299499     0.000016605362    -0.004368879736
       6        0.000649478866    -0.003104160977     0.000432885500
       7        0.000003666331     0.000128425092    -0.000078564813
       8        0.000017277850    -0.000006714197    -0.000009635490
       9       -0.000008938728     0.000007492564     0.000052106575
      10       -0.000040861308     0.000008224787    -0.000001014002
      11        0.000004531338    -0.000039372949    -0.000012147916
      12       -0.000015813708     0.000009030735     0.000005210689
      13       -0.000006104507    -0.000042306786    -0.000020174046
      14       -0.000011212658    -0.000020508224    -0.000006151472
      15       -0.000002019015     0.000012610666     0.000006015560
      16       -0.000010296257    -0.000006487118     0.000046511488
      17       -0.000021570167    -0.000007919383     0.000006323825
      18        0.000015886698    -0.000003031510     0.000007495791

  **** Optimization is complete! (in 4 steps) ****
    Final optimized geometry and variables:
    Molecular point group: c1

    Geometry (in Angstrom), charge = 0, multiplicity = 1:

    H            2.751333031407     0.391154620700     0.559619816826
    C            2.235746405027     0.847275635179    -0.286778447392
    N            0.817334623992     0.566501709189    -0.304265791072
    H            2.691766449735     0.469756915108    -1.193456237424
    H            2.407932087568     1.917135041688    -0.276658420859
    C            0.226467554368     0.680140226500     1.014395385228
    C            0.511374757153    -0.733558537497    -0.870485750090
    H            0.674076139752    -0.035096234598     1.710652834136
    H            0.410007390708     1.675212940261     1.404721595115
    C           -1.268443706433     0.435799340385     0.943013913370
    H            0.897172580382    -0.782705959034    -1.881768803840
    H            0.975703061613    -1.542304308433    -0.297851270621
    C           -0.990374242743    -0.946045479923    -0.900006497392
    H           -1.700086989027     0.435431591336     1.934247569409
    H           -1.739464880071     1.226185650358     0.361994826916
    O           -1.547951613993    -0.808292984304     0.373150616372
    H           -1.224922319256    -1.943994340947    -1.243454616790
    H           -1.443387745329    -0.230662655201    -1.583610350034

  Mulliken Charges: (a.u.)
   Center  Symbol    Alpha    Beta     Spin     Total
       1     H     0.46704  0.46704  0.00000  0.06593
       2     C     3.09460  3.09460  0.00000 -0.18919
       3     N     3.61867  3.61867  0.00000 -0.23735
       4     H     0.45430  0.45430  0.00000  0.09140
       5     H     0.44917  0.44917  0.00000  0.10166
       6     C     3.04224  3.04224  0.00000 -0.08448
       7     C     3.03966  3.03966  0.00000 -0.07933
       8     H     0.46773  0.46773  0.00000  0.06453
       9     H     0.45402  0.45402  0.00000  0.09195
      10     C     2.98359  2.98359  0.00000  0.03282
      11     H     0.45392  0.45392  0.00000  0.09217
      12     H     0.46954  0.46954  0.00000  0.06092
      13     C     2.98418  2.98418  0.00000  0.03164
      14     H     0.44991  0.44991  0.00000  0.10019
      15     H     0.46750  0.46750  0.00000  0.06501
      16     O     4.18648  4.18648  0.00000 -0.37295
      17     H     0.44978  0.44978  0.00000  0.10043
      18     H     0.46768  0.46768  0.00000  0.06464

   Total alpha = 28.00000, Total beta = 28.00000, Total charge =  0.00000
