  ==> Input File <==

--------------------------------------------------------------------------
set {
	reference rhf
	basis cc-pvtz
}

set_num_threads( 4 )
memory 2 gb

molecule MOL {
0 1

H	 -2.498963	 -0.741158	 -0.729149
O	 -2.346257	 -0.289210	 0.080372
C	 -1.183935	 0.486039	 -0.009831
C	 0.062853	 -0.375310	 0.027457
H	 -1.178881	 1.094526	 -0.908634
H	 -1.184406	 1.155156	 0.838676
O	 -0.211446	 -1.569537	 -0.628312
H	 0.353335	 -0.565001	 1.062122
H	 0.884621	 0.153825	 -0.450339
C	 0.860260	 -2.451445	 -0.698349
H	 1.200710	 -2.742694	 0.292884
H	 0.528876	 -3.333973	 -1.225620
H	 1.698960	 -2.015557	 -1.236032

	symmetry c1
}
set optking {
	frozen_dihedral = ("
		8 4 3 5
	")
}

ee = optimize('scf')
oeprop('DIPOLE', 'QUADRUPOLE', 'MULLIKEN_CHARGES')
f=open( 'psi4out.xyz', 'w' )
f.write( "13  " )
f.write( str(ee) + "\n" )
f.write( MOL.save_string_xyz() )
f.close()
--------------------------------------------------------------------------

    Molecular point group: c1
  Charge       = 0
  Multiplicity = 1
  Basis Set: CC-PVTZ
  Basis Set:
  @DF-RHF Final Energy:  -268.05845104342183
    Total Energy =                       -268.0584510434216554
    Molecular point group: c1
  Basis Set: CC-PVTZ
  Basis Set:
  Basis Set: CC-PVTZ
  Basis Set:
  @DF-RHF Final Energy:  -268.06057794689832
    Total Energy =                       -268.0605779468982632
  Basis Set: CC-PVTZ
  Basis Set:
  Basis Set: CC-PVTZ
  Basis Set:
  @DF-RHF Final Energy:  -268.06127822848788
    Total Energy =                       -268.0612782284878790
  Basis Set: CC-PVTZ
  Basis Set:
  Basis Set: CC-PVTZ
  Basis Set:
  @DF-RHF Final Energy:  -268.06153568205377
    Total Energy =                       -268.0615356820540001
  Basis Set: CC-PVTZ
  Basis Set:
  Basis Set: CC-PVTZ
  Basis Set:
  @DF-RHF Final Energy:  -268.06170599667053
    Total Energy =                       -268.0617059966708666
  Basis Set: CC-PVTZ
  Basis Set:
  Basis Set: CC-PVTZ
  Basis Set:
  @DF-RHF Final Energy:  -268.06180209069521
    Total Energy =                       -268.0618020906948686
  Basis Set: CC-PVTZ
  Basis Set:
  Basis Set: CC-PVTZ
  Basis Set:
  @DF-RHF Final Energy:  -268.06182510231667
    Total Energy =                       -268.0618251023166749
  Basis Set: CC-PVTZ
  Basis Set:
  Charge       = 0
  Multiplicity = 1
  Basis Set: CC-PVTZ
  Basis Set:

    Orbital Energies (a.u.)
    -----------------------

    Doubly Occupied:

       1A    -20.564581     2A    -20.540377     3A    -11.274273
       4A    -11.273518     5A    -11.266908     6A     -1.401901
       7A     -1.358094     8A     -1.020320     9A     -0.926048
      10A     -0.836532    11A     -0.703983    12A     -0.684739
      13A     -0.671969    14A     -0.636610    15A     -0.590660
      16A     -0.580037    17A     -0.546728    18A     -0.497342
      19A     -0.480198    20A     -0.442231    21A     -0.423435

  @DF-RHF Final Energy:  -268.06182520779919

   => Energetics <=

    Nuclear Repulsion Energy =            195.0433763332194985
    One-Electron Energy =                -752.7694406238680358
    Two-Electron Energy =                 289.6642390828492921
    DFT Exchange-Correlation Energy =       0.0000000000000000
    Empirical Dispersion Energy =           0.0000000000000000
    PCM Polarization Energy =               0.0000000000000000
    EFP Energy =                            0.0000000000000000
    Total Energy =                       -268.0618252077992452
    Molecular point group: c1
  Basis Set: CC-PVTZ
  Basis Set:

  -Total Gradient:
     Atom            X                  Y                   Z
    ------   -----------------  -----------------  -----------------
       1       -0.000007125789     0.000000433742     0.000001160025
       2        0.000016025393     0.000004735925    -0.000013430515
       3       -0.003225432803    -0.004755274392    -0.004492821685
       4       -0.004413029289    -0.006040240244     0.000711673270
       5        0.003438587399     0.005020929348     0.003661265938
       6       -0.000003468242     0.000004542405    -0.000002002604
       7        0.000004596481    -0.000019158865    -0.000006784746
       8        0.004195422529     0.005791284823     0.000138983698
       9       -0.000002089229    -0.000002321999     0.000003158666
      10        0.000003760563    -0.000010799820    -0.000002492585
      11       -0.000000535654     0.000001051889     0.000001135640
      12       -0.000000891159    -0.000000330442    -0.000000555097
      13       -0.000005820198     0.000005147631     0.000000709994

  **** Optimization is complete! (in 8 steps) ****
    Final optimized geometry and variables:
    Molecular point group: c1

    Geometry (in Angstrom), charge = 0, multiplicity = 1:

    H           -1.731169712077    -0.139013750534    -0.203030836667
    O           -1.794432490594     0.631424002495     0.334025168109
    C           -0.601527460544     1.338775994320     0.237015271921
    C            0.630065649441     0.445024379421     0.305403357342
    H           -0.558207594487     1.959935586686    -0.654356651598
    H           -0.568543426386     2.024809937771     1.075077546628
    O            0.393564299776    -0.714875637756    -0.424757656954
    H            0.896088673376     0.227932634288     1.337931003237
    H            1.476220606671     0.988489105312    -0.114941143119
    C            1.445673248284    -1.624944646378    -0.431580537101
    H            1.685724595664    -1.957444268358     0.574919611052
    H            1.140893013692    -2.478546432039    -1.018843016717
    H            2.338605590761    -1.193192733315    -0.876496246906

  Mulliken Charges: (a.u.)
   Center  Symbol    Alpha    Beta     Spin     Total
       1     H     0.38375  0.38375  0.00000  0.23250
       2     O     4.20629  4.20629  0.00000 -0.41259
       3     C     2.95871  2.95871  0.00000  0.08258
       4     C     2.96964  2.96964  0.00000  0.06072
       5     H     0.47473  0.47473  0.00000  0.05054
       6     H     0.46426  0.46426  0.00000  0.07149
       7     O     4.18324  4.18324  0.00000 -0.36648
       8     H     0.47265  0.47265  0.00000  0.05470
       9     H     0.47421  0.47421  0.00000  0.05157
      10     C     3.02989  3.02989  0.00000 -0.05978
      11     H     0.46793  0.46793  0.00000  0.06413
      12     H     0.44618  0.44618  0.00000  0.10764
      13     H     0.46851  0.46851  0.00000  0.06298

   Total alpha = 21.00000, Total beta = 21.00000, Total charge =  0.00000
