  ==> Input File <==

--------------------------------------------------------------------------
set {
	reference rhf
	basis 6-31G*
}

set_num_threads( 4 )
memory 2 gb

molecule MOL {
0 1

H	 -1.362316	 1.360203	 -0.000000
C	 -0.790252	 0.431209	 0.000000
N	 0.538815	 0.649616	 0.000000
O	 -1.322562	 -0.639237	 -0.000000
C	 1.521968	 -0.411503	 0.000000
H	 0.852804	 1.592852	 0.000000
H	 2.150599	 -0.357004	 -0.881901
H	 0.999455	 -1.354525	 0.000000
H	 2.150599	 -0.357004	 0.881901

	symmetry c1
}
set optking {
	frozen_dihedral = ("
		1 2 3 6
	")
}

ee = optimize('scf')
oeprop('DIPOLE', 'QUADRUPOLE', 'MULLIKEN_CHARGES')
f=open( 'psi4out.xyz', 'w' )
f.write( "9  " )
f.write( str(ee) + "\n" )
f.write( MOL.save_string_xyz() )
f.close()
--------------------------------------------------------------------------

    Molecular point group: c1
  Charge       = 0
  Multiplicity = 1
  Basis Set: 6-31G*
  Basis Set:

    Orbital Energies (a.u.)
    -----------------------

    Doubly Occupied:

       1A    -20.525168     2A    -15.591259     3A    -11.344428
       4A    -11.260143     5A     -1.388826     6A     -1.236626
       7A     -0.968839     8A     -0.807257     9A     -0.746538
      10A     -0.641679    11A     -0.626083    12A     -0.593577
      13A     -0.553780    14A     -0.537904    15A     -0.423555
      16A     -0.390305

  @DF-RHF Final Energy:  -207.96097104104228

   => Energetics <=

    Nuclear Repulsion Energy =            122.4463069225847249
    One-Electron Energy =                -525.5426199215082761
    Two-Electron Energy =                 195.1353419578812236
    DFT Exchange-Correlation Energy =       0.0000000000000000
    Empirical Dispersion Energy =           0.0000000000000000
    PCM Polarization Energy =               0.0000000000000000
    EFP Energy =                            0.0000000000000000
    Total Energy =                       -207.9609710410423418
    Molecular point group: c1
  Basis Set: 6-31G*
  Basis Set:

  -Total Gradient:
     Atom            X                  Y                   Z
    ------   -----------------  -----------------  -----------------
       1       -0.000007281030     0.000008575596    -0.000000000001
       2       -0.000076591364    -0.000022445780    -0.000000000020
       3       -0.000122153343     0.000003948581    -0.000000000006
       4        0.000114973752     0.000100679057     0.000000000003
       5        0.000087954825    -0.000046833230     0.000000000070
       6       -0.000029332966     0.000011772463    -0.000000000003
       7        0.000007815985    -0.000028298372     0.000003930331
       8        0.000016798146     0.000000900059    -0.000000000004
       9        0.000007815996    -0.000028298374    -0.000003930369

  **** Optimization is complete! (in 1 steps) ****
    Final optimized geometry and variables:
    Molecular point group: c1

    Geometry (in Angstrom), charge = 0, multiplicity = 1:

    H           -1.362316404539     1.360203083015     0.000000000000
    C           -0.790252404539     0.431209083015     0.000000000000
    N            0.538814595461     0.649616083015     0.000000000000
    O           -1.322562404539    -0.639236916985     0.000000000000
    C            1.521967595461    -0.411502916985     0.000000000000
    H            0.852803595461     1.592852083015     0.000000000000
    H            2.150598595461    -0.357003916985    -0.881901000000
    H            0.999454595461    -1.354524916985     0.000000000000
    H            2.150598595461    -0.357003916985     0.881901000000

  Mulliken Charges: (a.u.)
   Center  Symbol    Alpha    Beta     Spin     Total
       1     H     0.42760  0.42760  0.00000  0.14480
       2     C     2.74438  2.74438  0.00000  0.51125
       3     N     3.87517  3.87517  0.00000 -0.75033
       4     O     4.28472  4.28472  0.00000 -0.56943
       5     C     3.14491  3.14491  0.00000 -0.28982
       6     H     0.30958  0.30958  0.00000  0.38085
       7     H     0.41402  0.41402  0.00000  0.17197
       8     H     0.38562  0.38562  0.00000  0.22876
       9     H     0.41402  0.41402  0.00000  0.17197

   Total alpha = 16.00000, Total beta = 16.00000, Total charge = -0.00000
