  ==> Input File <==

--------------------------------------------------------------------------
set {
	reference rhf
	basis cc-pvtz
}

set_num_threads( 4 )
memory 2 gb

molecule MOL {
0 1

H	 -1.088256	 -1.364742	 0.152233
O	 -1.432053	 -0.565244	 -0.200812
C	 -0.727158	 0.534527	 0.310686
C	 0.680222	 0.664433	 -0.252229
H	 -1.306802	 1.408001	 0.044211
H	 -0.690821	 0.490158	 1.397609
C	 1.749420	 -0.024590	 0.590451
H	 0.689361	 0.259385	 -1.258750
H	 0.911734	 1.722872	 -0.334440
H	 1.584669	 -1.095091	 0.645319
H	 2.734663	 0.125412	 0.165776
H	 1.764538	 0.366262	 1.603349

	symmetry c1
}
set optking {
	frozen_dihedral = ("
		8 4 3 2
	")
}

ee = optimize('scf')
oeprop('DIPOLE', 'QUADRUPOLE', 'MULLIKEN_CHARGES')
f=open( 'psi4out.xyz', 'w' )
f.write( "12  " )
f.write( str(ee) + "\n" )
f.write( MOL.save_string_xyz() )
f.close()
--------------------------------------------------------------------------

    Molecular point group: c1
  Charge       = 0
  Multiplicity = 1
  Basis Set: CC-PVTZ
  Basis Set:
  @DF-RHF Final Energy:  -193.18748203744750
    Total Energy =                       -193.1874820374474666
    Molecular point group: c1
  Basis Set: CC-PVTZ
  Basis Set:
  Basis Set: CC-PVTZ
  Basis Set:
  @DF-RHF Final Energy:  -193.18780599328213
    Total Energy =                       -193.1878059932820975
  Basis Set: CC-PVTZ
  Basis Set:
  Basis Set: CC-PVTZ
  Basis Set:
  @DF-RHF Final Energy:  -193.18785858919543
    Total Energy =                       -193.1878585891954856
  Basis Set: CC-PVTZ
  Basis Set:
  Basis Set: CC-PVTZ
  Basis Set:
  @DF-RHF Final Energy:  -193.18785994180504
    Total Energy =                       -193.1878599418048736
  Basis Set: CC-PVTZ
  Basis Set:
  Charge       = 0
  Multiplicity = 1
  Basis Set: CC-PVTZ
  Basis Set:

    Orbital Energies (a.u.)
    -----------------------

    Doubly Occupied:

       1A    -20.546411     2A    -11.265734     3A    -11.216512
       4A    -11.214946     5A     -1.363714     6A     -1.051471
       7A     -0.924708     8A     -0.813925     9A     -0.697111
      10A     -0.640702    11A     -0.594494    12A     -0.585915
      13A     -0.552624    14A     -0.510231    15A     -0.489350
      16A     -0.467460    17A     -0.433465

  @DF-RHF Final Energy:  -193.18786013152976

   => Energetics <=

    Nuclear Repulsion Energy =            132.2920932944177821
    One-Electron Energy =                -524.2223632736496484
    Two-Electron Energy =                 198.7424098477019925
    DFT Exchange-Correlation Energy =       0.0000000000000000
    Empirical Dispersion Energy =           0.0000000000000000
    PCM Polarization Energy =               0.0000000000000000
    EFP Energy =                            0.0000000000000000
    Total Energy =                       -193.1878601315298738
    Molecular point group: c1
  Basis Set: CC-PVTZ
  Basis Set:

  -Total Gradient:
     Atom            X                  Y                   Z
    ------   -----------------  -----------------  -----------------
       1       -0.000004822559     0.000017249535     0.000003717672
       2       -0.001380447146     0.002100433157    -0.002881503931
       3        0.002144966205    -0.003840891659     0.004297772918
       4       -0.001940548775     0.006110947603    -0.003270203193
       5        0.000004133389     0.000017725370     0.000010217738
       6        0.000008654379    -0.000010911935    -0.000018367577
       7       -0.000004121452    -0.000036166827    -0.000013555386
       8        0.001187416478    -0.004343757351     0.001842128002
       9       -0.000012990056    -0.000009748243     0.000022381577
      10        0.000006075126    -0.000008915200    -0.000000512622
      11       -0.000005461044    -0.000005373703     0.000005172224
      12       -0.000002854543     0.000009409252     0.000002752578

  **** Optimization is complete! (in 5 steps) ****
    Final optimized geometry and variables:
    Molecular point group: c1

    Geometry (in Angstrom), charge = 0, multiplicity = 1:

    H           -1.062105680962    -1.491263854480     0.012600825509
    O           -1.448157131379    -0.699333110832    -0.314543682190
    C           -0.772926337893     0.420592787042     0.196201531075
    C            0.640908503999     0.576184969068    -0.363082896658
    H           -1.377004491447     1.269086924793    -0.094821921242
    H           -0.754229619718     0.397232569796     1.283189918518
    C            1.703274052719    -0.145612123188     0.465426301201
    H            0.644717426284     0.160088472800    -1.364061383240
    H            0.891707909584     1.628765956924    -0.433998054462
    H            1.485489881625    -1.206137507491     0.552241794363
    H            2.683612340887    -0.054567371493     0.012801301078
    H            1.762438194727     0.261035398929     1.469360611756

  Mulliken Charges: (a.u.)
   Center  Symbol    Alpha    Beta     Spin     Total
       1     H     0.39422  0.39422  0.00000  0.21155
       2     O     4.20293  4.20293  0.00000 -0.40586
       3     C     2.97067  2.97067  0.00000  0.05866
       4     C     3.09374  3.09374  0.00000 -0.18748
       5     H     0.45150  0.45150  0.00000  0.09700
       6     H     0.47281  0.47281  0.00000  0.05438
       7     C     3.14918  3.14918  0.00000 -0.29836
       8     H     0.44853  0.44853  0.00000  0.10293
       9     H     0.45405  0.45405  0.00000  0.09189
      10     H     0.46154  0.46154  0.00000  0.07692
      11     H     0.44637  0.44637  0.00000  0.10727
      12     H     0.45445  0.45445  0.00000  0.09111

   Total alpha = 17.00000, Total beta = 17.00000, Total charge = -0.00000
