  ==> Input File <==

--------------------------------------------------------------------------
set {
	reference rhf
	basis 6-31G*
}

set_num_threads( 4 )
memory 2 gb

molecule MOL {
0 1

H	 0.561383	 -1.238472	 -0.770461
C	 0.579267	 -0.241104	 -1.227235
C	 0.065331	 0.871482	 -0.349150
O	 0.987299	 -0.098565	 -2.333992
C	 -1.339775	 0.583656	 0.198860
H	 0.087796	 1.794028	 -0.917759
H	 0.761049	 0.972972	 0.482618
C	 -1.808407	 -0.848507	 -0.061364
H	 -2.036183	 1.280685	 -0.256307
H	 -1.360094	 0.788874	 1.267089
H	 -1.828843	 -1.063152	 -1.125336
H	 -2.808409	 -1.004529	 0.329750
H	 -1.153967	 -1.577789	 0.406873

	symmetry c1
}
set optking {
	frozen_dihedral = ("
		6 3 5 9
	")
}

ee = optimize('scf')
oeprop('DIPOLE', 'QUADRUPOLE', 'MULLIKEN_CHARGES')
f=open( 'psi4out.xyz', 'w' )
f.write( "13  " )
f.write( str(ee) + "\n" )
f.write( MOL.save_string_xyz() )
f.close()
--------------------------------------------------------------------------

    Molecular point group: c1
  Charge       = 0
  Multiplicity = 1
  Basis Set: 6-31G*
  Basis Set:
  @DF-RHF Final Energy:  -230.97387703852422
    Total Energy =                       -230.9738770385243924
    Molecular point group: c1
  Basis Set: 6-31G*
  Basis Set:
  Basis Set: 6-31G*
  Basis Set:
  @DF-RHF Final Energy:  -230.97425862320659
    Total Energy =                       -230.9742586232067652
  Basis Set: 6-31G*
  Basis Set:
  Basis Set: 6-31G*
  Basis Set:
  @DF-RHF Final Energy:  -230.97638878830188
    Total Energy =                       -230.9763887883018754
  Basis Set: 6-31G*
  Basis Set:
  Basis Set: 6-31G*
  Basis Set:
  @DF-RHF Final Energy:  -230.97585667422013
    Total Energy =                       -230.9758566742200969
  Basis Set: 6-31G*
  Basis Set:
  @DF-RHF Final Energy:  -230.97632785138623
    Total Energy =                       -230.9763278513861451
  Basis Set: 6-31G*
  Basis Set:
  @DF-RHF Final Energy:  -230.97692235328799
    Total Energy =                       -230.9769223532878755
  Basis Set: 6-31G*
  Basis Set:
  Basis Set: 6-31G*
  Basis Set:
  @DF-RHF Final Energy:  -230.97693533769308
    Total Energy =                       -230.9769353376930212
  Basis Set: 6-31G*
  Basis Set:
  Basis Set: 6-31G*
  Basis Set:
  @DF-RHF Final Energy:  -230.97694846626825
    Total Energy =                       -230.9769484662682544
  Basis Set: 6-31G*
  Basis Set:
  Charge       = 0
  Multiplicity = 1
  Basis Set: 6-31G*
  Basis Set:

    Orbital Energies (a.u.)
    -----------------------

    Doubly Occupied:

       1A    -20.561853     2A    -11.325818     3A    -11.238947
       4A    -11.235156     5A    -11.225251     6A     -1.401678
       7A     -1.081190     8A     -0.973568     9A     -0.858344
      10A     -0.775957    11A     -0.676110    12A     -0.636386
      13A     -0.623121    14A     -0.602417    15A     -0.559389
      16A     -0.529414    17A     -0.517264    18A     -0.486675
      19A     -0.477825    20A     -0.408456

  @DF-RHF Final Energy:  -230.97695209580479

   => Energetics <=

    Nuclear Repulsion Energy =            174.0125163512014979
    One-Electron Energy =                -657.5892991199273183
    Two-Electron Energy =                 252.5998306729209446
    DFT Exchange-Correlation Energy =       0.0000000000000000
    Empirical Dispersion Energy =           0.0000000000000000
    PCM Polarization Energy =               0.0000000000000000
    EFP Energy =                            0.0000000000000000
    Total Energy =                       -230.9769520958048759
    Molecular point group: c1
  Basis Set: 6-31G*
  Basis Set:

  -Total Gradient:
     Atom            X                  Y                   Z
    ------   -----------------  -----------------  -----------------
       1       -0.000004135763     0.000012884746     0.000011099664
       2       -0.000012230586    -0.000034819709    -0.000092674992
       3        0.000932034954     0.002374883604     0.003772721764
       4       -0.000010311617    -0.000003758783     0.000092070385
       5       -0.000666535827    -0.002758891770    -0.003466377241
       6       -0.000617241208    -0.001528606035    -0.002587995907
       7       -0.000006168362     0.000007267628    -0.000034885512
       8       -0.000011259467    -0.000001360049     0.000005978898
       9        0.000401584665     0.001943715576     0.002294662967
      10        0.000000813555    -0.000004295298    -0.000001122140
      11       -0.000002214605     0.000016433748    -0.000002558348
      12       -0.000000798357    -0.000014554496     0.000009624740
      13       -0.000003537384    -0.000008899163    -0.000000544272

  **** Optimization is complete! (in 9 steps) ****
    Final optimized geometry and variables:
    Molecular point group: c1

    Geometry (in Angstrom), charge = 0, multiplicity = 1:

    H            1.191801020265    -1.231187189547    -0.018568593258
    C            0.979782637949    -0.258202125844    -0.472451800744
    C            0.420433210670     0.797430973957     0.452346209855
    O            1.204925833950    -0.080506035103    -1.626248419836
    C           -1.023168473268     0.513878834002     0.957934091153
    H            0.449664170547     1.726779120453    -0.102003168258
    H            1.100586017447     0.878085458931     1.296261548502
    C           -1.553365277261    -0.906491132224     0.745408411719
    H           -1.695687031909     1.222101333927     0.486839248595
    H           -1.065005041190     0.741486022779     2.018206105715
    H           -1.576030916285    -1.176801466830    -0.305843340641
    H           -2.567110703147    -0.982534114328     1.123759211978
    H           -0.955049158029    -1.645978108245     1.269078004521

  Mulliken Charges: (a.u.)
   Center  Symbol    Alpha    Beta     Spin     Total
       1     H     0.42980  0.42980  0.00000  0.14041
       2     C     2.83655  2.83655  0.00000  0.32690
       3     C     3.21062  3.21062  0.00000 -0.42124
       4     O     4.23663  4.23663  0.00000 -0.47325
       5     C     3.15817  3.15817  0.00000 -0.31633
       6     H     0.39726  0.39726  0.00000  0.20548
       7     H     0.41016  0.41016  0.00000  0.17969
       8     C     3.25279  3.25279  0.00000 -0.50558
       9     H     0.40986  0.40986  0.00000  0.18027
      10     H     0.41450  0.41450  0.00000  0.17101
      11     H     0.41230  0.41230  0.00000  0.17539
      12     H     0.41223  0.41223  0.00000  0.17554
      13     H     0.41915  0.41915  0.00000  0.16171

   Total alpha = 20.00000, Total beta = 20.00000, Total charge = -0.00000
