                              Psi4 1.0.54 Driver

  ==> Input File <==

--------------------------------------------------------------------------
set {
	reference rhf
	basis cc-pvtz
}

set_num_threads( 4 )
memory 2 gb

molecule MOL {
0 1

O	 -2.070035	 -0.355750	 2.078569
C	 -1.020679	 0.194812	 2.163212
C	 0.239115	 -0.432523	 1.599814
C	 -0.887996	 1.550325	 2.815707
C	 0.376695	 -0.140025	 0.100361
H	 0.171177	 -1.501591	 1.756623
H	 1.111761	 -0.064644	 2.128983
C	 1.630207	 -0.772146	 -0.501001
H	 -0.510588	 -0.506916	 -0.399987
H	 0.406235	 0.934679	 -0.062232
C	 2.907848	 -0.545876	 0.309149
H	 1.772784	 -0.391628	 -1.509394
H	 1.468529	 -1.842059	 -0.599744
C	 3.373802	 0.906639	 0.372125
H	 3.699140	 -1.146831	 -0.127906
H	 2.764321	 -0.923458	 1.318191
H	 3.519798	 1.311927	 -0.623875
H	 4.316899	 0.983758	 0.900700
H	 2.661122	 1.540651	 0.885346
H	 -0.319513	 1.449720	 3.734784
H	 -1.864065	 1.953242	 3.038228
H	 -0.341257	 2.232271	 2.174134

	symmetry c1
}
set optking {
	frozen_dihedral = ("
		3 5 8 12
	")
}

ee,wfn = optimize('scf', return_wfn=True)
oeprop( wfn, 'DIPOLE', 'QUADRUPOLE', 'MULLIKEN_CHARGES')
f=open( 'psi4out.xyz', 'w' )
f.write( "22  " )
f.write( str(ee) + "\n" )
f.write( MOL.save_string_xyz() )
f.close()
--------------------------------------------------------------------------

    Molecular point group: c1
  Charge       = 0
  Multiplicity = 1
  Basis Set: CC-PVTZ
  Basis Set:
  @DF-RHF Final Energy:  -348.21926654973487
    Total Energy =                       -348.2192665497345274
    Molecular point group: c1
  Basis Set: CC-PVTZ
  Basis Set:
  Basis Set: CC-PVTZ
  Basis Set:
  @DF-RHF Final Energy:  -348.19458002087424
    Total Energy =                       -348.1945800208740138
  Basis Set: CC-PVTZ
  Basis Set:
  Basis Set: CC-PVTZ
  Basis Set:
  @DF-RHF Final Energy:  -348.21977027826199
    Total Energy =                       -348.2197702782619899
  Basis Set: CC-PVTZ
  Basis Set:
  Basis Set: CC-PVTZ
  Basis Set:
  @DF-RHF Final Energy:  -348.22079267785426
    Total Energy =                       -348.2207926778542628
  Basis Set: CC-PVTZ
  Basis Set:
  @DF-RHF Final Energy:  -348.21869963735304
    Total Energy =                       -348.2186996373528700
  @DF-RHF Final Energy:  -348.22033574403684
    Total Energy =                       -348.2203357440373566
  @DF-RHF Final Energy:  -348.22055901196740
    Total Energy =                       -348.2205590119672820
  @DF-RHF Final Energy:  -348.21903981157811
    Total Energy =                       -348.2190398115786820
  Basis Set: CC-PVTZ
  Basis Set:
  @DF-RHF Final Energy:  -348.22081048587518
    Total Energy =                       -348.2208104858758588
  Basis Set: CC-PVTZ
  Basis Set:
  Basis Set: CC-PVTZ
  Basis Set:
  @DF-RHF Final Energy:  -348.22088344754877
    Total Energy =                       -348.2208834475493404
  Basis Set: CC-PVTZ
  Basis Set:
  Basis Set: CC-PVTZ
  Basis Set:
  @DF-RHF Final Energy:  -348.22092902877665
    Total Energy =                       -348.2209290287765953
  Basis Set: CC-PVTZ
  Basis Set:
  Charge       = 0
  Multiplicity = 1
  Basis Set: CC-PVTZ
  Basis Set:

    Orbital Energies (a.u.)
    -----------------------

    Doubly Occupied:

       1A    -20.536626     2A    -11.319267     3A    -11.228532
       4A    -11.227296     5A    -11.226967     6A    -11.221307
       7A    -11.220445     8A    -11.214475     9A     -1.396850
      10A     -1.098152    11A     -1.044148    12A     -0.999938
      13A     -0.943689    14A     -0.865724    15A     -0.778885
      16A     -0.735457    17A     -0.664423    18A     -0.655645
      19A     -0.623032    20A     -0.617559    21A     -0.607535
      22A     -0.574853    23A     -0.566863    24A     -0.552715
      25A     -0.533936    26A     -0.522698    27A     -0.511085
      28A     -0.491196    29A     -0.467950    30A     -0.463340
      31A     -0.459050    32A     -0.399432

  @DF-RHF Final Energy:  -348.22092986186556

   => Energetics <=

    Nuclear Repulsion Energy =            380.9961442311082465
    One-Electron Energy =               -1226.8960065533278794
    Two-Electron Energy =                 497.6789324603538489
    DFT Exchange-Correlation Energy =       0.0000000000000000
    Empirical Dispersion Energy =           0.0000000000000000
    PCM Polarization Energy =               0.0000000000000000
    EFP Energy =                            0.0000000000000000
    Total Energy =                       -348.2209298618657840
    Molecular point group: c1
  Basis Set: CC-PVTZ
  Basis Set:

  -Total Gradient:
     Atom            X                  Y                   Z
    ------   -----------------  -----------------  -----------------
       1        0.000041050262     0.000037913499    -0.000014310438
       2       -0.000052602210    -0.000023062397    -0.000001969389
       3        0.000371353037     0.002836990593     0.000191467390
       4       -0.000005295408    -0.000008947001     0.000047013904
       5       -0.000388883180    -0.003256531611    -0.000064969974
       6       -0.000009046058     0.000007421127     0.000007135747
       7       -0.000010152927    -0.000006717672    -0.000007693366
       8       -0.000674676981    -0.003301664967    -0.001029605458
       9        0.000005113054     0.000002115100     0.000010979131
      10        0.000001200421    -0.000002723235    -0.000009116197
      11       -0.000012171962    -0.000004337510     0.000044838532
      12        0.000685388346     0.003700455183     0.000863360389
      13       -0.000016118757     0.000006238637     0.000002993940
      14        0.000018394711     0.000000443163    -0.000012491289
      15       -0.000005631875     0.000019076545    -0.000001799705
      16        0.000025562514    -0.000005242372     0.000010209357
      17       -0.000006164433     0.000006307661    -0.000009774457
      18        0.000005786824     0.000001955016     0.000002215573
      19        0.000005483934    -0.000009582761     0.000005074956
      20       -0.000000921280     0.000007266700    -0.000012756854
      21        0.000020643349    -0.000002647083    -0.000006611911
      22        0.000001688618    -0.000004726613    -0.000014189880

  **** Optimization is complete! (in 12 steps) ****
    Final optimized geometry and variables:
    Molecular point group: c1

    Geometry (in Angstrom), charge = 0, multiplicity = 1:

    O           -2.288619308998    -1.427101586249     0.944525425007
    C           -1.648500315495    -0.426478559259     0.941136648891
    C           -0.169729338616    -0.443326590852     0.607119693527
    C           -2.272813971400     0.912998052007     1.253035341823
    C            0.041802130197    -0.374017518617    -0.911990714138
    H            0.240178430885    -1.368321637490     0.993930292094
    H            0.328733366472     0.382888705149     1.098009808510
    C            1.498212384577    -0.536389743314    -1.364082535903
    H           -0.552338436084    -1.150305350059    -1.379083088140
    H           -0.347120096008     0.570826360335    -1.280027024785
    C            2.536751006844     0.334180197340    -0.650377976579
    H            1.545456491753    -0.293397546291    -2.421904366667
    H            1.786282281727    -1.577518800519    -1.260763831819
    C            2.334317373769     1.835788616276    -0.837658789383
    H            3.515309839560     0.065445288242    -1.035462503716
    H            2.561902598735     0.098916125234     0.408557740132
    H            2.326664916399     2.098814236241    -1.890426844327
    H            3.133042746072     2.394906342303    -0.364322876842
    H            1.399625139706     2.178098290787    -0.408304647891
    H           -1.879596376995     1.278863912333     2.196142928546
    H           -3.345165528108     0.815554218819     1.323851089562
    H           -2.015236256071     1.642693555080     0.493612335076

  Mulliken Charges: (a.u.)
   Center  Symbol    Alpha    Beta     Spin     Total
       1     O     4.17696  4.17696  0.00000 -0.35392
       2     C     2.85702  2.85702  0.00000  0.28596
       3     C     3.10253  3.10253  0.00000 -0.20505
       4     C     3.15652  3.15652  0.00000 -0.31305
       5     C     3.11832  3.11832  0.00000 -0.23664
       6     H     0.43762  0.43762  0.00000  0.12476
       7     H     0.44670  0.44670  0.00000  0.10660
       8     C     3.09955  3.09955  0.00000 -0.19909
       9     H     0.43079  0.43079  0.00000  0.13842
      10     H     0.44823  0.44823  0.00000  0.10354
      11     C     3.10141  3.10141  0.00000 -0.20282
      12     H     0.44747  0.44747  0.00000  0.10505
      13     H     0.44346  0.44346  0.00000  0.11309
      14     C     3.15246  3.15246  0.00000 -0.30493
      15     H     0.44225  0.44225  0.00000  0.11549
      16     H     0.45072  0.45072  0.00000  0.09856
      17     H     0.45212  0.45212  0.00000  0.09577
      18     H     0.44447  0.44447  0.00000  0.11105
      19     H     0.45669  0.45669  0.00000  0.08662
      20     H     0.44854  0.44854  0.00000  0.10293
      21     H     0.43543  0.43543  0.00000  0.12913
      22     H     0.45074  0.45074  0.00000  0.09853

   Total alpha = 32.00000, Total beta = 32.00000, Total charge = -0.00000

*** Psi4 exiting successfully. Buy a developer a beer!
