  ==> Input File <==

--------------------------------------------------------------------------
set {
	reference rhf
	basis 6-31G*
}

set_num_threads( 1 )
memory 2 gb

molecule MOL {
0 1

H	 3.463771	 0.168298	 -0.756243
C	 2.752674	 -0.045734	 0.033351
C	 1.322923	 0.120767	 -0.479465
H	 2.934561	 -1.059086	 0.377456
H	 2.958358	 0.631174	 0.856809
C	 0.306652	 -0.176050	 0.621399
H	 1.144658	 -0.551717	 -1.312180
H	 1.166477	 1.131798	 -0.836680
N	 -1.068537	 -0.011044	 0.085269
H	 0.372515	 -1.192590	 0.973735
H	 0.391664	 0.520566	 1.441230
O	 -1.187437	 0.129098	 -1.092694
O	 -1.960329	 0.001923	 0.878089

	symmetry c1
}
set optking {
	frozen_dihedral = ("
		7 3 6 9
	")
}

ee = energy('scf')
oeprop('DIPOLE', 'QUADRUPOLE', 'MULLIKEN_CHARGES')
f=open( 'psi4out.xyz', 'w' )
f.write( "13  " )
f.write( str(ee) + "\n" )
f.write( MOL.save_string_xyz() )
f.close()
--------------------------------------------------------------------------

    Molecular point group: c1

    Geometry (in Angstrom), charge = 0, multiplicity = 1:

       Center              X                  Y                   Z               Mass
    ------------   -----------------  -----------------  -----------------  -----------------
           H          3.465958348099     0.164092300079    -0.763147270764     1.007825032070
           C          2.754861348099    -0.049939699921     0.026446729236    12.000000000000
           C          1.325110348099     0.116561300079    -0.486369270764    12.000000000000
           H          2.936748348099    -1.063291699921     0.370551729236     1.007825032070
           H          2.960545348099     0.626968300079     0.849904729236     1.007825032070
           C          0.308839348099    -0.180255699921     0.614494729236    12.000000000000
           H          1.146845348099    -0.555922699921    -1.319084270764     1.007825032070
           H          1.168664348099     1.127592300079    -0.843584270764     1.007825032070
           N         -1.066349651901    -0.015249699921     0.078364729236    14.003074004780
           H          0.374702348099    -1.196795699921     0.966830729236     1.007825032070
           H          0.393851348099     0.516360300079     1.434325729236     1.007825032070
           O         -1.185249651901     0.124892300079    -1.099598270764    15.994914619560
           O         -1.958141651901    -0.002282699921     0.871184729236    15.994914619560

  Charge       = 0
  Multiplicity = 1
  Basis Set: 6-31G*
  Basis Set:

    Orbital Energies (a.u.)
    -----------------------

    Doubly Occupied:

       1A    -20.603747     2A    -20.599690     3A    -15.848896
       4A    -11.300656     5A    -11.246849     6A    -11.234727
       7A     -1.632220     8A     -1.418019     9A     -1.133558
      10A     -1.025612    11A     -0.882603    12A     -0.822941
      13A     -0.762184    14A     -0.751833    15A     -0.726661
      16A     -0.655565    17A     -0.604778    18A     -0.579732
      19A     -0.550951    20A     -0.518515    21A     -0.509943
      22A     -0.484972    23A     -0.472563    24A     -0.448611

  @DF-RHF Final Energy:  -321.73309745528894

   => Energetics <=

    Nuclear Repulsion Energy =            248.2639945213953183
    One-Electron Energy =                -930.3625595541157054
    Two-Electron Energy =                 360.3654675774312182
    DFT Exchange-Correlation Energy =       0.0000000000000000
    Empirical Dispersion Energy =           0.0000000000000000
    PCM Polarization Energy =               0.0000000000000000
    EFP Energy =                            0.0000000000000000
    Total Energy =                       -321.7330974552892258

  Mulliken Charges: (a.u.)
   Center  Symbol    Alpha    Beta     Spin     Total
       1     H     0.40830  0.40830  0.00000  0.18340
       2     C     3.24875  3.24875  0.00000 -0.49750
       3     C     3.16536  3.16536  0.00000 -0.33073
       4     H     0.41760  0.41760  0.00000  0.16480
       5     H     0.41783  0.41783  0.00000  0.16433
       6     C     3.09155  3.09155  0.00000 -0.18310
       7     H     0.39875  0.39875  0.00000  0.20250
       8     H     0.40345  0.40345  0.00000  0.19311
       9     N     3.22275  3.22275  0.00000  0.55449
      10     H     0.38461  0.38461  0.00000  0.23078
      11     H     0.38498  0.38498  0.00000  0.23005
      12     O     4.22656  4.22656  0.00000 -0.45313
      13     O     4.22951  4.22951  0.00000 -0.45902

   Total alpha = 24.00000, Total beta = 24.00000, Total charge =  0.00000
