                              Psi4 1.0.54 Driver

  ==> Input File <==

--------------------------------------------------------------------------
set {
	reference rhf
	basis cc-pvtz
}

set_num_threads( 4 )
memory 2 gb

molecule MOL {
0 1

H	 -0.032687	 -0.422221	 0.753426
N	 -0.625934	 -0.663929	 -0.000707
C	 -1.978635	 -0.158664	 0.001017
C	 -0.122314	 -1.449340	 -0.978500
H	 -2.519057	 -0.493535	 -0.876362
H	 -1.938890	 0.917202	 -0.004137
H	 -2.514266	 -0.485137	 0.884506
C	 1.320194	 -1.858735	 -0.777535
O	 -0.753643	 -1.794309	 -1.933223
H	 1.429795	 -2.417275	 0.144756
H	 1.628421	 -2.472611	 -1.607727
H	 1.957721	 -0.984258	 -0.718649

	symmetry c1
}
set optking {
	frozen_dihedral = ("
		4 2 3 5
	")
}

ee,wfn = optimize('scf', return_wfn=True)
oeprop( wfn, 'DIPOLE', 'QUADRUPOLE', 'MULLIKEN_CHARGES')
f=open( 'psi4out.xyz', 'w' )
f.write( "12  " )
f.write( str(ee) + "\n" )
f.write( MOL.save_string_xyz() )
f.close()
--------------------------------------------------------------------------

    Molecular point group: c1
  Charge       = 0
  Multiplicity = 1
  Basis Set: CC-PVTZ
  Basis Set:
  @DF-RHF Final Energy:  -247.10044876169093
    Total Energy =                       -247.1004487616910978
    Molecular point group: c1
  Basis Set: CC-PVTZ
  Basis Set:
  Basis Set: CC-PVTZ
  Basis Set:
  @DF-RHF Final Energy:  -247.10088896317234
    Total Energy =                       -247.1008889631722241
  Basis Set: CC-PVTZ
  Basis Set:
  Basis Set: CC-PVTZ
  Basis Set:
  @DF-RHF Final Energy:  -247.10085269698172
    Total Energy =                       -247.1008526969815762
  Basis Set: CC-PVTZ
  Basis Set:
  Charge       = 0
  Multiplicity = 1
  Basis Set: CC-PVTZ
  Basis Set:

    Orbital Energies (a.u.)
    -----------------------

    Doubly Occupied:

       1A    -20.506604     2A    -15.574956     3A    -11.336918
       4A    -11.252401     5A    -11.228050     6A     -1.388425
       7A     -1.231121     8A     -1.016721     9A     -0.932858
      10A     -0.788297    11A     -0.690970    12A     -0.651723
      13A     -0.635383    14A     -0.586909    15A     -0.582923
      16A     -0.555535    17A     -0.544794    18A     -0.511420
      19A     -0.417213    20A     -0.389342

  @DF-RHF Final Energy:  -247.10098748150779

   => Energetics <=

    Nuclear Repulsion Energy =            181.6421308359036857
    One-Electron Energy =                -695.8411142182485492
    Two-Electron Energy =                 267.0979959008371907
    DFT Exchange-Correlation Energy =       0.0000000000000000
    Empirical Dispersion Energy =           0.0000000000000000
    PCM Polarization Energy =               0.0000000000000000
    EFP Energy =                            0.0000000000000000
    Total Energy =                       -247.1009874815076728
    Molecular point group: c1
  Basis Set: CC-PVTZ
  Basis Set:

  -Total Gradient:
     Atom            X                  Y                   Z
    ------   -----------------  -----------------  -----------------
       1       -0.000016408881     0.000061301817     0.000086870371
       2        0.000065173804    -0.000043593214    -0.000215736214
       3        0.000047701980    -0.000128825476     0.000040932213
       4       -0.000061358453     0.000135491827     0.000205928702
       5        0.000054153412    -0.000010649802     0.000047262219
       6        0.000070312584     0.000092737145    -0.000030536014
       7       -0.000112932624    -0.000029579541     0.000036384383
       8       -0.000020295585     0.000001444471    -0.000033806497
       9        0.000021689037    -0.000064938879    -0.000126147160
      10       -0.000014218931    -0.000015804790     0.000009507805
      11       -0.000008798233    -0.000016581694    -0.000012161965
      12       -0.000025018109     0.000018998135    -0.000008497846

  **** Optimization is complete! (in 4 steps) ****
    Final optimized geometry and variables:
    Molecular point group: c1

    Geometry (in Angstrom), charge = 0, multiplicity = 1:

    H            0.391232585427     0.750774159922     1.492472966376
    N           -0.193803037894     0.510089345081     0.731427228081
    C           -1.550135012006     1.005001020686     0.725600075891
    C            0.322857776197    -0.266437834289    -0.246657072988
    H           -2.037198506282     0.649075408223    -0.166171222598
    H           -1.567861717078     2.088560247637     0.725520879818
    H           -2.098328571130     0.648430190059     1.589743972177
    C            1.765334177452    -0.670875555491    -0.034443284337
    O           -0.299449465850    -0.612655290666    -1.206788332491
    H            1.868928302687    -1.232993519177     0.886441221626
    H            2.083476064230    -1.280008259983    -0.864494578569
    H            2.398447635663     0.206140775258     0.033805240863

  Mulliken Charges: (a.u.)
   Center  Symbol    Alpha    Beta     Spin     Total
       1     H     0.41026  0.41026  0.00000  0.17949
       2     N     3.62188  3.62188  0.00000 -0.24377
       3     C     3.08603  3.08603  0.00000 -0.17206
       4     C     2.83654  2.83654  0.00000  0.32693
       5     H     0.43100  0.43100  0.00000  0.13799
       6     H     0.45572  0.45572  0.00000  0.08855
       7     H     0.45572  0.45572  0.00000  0.08857
       8     C     3.15347  3.15347  0.00000 -0.30694
       9     O     4.21568  4.21568  0.00000 -0.43135
      10     H     0.45001  0.45001  0.00000  0.09999
      11     H     0.43352  0.43352  0.00000  0.13295
      12     H     0.45017  0.45017  0.00000  0.09965

   Total alpha = 20.00000, Total beta = 20.00000, Total charge = -0.00000

*** Psi4 exiting successfully. Buy a developer a beer!
