  ==> Input File <==

--------------------------------------------------------------------------
set {
	reference rhf
	basis 6-31G*
}

set_num_threads( 4 )
memory 2 gb

molecule MOL {
0 1

H	 -1.566105	 2.927257	 2.125056
O	 -1.318355	 2.109887	 1.717361
C	 -0.334399	 2.346852	 0.742248
C	 0.031547	 1.023609	 0.088541
H	 0.554909	 2.780341	 1.196239
H	 -0.695845	 3.054583	 -0.000432
C	 -1.134819	 0.293262	 -0.585751
H	 0.457468	 0.379258	 0.852538
H	 0.818598	 1.212836	 -0.639445
C	 -1.917817	 -0.639439	 0.339494
H	 -0.758119	 -0.268455	 -1.433105
H	 -1.813832	 1.041889	 -0.986690
H	 -2.777680	 -1.057197	 -0.174994
H	 -1.310268	 -1.471279	 0.680599
H	 -2.283753	 -0.111424	 1.216626

	symmetry c1
}
set optking {
	frozen_dihedral = ("
		8 4 7 11
	")
}

ee = optimize('scf')
oeprop('DIPOLE', 'QUADRUPOLE', 'MULLIKEN_CHARGES')
f=open( 'psi4out.xyz', 'w' )
f.write( "15  " )
f.write( str(ee) + "\n" )
f.write( MOL.save_string_xyz() )
f.close()
--------------------------------------------------------------------------

    Molecular point group: c1
  Charge       = 0
  Multiplicity = 1
  Basis Set: 6-31G*
  Basis Set:
  @DF-RHF Final Energy:  -232.14146869479740
    Total Energy =                       -232.1414686947973678
    Molecular point group: c1
  Basis Set: 6-31G*
  Basis Set:
  Basis Set: 6-31G*
  Basis Set:
  @DF-RHF Final Energy:  -232.14191981535504
    Total Energy =                       -232.1419198153548109
  Basis Set: 6-31G*
  Basis Set:
  Basis Set: 6-31G*
  Basis Set:
  @DF-RHF Final Energy:  -232.14197191904307
    Total Energy =                       -232.1419719190431579
  Basis Set: 6-31G*
  Basis Set:
  Basis Set: 6-31G*
  Basis Set:
  @DF-RHF Final Energy:  -232.14197505519593
    Total Energy =                       -232.1419750551959282
  Basis Set: 6-31G*
  Basis Set:
  Basis Set: 6-31G*
  Basis Set:
  @DF-RHF Final Energy:  -232.14197671857522
    Total Energy =                       -232.1419767185753926
  Basis Set: 6-31G*
  Basis Set:
  Charge       = 0
  Multiplicity = 1
  Basis Set: 6-31G*
  Basis Set:

    Orbital Energies (a.u.)
    -----------------------

    Doubly Occupied:

       1A    -20.554653     2A    -11.268787     3A    -11.212871
       4A    -11.210113     5A    -11.194771     6A     -1.361251
       7A     -1.060968     8A     -0.970368     9A     -0.857740
      10A     -0.781477    11A     -0.705168    12A     -0.643474
      13A     -0.600877    14A     -0.585009    15A     -0.545610
      16A     -0.535352    17A     -0.507256    18A     -0.470074
      19A     -0.465595    20A     -0.450608    21A     -0.429747

  @DF-RHF Final Energy:  -232.14197681432620

   => Energetics <=

    Nuclear Repulsion Energy =            192.1216829895384990
    One-Electron Energy =                -695.7037792491807977
    Two-Electron Energy =                 271.4401194453159860
    DFT Exchange-Correlation Energy =       0.0000000000000000
    Empirical Dispersion Energy =           0.0000000000000000
    PCM Polarization Energy =               0.0000000000000000
    EFP Energy =                            0.0000000000000000
    Total Energy =                       -232.1419768143263127
    Molecular point group: c1
  Basis Set: 6-31G*
  Basis Set:

  -Total Gradient:
     Atom            X                  Y                   Z
    ------   -----------------  -----------------  -----------------
       1       -0.000004429319     0.000001773887     0.000005604910
       2        0.000013842216     0.000009872551    -0.000008912585
       3       -0.000011713989    -0.000006069837    -0.000013121701
       4        0.001126049286    -0.000446160087    -0.001433527805
       5       -0.000004803412    -0.000006165950     0.000002416955
       6       -0.000003741841     0.000002780247     0.000007299154
       7        0.000037677777    -0.001315671365     0.001297029829
       8       -0.000939389215     0.000568943484     0.001000976587
       9        0.000003173434     0.000000723592    -0.000001750725
      10       -0.000001446168    -0.000006049178    -0.000011349261
      11       -0.000205153538     0.001182359969    -0.000864739155
      12       -0.000005143932    -0.000003116747     0.000008213770
      13        0.000004939470     0.000005252833     0.000006463006
      14        0.000000945040     0.000006262546    -0.000005593691
      15       -0.000010805810     0.000005264054     0.000010990716

  **** Optimization is complete! (in 6 steps) ****
    Final optimized geometry and variables:
    Molecular point group: c1

    Geometry (in Angstrom), charge = 0, multiplicity = 1:

    H           -0.567351700858     1.897828085845     1.638393772326
    O           -0.318151704730     1.067705800869     1.257851905116
    C            0.618024286876     1.280764122718     0.231745123453
    C            0.977705653666    -0.049292346160    -0.410997704508
    H            1.517994542187     1.744867915542     0.631849616821
    H            0.209493181492     1.953413429194    -0.521334117719
    C           -0.196493784335    -0.764728425268    -1.102168853344
    H            1.404674452646    -0.690389888342     0.355724923822
    H            1.765006753969     0.148444256162    -1.134494403989
    C           -0.983732205826    -1.709296455531    -0.193534436740
    H            0.184718992782    -1.324192124815    -1.952698871244
    H           -0.871451958656    -0.020498024349    -1.519645112674
    H           -1.794913672202    -2.181851719447    -0.740241745363
    H           -0.342621718312    -2.498616451208     0.189999979142
    H           -1.403584796556    -1.179404410795     0.651470297707

  Mulliken Charges: (a.u.)
   Center  Symbol    Alpha    Beta     Spin     Total
       1     H     0.28045  0.28045  0.00000  0.43910
       2     O     4.36895  4.36895  0.00000 -0.73790
       3     C     2.99634  2.99634  0.00000  0.00732
       4     C     3.16270  3.16270  0.00000 -0.32540
       5     H     0.43010  0.43010  0.00000  0.13981
       6     H     0.43256  0.43256  0.00000  0.13488
       7     C     3.15200  3.15200  0.00000 -0.30401
       8     H     0.41447  0.41447  0.00000  0.17106
       9     H     0.42172  0.42172  0.00000  0.15656
      10     C     3.24124  3.24124  0.00000 -0.48248
      11     H     0.42277  0.42277  0.00000  0.15446
      12     H     0.42308  0.42308  0.00000  0.15384
      13     H     0.42516  0.42516  0.00000  0.14967
      14     H     0.42568  0.42568  0.00000  0.14865
      15     H     0.40278  0.40278  0.00000  0.19444

   Total alpha = 21.00000, Total beta = 21.00000, Total charge = -0.00000
