                              Psi4 1.0.54 Driver

  ==> Input File <==

--------------------------------------------------------------------------
set {
	reference rhf
	basis cc-pvtz
}

set_num_threads( 4 )
memory 2 gb

molecule MOL {
0 1

O	 -2.071633	 -1.227563	 -0.223463
C	 -1.652164	 -0.152425	 0.058082
C	 -0.327811	 0.006324	 0.778296
C	 -2.402515	 1.108629	 -0.298924
C	 0.843231	 -0.001575	 -0.211665
H	 -0.319484	 0.928173	 1.350354
H	 -0.227804	 -0.823091	 1.466705
C	 0.555472	 0.810459	 -1.471040
H	 1.080523	 -1.024530	 -0.492645
H	 1.721408	 0.394936	 0.286280
C	 1.722095	 0.815853	 -2.452939
H	 -0.328364	 0.412814	 -1.962197
H	 0.315517	 1.831570	 -1.189448
H	 1.963465	 -0.189874	 -2.780489
H	 2.612501	 1.237753	 -1.999567
H	 1.489035	 1.403025	 -3.333458
H	 -3.240910	 0.874416	 -0.936711
H	 -1.747554	 1.818823	 -0.790984
H	 -2.760419	 1.579708	 0.610998

	symmetry c1
}
set optking {
	frozen_dihedral = ("
		9 5 3 2
	")
}

ee,wfn = optimize('scf', return_wfn=True)
oeprop( wfn, 'DIPOLE', 'QUADRUPOLE', 'MULLIKEN_CHARGES')
f=open( 'psi4out.xyz', 'w' )
f.write( "19  " )
f.write( str(ee) + "\n" )
f.write( MOL.save_string_xyz() )
f.close()
--------------------------------------------------------------------------

    Molecular point group: c1
  Charge       = 0
  Multiplicity = 1
  Basis Set: CC-PVTZ
  Basis Set:
  @DF-RHF Final Energy:  -309.17006648886331
    Total Energy =                       -309.1700664888635401
    Molecular point group: c1
  Basis Set: CC-PVTZ
  Basis Set:
  Basis Set: CC-PVTZ
  Basis Set:
  @DF-RHF Final Energy:  -309.17316957648416
    Total Energy =                       -309.1731695764842698
  Basis Set: CC-PVTZ
  Basis Set:
  Basis Set: CC-PVTZ
  Basis Set:
  @DF-RHF Final Energy:  -309.17205128103882
    Total Energy =                       -309.1720512810381933
  Basis Set: CC-PVTZ
  Basis Set:
  Basis Set: CC-PVTZ
  Basis Set:
  @DF-RHF Final Energy:  -309.17366451413687
    Total Energy =                       -309.1736645141365898
  Basis Set: CC-PVTZ
  Basis Set:
  @DF-RHF Final Energy:  -309.17391828844819
    Total Energy =                       -309.1739182884479078
  @DF-RHF Final Energy:  -309.17408248742612
    Total Energy =                       -309.1740824874257214
  @DF-RHF Final Energy:  -309.17417599430269
    Total Energy =                       -309.1741759943024022
  @DF-RHF Final Energy:  -309.17426331068532
    Total Energy =                       -309.1742633106849212
  @DF-RHF Final Energy:  -309.17418398697731
    Total Energy =                       -309.1741839869771979
  @DF-RHF Final Energy:  -309.17445948170678
    Total Energy =                       -309.1744594817068332
  @DF-RHF Final Energy:  -309.17390980917514
    Total Energy =                       -309.1739098091752567
  @DF-RHF Final Energy:  -309.17451613134421
    Total Energy =                       -309.1745161313444896
  @DF-RHF Final Energy:  -309.17478120929650
    Total Energy =                       -309.1747812092963272
  @DF-RHF Final Energy:  -309.17485252240630
    Total Energy =                       -309.1748525224060131
  @DF-RHF Final Energy:  -309.17486570630837
    Total Energy =                       -309.1748657063080259
  @DF-RHF Final Energy:  -309.17489226803042
    Total Energy =                       -309.1748922680302485
  @DF-RHF Final Energy:  -309.17489577468046
    Total Energy =                       -309.1748957746806354
  @DF-RHF Final Energy:  -309.17490038810763
    Total Energy =                       -309.1749003881075168
  Basis Set: CC-PVTZ
  Basis Set:
  @DF-RHF Final Energy:  -309.17490188936546
    Total Energy =                       -309.1749018893655148
  Basis Set: CC-PVTZ
  Basis Set:
  Basis Set: CC-PVTZ
  Basis Set:
  @DF-RHF Final Energy:  -309.17489757006075
    Total Energy =                       -309.1748975700607502
  Basis Set: CC-PVTZ
  Basis Set:
  Basis Set: CC-PVTZ
  Basis Set:
  @DF-RHF Final Energy:  -309.17490189066376
    Total Energy =                       -309.1749018906633637
  Basis Set: CC-PVTZ
  Basis Set:
  Charge       = 0
  Multiplicity = 1
  Basis Set: CC-PVTZ
  Basis Set:

    Orbital Energies (a.u.)
    -----------------------

    Doubly Occupied:

       1A    -20.538152     2A    -11.321334     3A    -11.231471
       4A    -11.227218     5A    -11.219663     6A    -11.210530
       7A    -11.205122     8A     -1.398971     9A     -1.084238
      10A     -1.029955    11A     -0.983203    12A     -0.886354
      13A     -0.805843    14A     -0.727038    15A     -0.663800
      16A     -0.636022    17A     -0.627450    18A     -0.614767
      19A     -0.577174    20A     -0.572231    21A     -0.564602
      22A     -0.527696    23A     -0.513150    24A     -0.494237
      25A     -0.477150    26A     -0.466293    27A     -0.463730
      28A     -0.400019

  @DF-RHF Final Energy:  -309.17490184577809

   => Energetics <=

    Nuclear Repulsion Energy =            308.0914985139800137
    One-Electron Energy =               -1029.5979826307241183
    Two-Electron Energy =                 412.3315822709660097
    DFT Exchange-Correlation Energy =       0.0000000000000000
    Empirical Dispersion Energy =           0.0000000000000000
    PCM Polarization Energy =               0.0000000000000000
    EFP Energy =                            0.0000000000000000
    Total Energy =                       -309.1749018457780949
    Molecular point group: c1
  Basis Set: CC-PVTZ
  Basis Set:

  -Total Gradient:
     Atom            X                  Y                   Z
    ------   -----------------  -----------------  -----------------
       1        0.000026105657     0.000120678627     0.000118675024
       2       -0.000322344362     0.004340490584    -0.001713414206
       3        0.001321087410    -0.006023791197     0.003440289248
       4        0.000041066762     0.000014594268     0.000004109145
       5       -0.004967521654     0.000852599404    -0.006574683961
       6        0.000034748585    -0.000034557776     0.000078905160
       7       -0.000042640384    -0.000080129209    -0.000033829394
       8       -0.000022408834    -0.000044300531    -0.000009274764
       9        0.003974820571     0.000868249342     0.004776143716
      10       -0.000023755618     0.000061675584    -0.000047195781
      11       -0.000004951892    -0.000014123147    -0.000008702110
      12       -0.000016705065    -0.000004594654    -0.000011413719
      13        0.000001277079    -0.000006166663     0.000010610858
      14        0.000002212792     0.000004975490     0.000002949892
      15        0.000001990210     0.000008057136    -0.000000496837
      16       -0.000003037995    -0.000006945105     0.000006005504
      17       -0.000006357874     0.000000071555    -0.000003472737
      18        0.000001907976    -0.000058606810     0.000019592582
      19        0.000004506631     0.000001823099    -0.000054797620

  **** Optimization is complete! (in 22 steps) ****
    Final optimized geometry and variables:
    Molecular point group: c1

    Geometry (in Angstrom), charge = 0, multiplicity = 1:

    O           -1.446624246401    -1.005696679190    -0.180066696283
    C           -1.254924425949    -0.181128813073     0.652958005488
    C            0.128307437089     0.112738519704     1.202356525224
    C           -2.393434483921     0.608245422437     1.255396322163
    C            1.311275821598    -0.156758322714     0.267591489553
    H            0.146263593651     1.148915228006     1.527125247810
    H            0.226231501219    -0.480049286108     2.108599360062
    C            1.180315656271     0.385764979390    -1.152666287397
    H            1.546081369495    -1.215412946818     0.264327445604
    H            2.176524670753     0.312083639014     0.730878202340
    C            2.470176483433     0.228321766826    -1.951393982707
    H            0.374035749992    -0.117881664513    -1.666342334179
    H            0.914673525705     1.440163898730    -1.108056774442
    H            2.752854702121    -0.816043913804    -2.030847975071
    H            3.293454377943     0.758741538654    -1.483979372108
    H            2.355415967347     0.615583786415    -2.957106377764
    H           -3.338162350788     0.200650821328     0.929955152106
    H           -2.318643141841     1.643740336332     0.939793378296
    H           -2.336024625136     0.597350950956     2.338089815510

  Mulliken Charges: (a.u.)
   Center  Symbol    Alpha    Beta     Spin     Total
       1     O     4.17505  4.17505  0.00000 -0.35009
       2     C     2.85295  2.85295  0.00000  0.29410
       3     C     3.12636  3.12636  0.00000 -0.25273
       4     C     3.15279  3.15279  0.00000 -0.30558
       5     C     3.08130  3.08130  0.00000 -0.16260
       6     H     0.44428  0.44428  0.00000  0.11144
       7     H     0.43543  0.43543  0.00000  0.12914
       8     C     3.09200  3.09200  0.00000 -0.18401
       9     H     0.44769  0.44769  0.00000  0.10463
      10     H     0.45137  0.45137  0.00000  0.09725
      11     C     3.15128  3.15128  0.00000 -0.30256
      12     H     0.43595  0.43595  0.00000  0.12809
      13     H     0.45897  0.45897  0.00000  0.08205
      14     H     0.45354  0.45354  0.00000  0.09293
      15     H     0.45725  0.45725  0.00000  0.08550
      16     H     0.44785  0.44785  0.00000  0.10430
      17     H     0.43616  0.43616  0.00000  0.12768
      18     H     0.44956  0.44956  0.00000  0.10088
      19     H     0.45022  0.45022  0.00000  0.09956

   Total alpha = 28.00000, Total beta = 28.00000, Total charge =  0.00000

*** Psi4 exiting successfully. Buy a developer a beer!
