                              Psi4 1.0.54 Driver

  ==> Input File <==

--------------------------------------------------------------------------
set {
	reference rhf
	basis cc-pvtz
}

set_num_threads( 4 )
memory 2 gb

molecule MOL {
0 1

H	 -2.356421	 -1.586591	 -0.154305
O	 -2.658848	 -0.704215	 -0.000460
C	 -1.605397	 0.107680	 0.001145
C	 -0.310616	 -0.658853	 0.000791
O	 -1.718351	 1.284629	 -0.000627
C	 0.926581	 0.227233	 0.000178
H	 -0.327628	 -1.313681	 -0.864448
H	 -0.327041	 -1.313334	 0.866298
C	 2.220156	 -0.582071	 -0.000088
H	 0.899945	 0.878221	 -0.866390
H	 0.900542	 0.878581	 0.866486
C	 3.466689	 0.296012	 -0.000457
H	 2.239073	 -1.234095	 -0.869382
H	 2.239505	 -1.233985	 0.869270
H	 3.493549	 0.935857	 -0.875887
H	 4.368821	 -0.304526	 -0.001199
H	 3.494559	 0.935166	 0.875458

	symmetry c1
}
set optking {
	frozen_dihedral = ("
		1 2 3 5
	")
}

ee,wfn = optimize('scf', return_wfn=True)
oeprop( wfn, 'DIPOLE', 'QUADRUPOLE', 'MULLIKEN_CHARGES')
f=open( 'psi4out.xyz', 'w' )
f.write( "17  " )
f.write( str(ee) + "\n" )
f.write( MOL.save_string_xyz() )
f.close()
--------------------------------------------------------------------------

    Molecular point group: c1
  Charge       = 0
  Multiplicity = 1
  Basis Set: CC-PVTZ
  Basis Set:
  @DF-RHF Final Energy:  -345.03786392024000
    Total Energy =                       -345.0378639202400564
    Molecular point group: c1
  Basis Set: CC-PVTZ
  Basis Set:
  Basis Set: CC-PVTZ
  Basis Set:
  @DF-RHF Final Energy:  -345.03905021068232
    Total Energy =                       -345.0390502106822055
  Basis Set: CC-PVTZ
  Basis Set:
  Basis Set: CC-PVTZ
  Basis Set:
  @DF-RHF Final Energy:  -345.03929221663589
    Total Energy =                       -345.0392922166359426
  Basis Set: CC-PVTZ
  Basis Set:
  Basis Set: CC-PVTZ
  Basis Set:
  @DF-RHF Final Energy:  -345.03913281169991
    Total Energy =                       -345.0391328116999148
  Basis Set: CC-PVTZ
  Basis Set:
  Basis Set: CC-PVTZ
  Basis Set:
  @DF-RHF Final Energy:  -345.03930644290733
    Total Energy =                       -345.0393064429072183
  Basis Set: CC-PVTZ
  Basis Set:
  Charge       = 0
  Multiplicity = 1
  Basis Set: CC-PVTZ
  Basis Set:

    Orbital Energies (a.u.)
    -----------------------

    Doubly Occupied:

       1A    -20.604046     2A    -20.536449     3A    -11.372756
       4A    -11.250398     5A    -11.226669     6A    -11.225867
       7A    -11.214259     8A     -1.471226     9A     -1.373290
      10A     -1.097684    11A     -1.021179    12A     -0.909178
      13A     -0.837110    14A     -0.807896    15A     -0.718036
      16A     -0.677006    17A     -0.662823    18A     -0.633435
      19A     -0.606349    20A     -0.581860    21A     -0.574729
      22A     -0.544864    23A     -0.515707    24A     -0.487510
      25A     -0.484046    26A     -0.481726    27A     -0.476752
      28A     -0.442331

  @DF-RHF Final Energy:  -345.03930686787550

   => Energetics <=

    Nuclear Repulsion Energy =            304.8060433284999249
    One-Electron Energy =               -1074.0203437659333758
    Two-Electron Energy =                 424.1749935695579552
    DFT Exchange-Correlation Energy =       0.0000000000000000
    Empirical Dispersion Energy =           0.0000000000000000
    PCM Polarization Energy =               0.0000000000000000
    EFP Energy =                            0.0000000000000000
    Total Energy =                       -345.0393068678754389
    Molecular point group: c1
  Basis Set: CC-PVTZ
  Basis Set:

  -Total Gradient:
     Atom            X                  Y                   Z
    ------   -----------------  -----------------  -----------------
       1       -0.000247701137     0.000288203737    -0.002373173588
       2        0.000261366063    -0.000537619350     0.002092781372
       3       -0.000069120861     0.000199232470     0.002326828006
       4       -0.000024686226     0.000002626771     0.000023249190
       5        0.000090263550     0.000045742526    -0.002060187890
       6       -0.000014484790     0.000010096906    -0.000006297630
       7       -0.000004328204     0.000005024678    -0.000004018120
       8        0.000005005468    -0.000005650502    -0.000006609618
       9        0.000010255704    -0.000004958308     0.000002448414
      10       -0.000002554791    -0.000003299265     0.000005042791
      11        0.000000171397    -0.000000084265     0.000000122573
      12       -0.000002548290    -0.000000426681    -0.000000534697
      13       -0.000001429052     0.000000336722    -0.000000252449
      14       -0.000000527729    -0.000000468254     0.000000212794
      15        0.000000659859     0.000000511919    -0.000000454850
      16       -0.000001238018     0.000000327744     0.000000026646
      17        0.000000897049     0.000000403153     0.000000817056

  **** Optimization is complete! (in 6 steps) ****
    Final optimized geometry and variables:
    Molecular point group: c1

    Geometry (in Angstrom), charge = 0, multiplicity = 1:

    H           -2.520445359566    -1.551526544811    -0.163197568189
    O           -2.716878890511    -0.642303265710    -0.020506771944
    C           -1.614967773358     0.113516358917    -0.013546336798
    C           -0.313430957381    -0.656502247327     0.005328969344
    O           -1.702687083790     1.286134163105    -0.023031706919
    C            0.923752616979     0.229840940522     0.007592276322
    H           -0.307614402680    -1.317519782637    -0.858588863421
    H           -0.327381914702    -1.301064047365     0.880372179775
    C            2.219051389235    -0.576437644411     0.026643467611
    H            0.900825627759     0.872399119954    -0.864738012798
    H            0.885155095664     0.888098182883     0.867506901109
    C            3.462592916008     0.305822587888     0.030312233069
    H            2.248808360772    -1.235838316086    -0.836982390438
    H            2.232613788611    -1.220438217688     0.902129579545
    H            3.495623378818     0.937598461225    -0.850605968703
    H            4.366399835545    -0.291881575004     0.043832684938
    H            3.479518582001     0.952839526221     0.900539795277

  Mulliken Charges: (a.u.)
   Center  Symbol    Alpha    Beta     Spin     Total
       1     H     0.38819  0.38819  0.00000  0.22363
       2     O     4.14558  4.14558  0.00000 -0.29117
       3     C     2.80209  2.80209  0.00000  0.39581
       4     C     3.13005  3.13005  0.00000 -0.26009
       5     O     4.17569  4.17569  0.00000 -0.35139
       6     C     3.08571  3.08571  0.00000 -0.17141
       7     H     0.44608  0.44608  0.00000  0.10784
       8     H     0.44002  0.44002  0.00000  0.11996
       9     C     3.08677  3.08677  0.00000 -0.17354
      10     H     0.44347  0.44347  0.00000  0.11306
      11     H     0.44293  0.44293  0.00000  0.11414
      12     C     3.14936  3.14936  0.00000 -0.29872
      13     H     0.45542  0.45542  0.00000  0.08915
      14     H     0.45513  0.45513  0.00000  0.08973
      15     H     0.45296  0.45296  0.00000  0.09409
      16     H     0.44772  0.44772  0.00000  0.10455
      17     H     0.45282  0.45282  0.00000  0.09436

   Total alpha = 28.00000, Total beta = 28.00000, Total charge = -0.00000

*** Psi4 exiting successfully. Buy a developer a beer!
