                              Psi4 1.0.54 Driver

  ==> Input File <==

--------------------------------------------------------------------------
set {
	reference rhf
	basis cc-pvtz
}

set_num_threads( 4 )
memory 2 gb

molecule MOL {
0 1

H	 0.457768	 3.020456	 1.409971
C	 0.196826	 2.157895	 2.038288
C	 -1.108638	 1.494274	 1.692945
O	 0.917676	 1.824258	 2.913714
C	 -1.216901	 1.136108	 0.207794
H	 -1.229466	 0.622937	 2.323426
H	 -1.893755	 2.202764	 1.947772
C	 -0.247837	 0.040196	 -0.230469
H	 -2.234297	 0.819908	 0.004665
H	 -1.053405	 2.029094	 -0.390568
C	 1.181757	 0.280428	 0.247371
H	 -0.259600	 -0.030819	 -1.314870
H	 -0.591284	 -0.923375	 0.136958
C	 2.151032	 -0.811012	 -0.202643
H	 1.515939	 1.247397	 -0.115449
H	 1.191514	 0.341223	 1.333422
C	 3.580021	 -0.656538	 0.320835
H	 2.170545	 -0.847575	 -1.289412
H	 1.766632	 -1.772905	 0.124928
C	 4.327657	 0.562694	 -0.213579
H	 4.138806	 -1.549270	 0.057813
H	 3.561991	 -0.620783	 1.406976
H	 4.355973	 0.557257	 -1.298551
H	 3.867136	 1.491650	 0.100501
H	 5.351524	 0.571613	 0.142204

	symmetry c1
}
set optking {
	frozen_dihedral = ("
		3 5 8 12
	")
}

ee,wfn = optimize('scf', return_wfn=True)
oeprop( wfn, 'DIPOLE', 'QUADRUPOLE', 'MULLIKEN_CHARGES')
f=open( 'psi4out.xyz', 'w' )
f.write( "25  " )
f.write( str(ee) + "\n" )
f.write( MOL.save_string_xyz() )
f.close()
--------------------------------------------------------------------------

    Molecular point group: c1
  Charge       = 0
  Multiplicity = 1
  Basis Set: CC-PVTZ
  Basis Set:
  @DF-RHF Final Energy:  -387.24754738177364
    Total Energy =                       -387.2475473817733018
    Molecular point group: c1
  Basis Set: CC-PVTZ
  Basis Set:
  Basis Set: CC-PVTZ
  Basis Set:
  @DF-RHF Final Energy:  -387.25192049128663
    Total Energy =                       -387.2519204912864552
  Basis Set: CC-PVTZ
  Basis Set:
  Basis Set: CC-PVTZ
  Basis Set:
  @DF-RHF Final Energy:  -387.25488285548533
    Total Energy =                       -387.2548828554853344
  Basis Set: CC-PVTZ
  Basis Set:
  Basis Set: CC-PVTZ
  Basis Set:
  @DF-RHF Final Energy:  -387.25527989503746
    Total Energy =                       -387.2552798950374608
  Basis Set: CC-PVTZ
  Basis Set:
  @DF-RHF Final Energy:  -387.25593684486466
    Total Energy =                       -387.2559368448645500
  @DF-RHF Final Energy:  -387.25609500910429
    Total Energy =                       -387.2560950091042287
  @DF-RHF Final Energy:  -387.25617032161222
    Total Energy =                       -387.2561703216131264
  @DF-RHF Final Energy:  -387.25630469932554
    Total Energy =                       -387.2563046993257103
  @DF-RHF Final Energy:  -387.25636630736091
    Total Energy =                       -387.2563663073608495
  Basis Set: CC-PVTZ
  Basis Set:
  @DF-RHF Final Energy:  -387.25637110001918
    Total Energy =                       -387.2563711000191233
  Basis Set: CC-PVTZ
  Basis Set:
  Basis Set: CC-PVTZ
  Basis Set:
  @DF-RHF Final Energy:  -387.25637914452807
    Total Energy =                       -387.2563791445273864
  Basis Set: CC-PVTZ
  Basis Set:
  Basis Set: CC-PVTZ
  Basis Set:
  @DF-RHF Final Energy:  -387.25638120032960
    Total Energy =                       -387.2563812003290877
  Basis Set: CC-PVTZ
  Basis Set:
  Charge       = 0
  Multiplicity = 1
  Basis Set: CC-PVTZ
  Basis Set:

    Orbital Energies (a.u.)
    -----------------------

    Doubly Occupied:

       1A    -20.550244     2A    -11.321670     3A    -11.234439
       4A    -11.232991     5A    -11.221778     6A    -11.214945
       7A    -11.213715     8A    -11.212753     9A    -11.205178
      10A     -1.406206    11A     -1.103666    12A     -1.067551
      13A     -1.010516    14A     -0.945618    15A     -0.881040
      16A     -0.812510    17A     -0.788785    18A     -0.779192
      19A     -0.665662    20A     -0.658146    21A     -0.638836
      22A     -0.626877    23A     -0.609608    24A     -0.589222
      25A     -0.562363    26A     -0.558853    27A     -0.540769
      28A     -0.526952    29A     -0.508402    30A     -0.503807
      31A     -0.482566    32A     -0.472222    33A     -0.461303
      34A     -0.454682    35A     -0.443747    36A     -0.411553

  @DF-RHF Final Energy:  -387.25638165247142

   => Energetics <=

    Nuclear Repulsion Energy =            456.2226818082309592
    One-Electron Energy =               -1429.1214006448501550
    Two-Electron Energy =                 585.6423371841485732
    DFT Exchange-Correlation Energy =       0.0000000000000000
    Empirical Dispersion Energy =           0.0000000000000000
    PCM Polarization Energy =               0.0000000000000000
    EFP Energy =                            0.0000000000000000
    Total Energy =                       -387.2563816524706226
    Molecular point group: c1
  Basis Set: CC-PVTZ
  Basis Set:

  -Total Gradient:
     Atom            X                  Y                   Z
    ------   -----------------  -----------------  -----------------
       1       -0.000003236560    -0.000009914370     0.000001031572
       2        0.000012241832     0.000017941484     0.000020290222
       3        0.001738490093     0.002144344148    -0.000747976444
       4       -0.000020829345    -0.000007038003    -0.000014739567
       5       -0.001997144596    -0.002471621400     0.000995674532
       6        0.000009169012     0.000009450250    -0.000001747282
       7        0.000012976190    -0.000003726109     0.000001108823
       8       -0.002317734423    -0.002462252309     0.000113836986
       9        0.000001605476    -0.000002681039    -0.000004348349
      10       -0.000004177325     0.000000562113     0.000005384278
      11       -0.000006712514     0.000013433555     0.000039482328
      12        0.002538781174     0.002808554997    -0.000378887484
      13        0.000014407360     0.000000493287     0.000003422811
      14        0.000012995880    -0.000018403153    -0.000003524554
      15       -0.000002405320    -0.000011521647     0.000000138074
      16        0.000003648026    -0.000010446697    -0.000023332263
      17        0.000001588924    -0.000003833140    -0.000007856629
      18       -0.000002262304     0.000002316894     0.000005933504
      19       -0.000000924880    -0.000000170856    -0.000001941231
      20        0.000006088999     0.000004767730    -0.000000456493
      21        0.000004731161    -0.000001519369     0.000002573091
      22       -0.000002159441    -0.000000878598    -0.000002171089
      23        0.000000289766     0.000000750154    -0.000001586400
      24        0.000001187566    -0.000000712310     0.000000489170
      25       -0.000000614751     0.000002104391    -0.000000797605

  **** Optimization is complete! (in 13 steps) ****
    Final optimized geometry and variables:
    Molecular point group: c1

    Geometry (in Angstrom), charge = 0, multiplicity = 1:

    H           -1.209370846508     2.491445098838     0.524474408927
    C           -1.250015475104     1.693034236132     1.277301818000
    C           -2.254705658215     0.606691398398     0.998255434418
    O           -0.564197175387     1.749209168569     2.238285449515
    C           -2.292969696721     0.119843921145    -0.455772970264
    H           -2.094869598834    -0.202319080258     1.699762258971
    H           -3.219489447556     1.051360100874     1.236259731260
    C           -1.223008859568    -0.902649885158    -0.856053925052
    H           -3.267203584631    -0.313978017247    -0.647150829070
    H           -2.221661124298     0.985754566951    -1.110310812631
    C            0.215087540929    -0.540837965439    -0.483613513300
    H           -1.263310394966    -1.012919187852    -1.935814129699
    H           -1.469843920949    -1.869349067364    -0.426875577795
    C            1.225163421587    -1.544710158231    -1.037984684144
    H            0.442131082043     0.452522466095    -0.860416319274
    H            0.324121342585    -0.494301864638     0.594725334930
    C            2.673152442757    -1.299942773049    -0.610256692383
    H            1.168587426198    -1.549594499781    -2.124191319706
    H            0.935178673258    -2.541181833527    -0.715665512742
    C            3.283783517424    -0.003893788687    -1.137778570104
    H            3.276443516876    -2.134540569769    -0.954125093371
    H            2.732413178999    -1.309707316212     0.474536632147
    H            3.225025184691     0.042448893385    -2.220782869576
    H            2.783824368011     0.870831432877    -0.740013663293
    H            4.329473760282     0.067430151116    -0.861633400045

  Mulliken Charges: (a.u.)
   Center  Symbol    Alpha    Beta     Spin     Total
       1     H     0.46252  0.46252  0.00000  0.07496
       2     C     2.90028  2.90028  0.00000  0.19944
       3     C     3.09658  3.09658  0.00000 -0.19316
       4     O     4.16999  4.16999  0.00000 -0.33998
       5     C     3.11807  3.11807  0.00000 -0.23615
       6     H     0.43963  0.43963  0.00000  0.12074
       7     H     0.43717  0.43717  0.00000  0.12566
       8     C     3.08959  3.08959  0.00000 -0.17917
       9     H     0.43890  0.43890  0.00000  0.12220
      10     H     0.45053  0.45053  0.00000  0.09893
      11     C     3.11114  3.11114  0.00000 -0.22227
      12     H     0.44836  0.44836  0.00000  0.10328
      13     H     0.44836  0.44836  0.00000  0.10328
      14     C     3.09747  3.09747  0.00000 -0.19493
      15     H     0.45101  0.45101  0.00000  0.09797
      16     H     0.43937  0.43937  0.00000  0.12125
      17     C     3.08998  3.08998  0.00000 -0.17996
      18     H     0.45363  0.45363  0.00000  0.09274
      19     H     0.44948  0.44948  0.00000  0.10104
      20     C     3.15342  3.15342  0.00000 -0.30685
      21     H     0.44887  0.44887  0.00000  0.10227
      22     H     0.45225  0.45225  0.00000  0.09551
      23     H     0.45614  0.45614  0.00000  0.08771
      24     H     0.45153  0.45153  0.00000  0.09693
      25     H     0.44572  0.44572  0.00000  0.10855

   Total alpha = 36.00000, Total beta = 36.00000, Total charge = -0.00000

*** Psi4 exiting successfully. Buy a developer a beer!
