  ==> Input File <==

--------------------------------------------------------------------------
set {
	reference rhf
	basis 6-31G*
}

set_num_threads( 4 )
memory 2 gb

molecule MOL {
0 1

H	 -3.237119	 3.049260	 -0.148311
C	 -3.583387	 2.045063	 0.126114
C	 -2.660244	 0.921717	 -0.272021
O	 -4.617541	 1.904380	 0.693990
C	 -1.220012	 1.144545	 0.209990
H	 -3.068489	 -0.007569	 0.108073
H	 -2.669794	 0.870289	 -1.360102
C	 -0.252658	 0.041456	 -0.226725
H	 -0.873521	 2.100229	 -0.171974
H	 -1.211708	 1.231594	 1.295398
C	 1.180775	 0.282413	 0.250794
H	 -0.266029	 -0.034465	 -1.312038
H	 -0.597733	 -0.921000	 0.146291
C	 2.148627	 -0.814315	 -0.201312
H	 1.516199	 1.249228	 -0.115937
H	 1.192670	 0.346017	 1.338083
C	 3.580890	 -0.659131	 0.322722
H	 2.166869	 -0.852443	 -1.289387
H	 1.762857	 -1.776509	 0.128956
C	 4.324889	 0.564933	 -0.213704
H	 4.142010	 -1.551473	 0.056605
H	 3.564836	 -0.624694	 1.410140
H	 4.342616	 0.565491	 -1.300421
H	 3.866655	 1.493402	 0.110242
H	 5.353900	 0.572371	 0.132816

	symmetry c1
}
set optking {
	frozen_dihedral = ("
		6 3 5 8
	")
}

ee = optimize('scf')
oeprop('DIPOLE', 'QUADRUPOLE', 'MULLIKEN_CHARGES')
f=open( 'psi4out.xyz', 'w' )
f.write( "25  " )
f.write( str(ee) + "\n" )
f.write( MOL.save_string_xyz() )
f.close()
--------------------------------------------------------------------------

    Molecular point group: c1
  Charge       = 0
  Multiplicity = 1
  Basis Set: 6-31G*
  Basis Set:
  @DF-RHF Final Energy:  -387.12233798113846
    Total Energy =                       -387.1223379811384575
    Molecular point group: c1
  Basis Set: 6-31G*
  Basis Set:
  Basis Set: 6-31G*
  Basis Set:
  @DF-RHF Final Energy:  -387.12223125261579
    Total Energy =                       -387.1222312526153928
  Basis Set: 6-31G*
  Basis Set:
  Basis Set: 6-31G*
  Basis Set:
  @DF-RHF Final Energy:  -387.12124793457582
    Total Energy =                       -387.1212479345756492
  Basis Set: 6-31G*
  Basis Set:
  Basis Set: 6-31G*
  Basis Set:
  @DF-RHF Final Energy:  -387.12243945180001
    Total Energy =                       -387.1224394518004601
  Basis Set: 6-31G*
  Basis Set:
  Basis Set: 6-31G*
  Basis Set:
  @DF-RHF Final Energy:  -387.12241532611148
    Total Energy =                       -387.1224153261116498
  Basis Set: 6-31G*
  Basis Set:
  Basis Set: 6-31G*
  Basis Set:
  @DF-RHF Final Energy:  -387.12245172469301
    Total Energy =                       -387.1224517246926098
  Basis Set: 6-31G*
  Basis Set:
  Charge       = 0
  Multiplicity = 1
  Basis Set: 6-31G*
  Basis Set:

    Orbital Energies (a.u.)
    -----------------------

    Doubly Occupied:

       1A    -20.561958     2A    -11.326067     3A    -11.235845
       4A    -11.234620     5A    -11.226366     6A    -11.221053
       7A    -11.219487     8A    -11.218795     9A    -11.211883
      10A     -1.401748    11A     -1.104886    12A     -1.070800
      13A     -1.015231    14A     -0.944803    15A     -0.875259
      16A     -0.813206    17A     -0.795057    18A     -0.781389
      19A     -0.678213    20A     -0.656203    21A     -0.633747
      22A     -0.621238    23A     -0.613856    24A     -0.590104
      25A     -0.568796    26A     -0.555934    27A     -0.532264
      28A     -0.523272    29A     -0.514277    30A     -0.495113
      31A     -0.487067    32A     -0.480114    33A     -0.466352
      34A     -0.460293    35A     -0.451647    36A     -0.406988

  @DF-RHF Final Energy:  -387.12245253949391

   => Energetics <=

    Nuclear Repulsion Energy =            431.5967470257055538
    One-Electron Energy =               -1379.4505363080279494
    Two-Electron Energy =                 560.7313367428289439
    DFT Exchange-Correlation Energy =       0.0000000000000000
    Empirical Dispersion Energy =           0.0000000000000000
    PCM Polarization Energy =               0.0000000000000000
    EFP Energy =                            0.0000000000000000
    Total Energy =                       -387.1224525394934517
    Molecular point group: c1
  Basis Set: 6-31G*
  Basis Set:

  -Total Gradient:
     Atom            X                  Y                   Z
    ------   -----------------  -----------------  -----------------
       1        0.000026588762    -0.000001218013     0.000052120974
       2       -0.000091209487     0.000005689099    -0.000124256594
       3        0.000063659617     0.000150676667     0.000222849674
       4       -0.000010741514    -0.000007079348     0.000010793145
       5        0.000020364510     0.000005578243    -0.000196984826
       6        0.000047986064    -0.000072538567    -0.000104061625
       7       -0.000046996407     0.000010580935     0.000010828137
       8        0.000018941488    -0.000092882156     0.000129072629
       9       -0.000035349508    -0.000003672764     0.000024521381
      10        0.000000815495     0.000022843731    -0.000006612440
      11       -0.000003655248    -0.000026237663    -0.000027097357
      12       -0.000014706913    -0.000005902461     0.000029583038
      13        0.000009910946    -0.000025455234     0.000000816690
      14       -0.000000522558     0.000033860558    -0.000027261379
      15       -0.000032515498    -0.000011378521    -0.000002634100
      16        0.000023944919    -0.000004496154     0.000005961768
      17       -0.000016198032     0.000004233231     0.000030867752
      18        0.000015227120     0.000017380462    -0.000006868783
      19       -0.000007386635     0.000003778024    -0.000016614545
      20        0.000014494036     0.000004630253    -0.000007162170
      21       -0.000018410267    -0.000010023586     0.000008139258
      22        0.000008275385     0.000010525529     0.000005816137
      23        0.000008276343     0.000003263543    -0.000008666196
      24        0.000021555671    -0.000012488664    -0.000005866793
      25       -0.000002348282     0.000000332852     0.000002716223

  **** Optimization is complete! (in 7 steps) ****
    Final optimized geometry and variables:
    Molecular point group: c1

    Geometry (in Angstrom), charge = 0, multiplicity = 1:

    H           -3.160575400386     2.421048409188    -0.263955908422
    C           -3.468752921277     1.416060049925     0.048504906166
    C           -2.536876456595     0.303805131677    -0.357630043301
    O           -4.473970679216     1.264767737269     0.664080094635
    C           -1.100365230198     0.552160135827     0.120546802760
    H           -2.928809652159    -0.628008980579     0.032962976677
    H           -2.549513005715     0.242954319386    -1.445345114997
    C           -0.135125170340    -0.550907618832    -0.316698810524
    H           -0.751533875655     1.509764557643    -0.261197715089
    H           -1.092195924494     0.631376920684     1.205236155206
    C            1.300273522982    -0.314718419283     0.157338797220
    H           -0.148819299271    -0.629116950544    -1.402343352267
    H           -0.488723781805    -1.507200016414     0.063006040438
    C            2.261974883737    -1.418200140559    -0.291656932628
    H            1.640476256139     0.649140923713    -0.212579352637
    H            1.313143150706    -0.248236857837     1.244080503381
    C            3.692315111504    -1.276233982835     0.241287825422
    H            2.287152974194    -1.453380431314    -1.379736395321
    H            1.866361371962    -2.378172252767     0.033551623287
    C            4.450451077955    -0.057859127156    -0.288873222292
    H            4.247156355100    -2.173375416675    -0.021699569574
    H            3.668974371169    -1.242614189701     1.328599409807
    H            4.480267967963    -0.059100677938    -1.375247047702
    H            3.995455510388     0.874447122997     0.028813235898
    H            5.475513484350    -0.056979347712     0.068564096284

  Mulliken Charges: (a.u.)
   Center  Symbol    Alpha    Beta     Spin     Total
       1     H     0.43217  0.43217  0.00000  0.13567
       2     C     2.82951  2.82951  0.00000  0.34098
       3     C     3.20816  3.20816  0.00000 -0.41632
       4     O     4.23744  4.23744  0.00000 -0.47488
       5     C     3.16535  3.16535  0.00000 -0.33069
       6     H     0.39934  0.39934  0.00000  0.20133
       7     H     0.40961  0.40961  0.00000  0.18079
       8     C     3.15138  3.15138  0.00000 -0.30275
       9     H     0.41927  0.41927  0.00000  0.16145
      10     H     0.41290  0.41290  0.00000  0.17421
      11     C     3.15454  3.15454  0.00000 -0.30908
      12     H     0.42176  0.42176  0.00000  0.15648
      13     H     0.41930  0.41930  0.00000  0.16140
      14     C     3.15311  3.15311  0.00000 -0.30621
      15     H     0.42095  0.42095  0.00000  0.15810
      16     H     0.42224  0.42224  0.00000  0.15552
      17     C     3.15274  3.15274  0.00000 -0.30547
      18     H     0.42382  0.42382  0.00000  0.15237
      19     H     0.42139  0.42139  0.00000  0.15723
      20     C     3.24142  3.24142  0.00000 -0.48284
      21     H     0.42010  0.42010  0.00000  0.15979
      22     H     0.42267  0.42267  0.00000  0.15466
      23     H     0.42216  0.42216  0.00000  0.15567
      24     H     0.42033  0.42033  0.00000  0.15933
      25     H     0.41836  0.41836  0.00000  0.16328

   Total alpha = 36.00000, Total beta = 36.00000, Total charge = -0.00000
