                              Psi4 1.0.54 Driver

  ==> Input File <==

--------------------------------------------------------------------------
set {
	reference rhf
	basis cc-pvtz
}

set_num_threads( 4 )
memory 2 gb

molecule MOL {
0 1

H	 1.113263	 2.266673	 -2.703310
O	 1.755852	 2.064290	 -2.046925
C	 1.233534	 1.312929	 -1.061419
C	 2.076878	 0.941345	 -0.024203
C	 -0.085483	 0.912285	 -1.055239
H	 3.098968	 1.263666	 -0.048675
C	 1.597828	 0.172654	 1.011642
H	 -0.758003	 1.184283	 -1.842025
C	 -0.532034	 0.141680	 0.000000
H	 2.256888	 -0.109720	 1.808920
C	 0.276783	 -0.242045	 1.040121
N	 -1.937041	 -0.281114	 0.000000
H	 -0.108962	 -0.838855	 1.837454
O	 -2.159542	 -1.446261	 0.000000
O	 -2.764978	 0.565773	 0.000000

	symmetry c1
}
set optking {
	frozen_dihedral = ("
		11 9 12 14
	")
}

ee,wfn = optimize('scf', return_wfn=True)
oeprop( wfn, 'DIPOLE', 'QUADRUPOLE', 'MULLIKEN_CHARGES')
f=open( 'psi4out.xyz', 'w' )
f.write( "15  " )
f.write( str(ee) + "\n" )
f.write( MOL.save_string_xyz() )
f.close()
--------------------------------------------------------------------------

    Molecular point group: c1
  Charge       = 0
  Multiplicity = 1
  Basis Set: CC-PVTZ
  Basis Set:
  @DF-RHF Final Energy:  -509.21233494283695
    Total Energy =                       -509.2123349428368329
    Molecular point group: c1
  Basis Set: CC-PVTZ
  Basis Set:
  Basis Set: CC-PVTZ
  Basis Set:
  @DF-RHF Final Energy:  -509.20592417851776
    Total Energy =                       -509.2059241785177619
  Basis Set: CC-PVTZ
  Basis Set:
  Basis Set: CC-PVTZ
  Basis Set:
  @DF-RHF Final Energy:  -509.21152684132937
    Total Energy =                       -509.2115268413294871
  Basis Set: CC-PVTZ
  Basis Set:
  Basis Set: CC-PVTZ
  Basis Set:
  @DF-RHF Final Energy:  -509.21268080521099
    Total Energy =                       -509.2126808052119031
  Basis Set: CC-PVTZ
  Basis Set:
  Basis Set: CC-PVTZ
  Basis Set:
  @DF-RHF Final Energy:  -509.21267170002039
    Total Energy =                       -509.2126717000205645
  Basis Set: CC-PVTZ
  Basis Set:
  Basis Set: CC-PVTZ
  Basis Set:
  @DF-RHF Final Energy:  -509.21282155191642
    Total Energy =                       -509.2128215519160221
  Basis Set: CC-PVTZ
  Basis Set:
  Charge       = 0
  Multiplicity = 1
  Basis Set: CC-PVTZ
  Basis Set:

    Orbital Energies (a.u.)
    -----------------------

    Doubly Occupied:

       1A    -20.610130     2A    -20.599417     3A    -20.598744
       4A    -15.850521     5A    -11.330121     6A    -11.313067
       7A    -11.264868     8A    -11.263918     9A    -11.258503
      10A    -11.252167    11A     -1.646816    12A     -1.443017
      13A     -1.429957    14A     -1.204400    15A     -1.096700
      16A     -1.049771    17A     -0.966936    18A     -0.885935
      19A     -0.833418    20A     -0.793996    21A     -0.766268
      22A     -0.740791    23A     -0.724539    24A     -0.712763
      25A     -0.673826    26A     -0.636307    27A     -0.623375
      28A     -0.596994    29A     -0.564955    30A     -0.549748
      31A     -0.534299    32A     -0.495202    33A     -0.489585
      34A     -0.460266    35A     -0.377243    36A     -0.346566

  @DF-RHF Final Energy:  -509.21282195043779

   => Energetics <=

    Nuclear Repulsion Energy =            504.2332830768152121
    One-Electron Energy =               -1694.9219539239693404
    Two-Electron Energy =                 681.4758488967160019
    DFT Exchange-Correlation Energy =       0.0000000000000000
    Empirical Dispersion Energy =           0.0000000000000000
    PCM Polarization Energy =               0.0000000000000000
    EFP Energy =                            0.0000000000000000
    Total Energy =                       -509.2128219504380695
    Molecular point group: c1
  Basis Set: CC-PVTZ
  Basis Set:

  -Total Gradient:
     Atom            X                  Y                   Z
    ------   -----------------  -----------------  -----------------
       1       -0.000000241315    -0.000005402061    -0.000000686047
       2        0.000013225196     0.000011233085    -0.000017986744
       3       -0.000036099061     0.000021294481     0.000049022979
       4        0.000010529539    -0.000010687135    -0.000006741359
       5        0.000005745088    -0.000018286366    -0.000030671691
       6       -0.000001938314     0.000000659972     0.000000832485
       7        0.000016548085    -0.000011361954    -0.000001544106
       8        0.000003907167    -0.000001193670     0.000003994571
       9        0.001523397798    -0.005665620650    -0.004957909526
      10       -0.000001081734     0.000006142643     0.000005043893
      11       -0.001058595060     0.003840679033     0.002115052123
      12       -0.000461049698     0.001994491068     0.007972658023
      13        0.000002936387     0.000005779506    -0.000003472416
      14        0.000022482914    -0.000222276008    -0.005132309987
      15       -0.000039766993     0.000054548060     0.000004717794

  **** Optimization is complete! (in 7 steps) ****
    Final optimized geometry and variables:
    Molecular point group: c1

    Geometry (in Angstrom), charge = 0, multiplicity = 1:

    H            1.234707592778     1.831805983188    -2.461949307439
    O            1.875908965609     1.632821383832    -1.803246799025
    C            1.354273914072     0.889233333961    -0.813621857894
    C            2.193252488498     0.537802738228     0.234478503981
    C            0.034303302249     0.485199426718    -0.807147347636
    H            3.211408735295     0.871842643983     0.214975942161
    C            1.712623923695    -0.220555986430     1.276686105189
    H           -0.644304072846     0.770935936287    -1.586699248028
    C           -0.397910814036    -0.298621899820     0.239700875424
    H            2.365581639485    -0.477425571809     2.087674434693
    C            0.397798304628    -0.658322343728     1.294281225028
    N           -1.807299749714    -0.695465462223     0.256170531234
    H            0.014023036012    -1.261564009786     2.090832773668
    O           -2.042073673077    -1.855387547886     0.301181665074
    O           -2.613101644308     0.170840663804     0.187444931669

  Mulliken Charges: (a.u.)
   Center  Symbol    Alpha    Beta     Spin     Total
       1     H     0.38451  0.38451  0.00000  0.23098
       2     O     4.16728  4.16728  0.00000 -0.33456
       3     C     2.84268  2.84268  0.00000  0.31464
       4     C     3.10486  3.10486  0.00000 -0.20972
       5     C     3.14069  3.14069  0.00000 -0.28139
       6     H     0.41399  0.41399  0.00000  0.17202
       7     C     3.05098  3.05098  0.00000 -0.10196
       8     H     0.41946  0.41946  0.00000  0.16107
       9     C     2.92588  2.92588  0.00000  0.14824
      10     H     0.41632  0.41632  0.00000  0.16737
      11     C     3.10855  3.10855  0.00000 -0.21710
      12     N     3.28284  3.28284  0.00000  0.43432
      13     H     0.41082  0.41082  0.00000  0.17836
      14     O     4.16435  4.16435  0.00000 -0.32870
      15     O     4.16679  4.16679  0.00000 -0.33357

   Total alpha = 36.00000, Total beta = 36.00000, Total charge = -0.00000

*** Psi4 exiting successfully. Buy a developer a beer!
