                              Psi4 1.0.54 Driver

  ==> Input File <==

--------------------------------------------------------------------------
set {
	reference rhf
	basis cc-pvtz
}

set_num_threads( 4 )
memory 2 gb

molecule MOL {
0 1

H	 -2.816458	 -0.841657	 -0.064679
N	 -1.878861	 -0.711874	 0.250184
C	 -1.341419	 0.551458	 -0.220231
H	 -1.333674	 -1.468530	 -0.105118
C	 0.082190	 0.731516	 0.254705
H	 -1.357065	 0.652078	 -1.304747
H	 -1.939897	 1.357530	 0.189797
O	 0.601646	 1.896559	 -0.311465
H	 0.103121	 0.802191	 1.341323
H	 0.678140	 -0.128376	 -0.042544
C	 1.934424	 2.140837	 -0.006098
H	 2.223407	 3.061650	 -0.491873
H	 2.083174	 2.250171	 1.066103
H	 2.577558	 1.339634	 -0.362491

	symmetry c1
}
set optking {
	frozen_dihedral = ("
		8 5 3 6
	")
}

ee,wfn = optimize('scf', return_wfn=True)
oeprop( wfn, 'DIPOLE', 'QUADRUPOLE', 'MULLIKEN_CHARGES')
f=open( 'psi4out.xyz', 'w' )
f.write( "14  " )
f.write( str(ee) + "\n" )
f.write( MOL.save_string_xyz() )
f.close()
--------------------------------------------------------------------------

    Molecular point group: c1
  Charge       = 0
  Multiplicity = 1
  Basis Set: CC-PVTZ
  Basis Set:
  @DF-RHF Final Energy:  -248.22409823099582
    Total Energy =                       -248.2240982309956507
    Molecular point group: c1
  Basis Set: CC-PVTZ
  Basis Set:
  Basis Set: CC-PVTZ
  Basis Set:
  @DF-RHF Final Energy:  -248.22453680043458
    Total Energy =                       -248.2245368004346346
  Basis Set: CC-PVTZ
  Basis Set:
  Basis Set: CC-PVTZ
  Basis Set:
  @DF-RHF Final Energy:  -248.22462347296130
    Total Energy =                       -248.2246234729612411
  Basis Set: CC-PVTZ
  Basis Set:
  Basis Set: CC-PVTZ
  Basis Set:
  @DF-RHF Final Energy:  -248.22465602342118
    Total Energy =                       -248.2246560234214030
  Basis Set: CC-PVTZ
  Basis Set:
  Basis Set: CC-PVTZ
  Basis Set:
  @DF-RHF Final Energy:  -248.22465851010406
    Total Energy =                       -248.2246585101039500
  Basis Set: CC-PVTZ
  Basis Set:
  Charge       = 0
  Multiplicity = 1
  Basis Set: CC-PVTZ
  Basis Set:

    Orbital Energies (a.u.)
    -----------------------

    Doubly Occupied:

       1A    -20.548566     2A    -15.532453     3A    -11.262206
       4A    -11.262100     5A    -11.239741     6A     -1.383046
       7A     -1.182724     8A     -1.000221     9A     -0.900242
      10A     -0.823312    11A     -0.687477    12A     -0.668415
      13A     -0.652379    14A     -0.623044    15A     -0.591660
      16A     -0.566258    17A     -0.516081    18A     -0.498397
      19A     -0.471112    20A     -0.417300    21A     -0.390478

  @DF-RHF Final Energy:  -248.22465860229238

   => Energetics <=

    Nuclear Repulsion Energy =            191.1111121193902704
    One-Electron Energy =                -716.2371217884940506
    Two-Electron Energy =                 276.9013510668115714
    DFT Exchange-Correlation Energy =       0.0000000000000000
    Empirical Dispersion Energy =           0.0000000000000000
    PCM Polarization Energy =               0.0000000000000000
    EFP Energy =                            0.0000000000000000
    Total Energy =                       -248.2246586022921520
    Molecular point group: c1
  Basis Set: CC-PVTZ
  Basis Set:

  -Total Gradient:
     Atom            X                  Y                   Z
    ------   -----------------  -----------------  -----------------
       1       -0.000021119518     0.000019008816    -0.000001935459
       2        0.000020078100    -0.000005964315     0.000016008980
       3        0.000171930956    -0.001032132984    -0.000232786101
       4        0.000018634898    -0.000006183610    -0.000008925335
       5       -0.000238970833     0.000630972386     0.000619264004
       6       -0.000089918260     0.000776334237     0.000064259827
       7       -0.000007389435    -0.000006933050     0.000001555966
       8        0.000161391063    -0.000354526718    -0.000473445744
       9       -0.000006533130    -0.000002017666     0.000008304363
      10       -0.000005664055    -0.000007250159     0.000004190118
      11        0.000003827074    -0.000010570373     0.000004704421
      12       -0.000007449307    -0.000002101494    -0.000001507949
      13       -0.000000674747     0.000001199493     0.000000408742
      14        0.000001857195     0.000000165438    -0.000000095832

  **** Optimization is complete! (in 6 steps) ****
    Final optimized geometry and variables:
    Molecular point group: c1

    Geometry (in Angstrom), charge = 0, multiplicity = 1:

    H           -2.821935220335    -1.544779263800     0.095610200366
    N           -1.836163603624    -1.541570046950     0.244399347968
    C           -1.236160173050    -0.314150717637    -0.249169926288
    H           -1.463795242380    -2.340081398966    -0.224969855928
    C            0.188884125536    -0.198708740315     0.252046581718
    H           -1.231110638584    -0.227452503663    -1.333608750796
    H           -1.805837616171     0.524832181783     0.130937382756
    O            0.773760213533     0.928935897033    -0.316972025024
    H            0.191991867574    -0.133681007924     1.337407545364
    H            0.751439478103    -1.092552936147    -0.021326620873
    C            2.080706735420     1.165630980471     0.087789566139
    H            2.427765523783     2.056707201152    -0.415002570308
    H            2.143114796332     1.323021443550     1.162261269547
    H            2.735649060317     0.337774993200    -0.176049855701

  Mulliken Charges: (a.u.)
   Center  Symbol    Alpha    Beta     Spin     Total
       1     H     0.42697  0.42697  0.00000  0.14606
       2     N     3.69480  3.69480  0.00000 -0.38960
       3     C     3.03167  3.03167  0.00000 -0.06334
       4     H     0.42955  0.42955  0.00000  0.14090
       5     C     2.95377  2.95377  0.00000  0.09247
       6     H     0.46322  0.46322  0.00000  0.07356
       7     H     0.45421  0.45421  0.00000  0.09158
       8     O     4.17382  4.17382  0.00000 -0.34763
       9     H     0.46976  0.46976  0.00000  0.06048
      10     H     0.48029  0.48029  0.00000  0.03942
      11     C     3.03189  3.03189  0.00000 -0.06378
      12     H     0.44724  0.44724  0.00000  0.10552
      13     H     0.47080  0.47080  0.00000  0.05840
      14     H     0.47202  0.47202  0.00000  0.05596

   Total alpha = 21.00000, Total beta = 21.00000, Total charge = -0.00000

*** Psi4 exiting successfully. Buy a developer a beer!
