  ==> Input File <==

--------------------------------------------------------------------------
set {
	reference rhf
	basis 6-31G*
}

set_num_threads( 4 )
memory 2 gb

molecule MOL {
0 1

H	 -0.303079	 2.436506	 -0.532033
C	 0.340236	 2.050930	 0.268142
C	 0.692068	 0.589600	 0.160137
O	 0.708720	 2.772455	 1.137480
C	 -0.558097	 -0.297372	 0.091132
H	 1.316849	 0.327084	 1.005841
H	 1.279704	 0.455781	 -0.747391
C	 -1.850991	 0.512573	 -0.019058
H	 -0.476753	 -0.965681	 -0.762987
H	 -0.604799	 -0.930658	 0.975228
C	 -3.096943	 -0.368295	 -0.099594
H	 -1.800724	 1.150330	 -0.898172
H	 -1.931651	 1.177355	 0.838044
H	 -3.060452	 -1.020287	 -0.967456
H	 -3.996858	 0.233488	 -0.175704
H	 -3.191959	 -0.995686	 0.782074

	symmetry c1
}
set optking {
	frozen_dihedral = ("
		6 3 5 9
	")
}

ee = optimize('scf')
oeprop('DIPOLE', 'QUADRUPOLE', 'MULLIKEN_CHARGES')
f=open( 'psi4out.xyz', 'w' )
f.write( "16  " )
f.write( str(ee) + "\n" )
f.write( MOL.save_string_xyz() )
f.close()
--------------------------------------------------------------------------

    Molecular point group: c1
  Charge       = 0
  Multiplicity = 1
  Basis Set: 6-31G*
  Basis Set:
  @DF-RHF Final Energy:  -270.00739855997449
    Total Energy =                       -270.0073985599743196
    Molecular point group: c1
  Basis Set: 6-31G*
  Basis Set:
  Basis Set: 6-31G*
  Basis Set:
  @DF-RHF Final Energy:  -270.00800282744865
    Total Energy =                       -270.0080028274487063
  Basis Set: 6-31G*
  Basis Set:
  Basis Set: 6-31G*
  Basis Set:
  @DF-RHF Final Energy:  -270.01074325648267
    Total Energy =                       -270.0107432564828969
  Basis Set: 6-31G*
  Basis Set:
  Basis Set: 6-31G*
  Basis Set:
  @DF-RHF Final Energy:  -270.01113271911578
    Total Energy =                       -270.0111327191154373
  Basis Set: 6-31G*
  Basis Set:
  @DF-RHF Final Energy:  -270.01103453247958
    Total Energy =                       -270.0110345324796981
  @DF-RHF Final Energy:  -270.01135345973034
    Total Energy =                       -270.0113534597304579
  Basis Set: 6-31G*
  Basis Set:
  @DF-RHF Final Energy:  -270.01135311365988
    Total Energy =                       -270.0113531136598795
  Basis Set: 6-31G*
  Basis Set:
  Basis Set: 6-31G*
  Basis Set:
  @DF-RHF Final Energy:  -270.01137642569961
    Total Energy =                       -270.0113764256996092
  Basis Set: 6-31G*
  Basis Set:
  Basis Set: 6-31G*
  Basis Set:
  @DF-RHF Final Energy:  -270.01137890082890
    Total Energy =                       -270.0113789008288450
  Basis Set: 6-31G*
  Basis Set:
  Charge       = 0
  Multiplicity = 1
  Basis Set: 6-31G*
  Basis Set:

    Orbital Energies (a.u.)
    -----------------------

    Doubly Occupied:

       1A    -20.561215     2A    -11.325568     3A    -11.236263
       4A    -11.234676     5A    -11.230224     6A    -11.218774
       7A     -1.401126     8A     -1.092237     9A     -1.015238
      10A     -0.905671    11A     -0.833893    12A     -0.771901
      13A     -0.677002    14A     -0.644494    15A     -0.624980
      16A     -0.602797    17A     -0.581036    18A     -0.561959
      19A     -0.521791    20A     -0.512273    21A     -0.493326
      22A     -0.475133    23A     -0.469456    24A     -0.407759

  @DF-RHF Final Energy:  -270.01137912676199

   => Energetics <=

    Nuclear Repulsion Energy =            233.8327186218450606
    One-Electron Energy =                -828.8906090565455997
    Two-Electron Energy =                 325.0465113079385446
    DFT Exchange-Correlation Energy =       0.0000000000000000
    Empirical Dispersion Energy =           0.0000000000000000
    PCM Polarization Energy =               0.0000000000000000
    EFP Energy =                            0.0000000000000000
    Total Energy =                       -270.0113791267619945
    Molecular point group: c1
  Basis Set: 6-31G*
  Basis Set:

  -Total Gradient:
     Atom            X                  Y                   Z
    ------   -----------------  -----------------  -----------------
       1       -0.000014618906     0.000000130698    -0.000013271251
       2        0.000003982453     0.000022680550     0.000033521190
       3        0.000871531397    -0.001148800805    -0.001430436182
       4       -0.000002981312    -0.000021207509    -0.000023395671
       5        0.000690844099    -0.001163345142     0.001436066283
       6       -0.000824323370     0.001124621139     0.000966248866
       7        0.000002395064     0.000002455171     0.000007247409
       8       -0.000014176799     0.000006206740    -0.000009967419
       9       -0.000717433289     0.001173724727    -0.000964139941
      10       -0.000001489322     0.000002613057    -0.000006650935
      11        0.000003701302     0.000006657394     0.000007845544
      12        0.000007558776     0.000004932574    -0.000003035510
      13        0.000000713442    -0.000006946922     0.000000921901
      14        0.000000184136     0.000000066264     0.000000781334
      15       -0.000003786467    -0.000001904835    -0.000000708907
      16       -0.000002101204    -0.000001883101    -0.000001026713

  **** Optimization is complete! (in 10 steps) ****
    Final optimized geometry and variables:
    Molecular point group: c1

    Geometry (in Angstrom), charge = 0, multiplicity = 1:

    H            0.642950132345     1.712354392132    -0.854056837256
    C            1.096539371465     1.215422274502     0.008995795880
    C            1.328764714831    -0.270815161465    -0.127296847008
    O            1.393280446343     1.849650202762     0.969886880420
    C            0.037920133896    -1.136110001346    -0.215648740429
    H            1.924774214039    -0.565129115180     0.727118165507
    H            1.930594222541    -0.415645788289    -1.021120395904
    C           -1.287984110756    -0.372135165338    -0.327614263665
    H            0.116203893998    -1.798927715866    -1.071532066825
    H           -0.008235139708    -1.771322659501     0.662489347519
    C           -2.488901169032    -1.316748105126    -0.350035609069
    H           -1.296865635744     0.232312484762    -1.231377637402
    H           -1.391002130516     0.316666199423     0.507341800697
    H           -2.434267108288    -2.001231353003    -1.191713116106
    H           -3.418898367945    -0.763758173088    -0.432659308417
    H           -2.536088657841    -1.911173395598     0.557645325559

  Mulliken Charges: (a.u.)
   Center  Symbol    Alpha    Beta     Spin     Total
       1     H     0.42972  0.42972  0.00000  0.14056
       2     C     2.83575  2.83575  0.00000  0.32850
       3     C     3.21150  3.21150  0.00000 -0.42300
       4     O     4.23715  4.23715  0.00000 -0.47431
       5     C     3.15685  3.15685  0.00000 -0.31370
       6     H     0.39729  0.39729  0.00000  0.20543
       7     H     0.40967  0.40967  0.00000  0.18066
       8     C     3.16609  3.16609  0.00000 -0.33217
       9     H     0.41565  0.41565  0.00000  0.16871
      10     H     0.41139  0.41139  0.00000  0.17722
      11     C     3.23963  3.23963  0.00000 -0.47926
      12     H     0.42096  0.42096  0.00000  0.15808
      13     H     0.41356  0.41356  0.00000  0.17288
      14     H     0.42039  0.42039  0.00000  0.15923
      15     H     0.41562  0.41562  0.00000  0.16877
      16     H     0.41880  0.41880  0.00000  0.16241

   Total alpha = 24.00000, Total beta = 24.00000, Total charge = -0.00000
