  ==> Input File <==

--------------------------------------------------------------------------
set {
	reference rhf
	basis cc-pvtz
}

set_num_threads( 4 )
memory 2 gb

molecule MOL {
0 1

H	 -3.051669	 1.821362	 0.733281
O	 -2.391450	 1.841420	 1.402728
C	 -1.126442	 1.839816	 0.816743
C	 -0.793473	 0.591216	 0.050087
H	 -0.414270	 1.963086	 1.624157
H	 -1.002084	 2.698990	 0.160196
C	 -1.534243	 -0.493009	 -0.013340
H	 0.144290	 0.626342	 -0.479642
H	 -1.101195	 -1.466332	 -0.144046
H	 -2.604242	 -0.437780	 0.050785

	symmetry c1
}
set optking {
	frozen_dihedral = ("
		3 4 7 9
	")
}

ee = optimize('scf')
oeprop('DIPOLE', 'QUADRUPOLE', 'MULLIKEN_CHARGES')
f=open( 'psi4out.xyz', 'w' )
f.write( "10  " )
f.write( str(ee) + "\n" )
f.write( MOL.save_string_xyz() )
f.close()
--------------------------------------------------------------------------

    Molecular point group: c1
  Charge       = 0
  Multiplicity = 1
  Basis Set: CC-PVTZ
  Basis Set:
  @DF-RHF Final Energy:  -191.97683941041151
    Total Energy =                       -191.9768394104114577
    Molecular point group: c1
  Basis Set: CC-PVTZ
  Basis Set:
  Basis Set: CC-PVTZ
  Basis Set:
  @DF-RHF Final Energy:  -191.98800738547931
    Total Energy =                       -191.9880073854793068
  Basis Set: CC-PVTZ
  Basis Set:
  Basis Set: CC-PVTZ
  Basis Set:
  @DF-RHF Final Energy:  -191.99006722010890
    Total Energy =                       -191.9900672201088696
  Basis Set: CC-PVTZ
  Basis Set:
  Basis Set: CC-PVTZ
  Basis Set:
  @DF-RHF Final Energy:  -191.99010428276219
    Total Energy =                       -191.9901042827621893
  Basis Set: CC-PVTZ
  Basis Set:
  Charge       = 0
  Multiplicity = 1
  Basis Set: CC-PVTZ
  Basis Set:

    Orbital Energies (a.u.)
    -----------------------

    Doubly Occupied:

       1A    -20.555117     2A    -11.280115     3A    -11.230679
       4A    -11.215808     5A     -1.375202     6A     -1.062285
       7A     -0.932051     8A     -0.771442     9A     -0.692218
      10A     -0.662503    11A     -0.621614    12A     -0.575337
      13A     -0.541389    14A     -0.493091    15A     -0.454174
      16A     -0.364133

  @DF-RHF Final Energy:  -191.99010609944304

   => Energetics <=

    Nuclear Repulsion Energy =            119.3343931906509141
    One-Electron Energy =                -496.9946826570966323
    Two-Electron Energy =                 185.6701833670025508
    DFT Exchange-Correlation Energy =       0.0000000000000000
    Empirical Dispersion Energy =           0.0000000000000000
    PCM Polarization Energy =               0.0000000000000000
    EFP Energy =                            0.0000000000000000
    Total Energy =                       -191.9901060994431532
    Molecular point group: c1
  Basis Set: CC-PVTZ
  Basis Set:

  -Total Gradient:
     Atom            X                  Y                   Z
    ------   -----------------  -----------------  -----------------
       1       -0.000024932805     0.000004214717     0.000009166517
       2       -0.000014870207    -0.000070892359    -0.000042688406
       3        0.008032423493    -0.005200766213     0.010631392674
       4       -0.012098420236     0.007770914118    -0.009623434515
       5        0.000037990546    -0.000018627317    -0.000001729561
       6        0.000040428732    -0.000036659339    -0.000022312782
       7        0.000883511847    -0.000074098361    -0.019720655071
       8        0.000019420749     0.000042499113    -0.000058861919
       9        0.003151832795    -0.002409390936     0.018734717084
      10       -0.000027384917    -0.000007193422     0.000094405982

  **** Optimization is complete! (in 5 steps) ****
    Final optimized geometry and variables:
    Molecular point group: c1

    Geometry (in Angstrom), charge = 0, multiplicity = 1:

    H           -1.530612148609     0.964227724694     0.092618537254
    O           -0.900787365443     0.857204122497     0.782545249840
    C            0.386748411860     0.826190329790     0.247317493474
    C            0.696682600614    -0.387768866379    -0.584154723079
    H            1.071231038665     0.812136086626     1.086584785052
    H            0.594786023448     1.737332357275    -0.310301318851
    C            0.005198621046    -1.507140961943    -0.613919354990
    H            1.695409108794    -0.382496298737    -0.992677795739
    H            0.470548959461    -2.453350010368    -0.816332558885
    H           -0.967340353207    -1.557241361288    -0.158956870207

  Mulliken Charges: (a.u.)
   Center  Symbol    Alpha    Beta     Spin     Total
       1     H     0.39105  0.39105  0.00000  0.21791
       2     O     4.19850  4.19850  0.00000 -0.39699
       3     C     2.95225  2.95225  0.00000  0.09550
       4     C     3.08782  3.08782  0.00000 -0.17563
       5     H     0.45189  0.45189  0.00000  0.09621
       6     H     0.46610  0.46610  0.00000  0.06779
       7     C     3.17044  3.17044  0.00000 -0.34088
       8     H     0.42646  0.42646  0.00000  0.14708
       9     H     0.42641  0.42641  0.00000  0.14719
      10     H     0.42909  0.42909  0.00000  0.14183

   Total alpha = 16.00000, Total beta = 16.00000, Total charge = -0.00000
