                              Psi4 1.0.54 Driver

  ==> Input File <==

--------------------------------------------------------------------------
set {
	reference rhf
	basis cc-pvtz
}

set_num_threads( 4 )
memory 2 gb

molecule MOL {
0 1

O	 -0.805971	 -1.109630	 1.082993
C	 -0.560896	 -0.075209	 0.531060
C	 -1.596250	 1.030187	 0.499846
N	 0.622280	 0.144970	 -0.099307
H	 -1.862446	 1.292843	 -0.516272
H	 -2.470254	 0.667655	 1.014801
H	 -1.235029	 1.923214	 0.994818
C	 1.664396	 -0.854993	 0.000772
C	 1.050102	 1.435738	 -0.583705
H	 2.462727	 -0.615153	 -0.690869
H	 1.261798	 -1.821849	 -0.240651
H	 2.081615	 -0.891605	 1.003877
H	 1.660452	 1.299741	 -1.467229
H	 0.213817	 2.055492	 -0.858346
H	 1.645994	 1.968975	 0.153598

	symmetry c1
}
set optking {
	frozen_dihedral = ("
		2 4 8 10
	")
}

ee,wfn = optimize('scf', return_wfn=True)
oeprop( wfn, 'DIPOLE', 'QUADRUPOLE', 'MULLIKEN_CHARGES')
f=open( 'psi4out.xyz', 'w' )
f.write( "15  " )
f.write( str(ee) + "\n" )
f.write( MOL.save_string_xyz() )
f.close()
--------------------------------------------------------------------------

    Molecular point group: c1
  Charge       = 0
  Multiplicity = 1
  Basis Set: CC-PVTZ
  Basis Set:
  @DF-RHF Final Energy:  -286.13475577642089
    Total Energy =                       -286.1347557764206613
    Molecular point group: c1
  Basis Set: CC-PVTZ
  Basis Set:
  Basis Set: CC-PVTZ
  Basis Set:
  @DF-RHF Final Energy:  -286.13514009135514
    Total Energy =                       -286.1351400913548559
  Basis Set: CC-PVTZ
  Basis Set:
  Basis Set: CC-PVTZ
  Basis Set:
  @DF-RHF Final Energy:  -286.13515987998335
    Total Energy =                       -286.1351598799833482
  Basis Set: CC-PVTZ
  Basis Set:
  Basis Set: CC-PVTZ
  Basis Set:
  @DF-RHF Final Energy:  -286.13522848579856
    Total Energy =                       -286.1352284857985637
  Basis Set: CC-PVTZ
  Basis Set:
  Basis Set: CC-PVTZ
  Basis Set:
  @DF-RHF Final Energy:  -286.13524689322776
    Total Energy =                       -286.1352468932277020
  Basis Set: CC-PVTZ
  Basis Set:
  Basis Set: CC-PVTZ
  Basis Set:
  @DF-RHF Final Energy:  -286.13525069820747
    Total Energy =                       -286.1352506982077557
  Basis Set: CC-PVTZ
  Basis Set:
  Charge       = 0
  Multiplicity = 1
  Basis Set: CC-PVTZ
  Basis Set:

    Orbital Energies (a.u.)
    -----------------------

    Doubly Occupied:

       1A    -20.504736     2A    -15.577481     3A    -11.333451
       4A    -11.264267     5A    -11.246954     6A    -11.226596
       7A     -1.388262     8A     -1.244710     9A     -1.014700
      10A     -0.973553    11A     -0.919515    12A     -0.738398
      13A     -0.682193    14A     -0.660523    15A     -0.653735
      16A     -0.589051    17A     -0.577801    18A     -0.570076
      19A     -0.564290    20A     -0.547085    21A     -0.531050
      22A     -0.503261    23A     -0.414728    24A     -0.371126

  @DF-RHF Final Energy:  -286.13525264599753

   => Energetics <=

    Nuclear Repulsion Energy =            253.1134295148347348
    One-Electron Energy =                -890.3022771317223487
    Two-Electron Energy =                 351.0535949708901171
    DFT Exchange-Correlation Energy =       0.0000000000000000
    Empirical Dispersion Energy =           0.0000000000000000
    PCM Polarization Energy =               0.0000000000000000
    EFP Energy =                            0.0000000000000000
    Total Energy =                       -286.1352526459975252
    Molecular point group: c1
  Basis Set: CC-PVTZ
  Basis Set:

  -Total Gradient:
     Atom            X                  Y                   Z
    ------   -----------------  -----------------  -----------------
       1        0.000014941644    -0.000023915729    -0.000023956870
       2        0.000352237171     0.000387209327     0.000589750303
       3        0.000012487758    -0.000032484595    -0.000020755294
       4       -0.000355914506    -0.000331414131    -0.000685488097
       5        0.000000409442     0.000002918467    -0.000005467048
       6       -0.000031214423    -0.000008444940     0.000021275142
       7        0.000012170004    -0.000000406869     0.000006200870
       8       -0.000441206805    -0.000439763270    -0.000441653056
       9       -0.000019926493    -0.000075228663    -0.000021509320
      10        0.000383199226     0.000518845646     0.000611212713
      11       -0.000005604510    -0.000080013812    -0.000009250951
      12        0.000014658590    -0.000006029440     0.000004609492
      13        0.000019128122     0.000035864990    -0.000036525819
      14        0.000019780340     0.000020015103     0.000000440878
      15        0.000024854443     0.000032847915     0.000011117058

  **** Optimization is complete! (in 7 steps) ****
    Final optimized geometry and variables:
    Molecular point group: c1

    Geometry (in Angstrom), charge = 0, multiplicity = 1:

    O           -0.834793580405    -1.199597602003     0.865928189961
    C           -0.628028315840    -0.170579377005     0.288861417035
    C           -1.685868888675     0.911992819966     0.254576656429
    N            0.540421533427     0.047681207809    -0.368059890324
    H           -1.941567340280     1.185512898629    -0.761164901778
    H           -2.559793531377     0.526034616816     0.752762312374
    H           -1.348963551125     1.803754512967     0.769178598449
    C            1.572802712516    -0.960531610298    -0.220878340076
    C            0.974235232786     1.348068154019    -0.823344612790
    H            2.365617406501    -0.752533111453    -0.925438047520
    H            1.168994216002    -1.940620549962    -0.415255876535
    H            1.993392713362    -0.962481995244     0.779840585038
    H            1.559671014583     1.237146159414    -1.726501745436
    H            0.135910114090     1.982302377910    -1.055594845352
    H            1.590745936329     1.854656074832    -0.084022040220

  Mulliken Charges: (a.u.)
   Center  Symbol    Alpha    Beta     Spin     Total
       1     O     4.21907  4.21907  0.00000 -0.43814
       2     C     2.84503  2.84503  0.00000  0.30993
       3     C     3.16025  3.16025  0.00000 -0.32050
       4     N     3.56429  3.56429  0.00000 -0.12858
       5     H     0.44882  0.44882  0.00000  0.10235
       6     H     0.42883  0.42883  0.00000  0.14234
       7     H     0.44904  0.44904  0.00000  0.10193
       8     C     3.09166  3.09166  0.00000 -0.18331
       9     C     3.09680  3.09680  0.00000 -0.19360
      10     H     0.45786  0.45786  0.00000  0.08429
      11     H     0.43522  0.43522  0.00000  0.12956
      12     H     0.45349  0.45349  0.00000  0.09302
      13     H     0.44845  0.44845  0.00000  0.10310
      14     H     0.44566  0.44566  0.00000  0.10869
      15     H     0.45554  0.45554  0.00000  0.08893

   Total alpha = 24.00000, Total beta = 24.00000, Total charge = -0.00000

*** Psi4 exiting successfully. Buy a developer a beer!
