  ==> Input File <==

--------------------------------------------------------------------------
set {
	reference rhf
	basis cc-pvtz
}

set_num_threads( 4 )
memory 2 gb

molecule MOL {
0 1

O	 -0.694481	 1.313155	 -0.204815
C	 -0.862519	 0.151932	 -0.046791
C	 -2.171428	 -0.477048	 0.339095
O	 0.085519	 -0.757083	 -0.192238
H	 -2.467997	 -1.191667	 -0.417688
H	 -2.923379	 0.287970	 0.444097
H	 -2.053854	 -1.015120	 1.270901
C	 1.392036	 -0.330828	 -0.560749
C	 1.484403	 1.178294	 -0.649729
H	 1.666035	 -0.793020	 -1.496227
H	 2.033954	 -0.710040	 0.220207
H	 2.506667	 1.467434	 -0.866120
H	 0.849649	 1.558561	 -1.438315
H	 1.192529	 1.635464	 0.288033

	symmetry c1
}
set optking {
	frozen_dihedral = ("
		10 8 4 2
	")
}

ee = optimize('scf')
oeprop('DIPOLE', 'QUADRUPOLE', 'MULLIKEN_CHARGES')
f=open( 'psi4out.xyz', 'w' )
f.write( "14  " )
f.write( str(ee) + "\n" )
f.write( MOL.save_string_xyz() )
f.close()
--------------------------------------------------------------------------

    Molecular point group: c1
  Charge       = 0
  Multiplicity = 1
  Basis Set: CC-PVTZ
  Basis Set:
  @DF-RHF Final Energy:  -305.94883690133872
    Total Energy =                       -305.9488369013384954
    Molecular point group: c1
  Basis Set: CC-PVTZ
  Basis Set:
  Basis Set: CC-PVTZ
  Basis Set:
  @DF-RHF Final Energy:  -305.97279304458925
    Total Energy =                       -305.9727930445893662
  Basis Set: CC-PVTZ
  Basis Set:
  Basis Set: CC-PVTZ
  Basis Set:
  @DF-RHF Final Energy:  -305.97765027980472
    Total Energy =                       -305.9776502798045499
  Basis Set: CC-PVTZ
  Basis Set:
  Basis Set: CC-PVTZ
  Basis Set:
  @DF-RHF Final Energy:  -305.97883071460387
    Total Energy =                       -305.9788307146037027
  Basis Set: CC-PVTZ
  Basis Set:
  @DF-RHF Final Energy:  -305.97507909505237
    Total Energy =                       -305.9750790950523083
  @DF-RHF Final Energy:  -305.97949406175098
    Total Energy =                       -305.9794940617510974
  Basis Set: CC-PVTZ
  Basis Set:
  @DF-RHF Final Energy:  -305.97962028709020
    Total Energy =                       -305.9796202870898014
  Basis Set: CC-PVTZ
  Basis Set:
  Basis Set: CC-PVTZ
  Basis Set:
  @DF-RHF Final Energy:  -305.97962617291489
    Total Energy =                       -305.9796261729147773
  Basis Set: CC-PVTZ
  Basis Set:
  Basis Set: CC-PVTZ
  Basis Set:
  @DF-RHF Final Energy:  -305.97962829712424
    Total Energy =                       -305.9796282971241226
  Basis Set: CC-PVTZ
  Basis Set:
  Charge       = 0
  Multiplicity = 1
  Basis Set: CC-PVTZ
  Basis Set:

    Orbital Energies (a.u.)
    -----------------------

    Doubly Occupied:

       1A    -20.591240     2A    -20.528223     3A    -11.368298
       4A    -11.290201     5A    -11.228439     6A    -11.214001
       7A     -1.463220     8A     -1.364903     9A     -1.056331
      10A     -0.996364    11A     -0.894844    12A     -0.748355
      13A     -0.687799    14A     -0.684922    15A     -0.674531
      16A     -0.610604    17A     -0.588901    18A     -0.569061
      19A     -0.548256    20A     -0.536052    21A     -0.516884
      22A     -0.496656    23A     -0.444424    24A     -0.433349

  @DF-RHF Final Energy:  -305.97962839737551

   => Energetics <=

    Nuclear Repulsion Energy =            249.0181364838559261
    One-Electron Energy =                -910.9238157808614460
    Two-Electron Energy =                 355.9260508996302406
    DFT Exchange-Correlation Energy =       0.0000000000000000
    Empirical Dispersion Energy =           0.0000000000000000
    PCM Polarization Energy =               0.0000000000000000
    EFP Energy =                            0.0000000000000000
    Total Energy =                       -305.9796283973752224
    Molecular point group: c1
  Basis Set: CC-PVTZ
  Basis Set:

  -Total Gradient:
     Atom            X                  Y                   Z
    ------   -----------------  -----------------  -----------------
       1       -0.000008534047     0.000005291241    -0.000004540578
       2        0.000230129817     0.000090685124     0.000949214837
       3        0.000011682670     0.000001816319     0.000016468600
       4       -0.000272116336    -0.000304383979    -0.001389114430
       5       -0.000004016351    -0.000000313496    -0.000010071984
       6        0.000004786057     0.000001100928    -0.000003213134
       7       -0.000001012304    -0.000006552283    -0.000004470463
       8       -0.000287948772     0.000969143660    -0.000061449222
       9       -0.000014651103     0.000030266195     0.000002995335
      10        0.000324544258    -0.000777979783     0.000512538710
      11       -0.000001613581    -0.000004454268    -0.000000086198
      12        0.000004563094    -0.000003114031    -0.000003211080
      13        0.000008586505    -0.000000820600    -0.000000869281
      14        0.000005600093    -0.000000685027    -0.000004191110

  **** Optimization is complete! (in 10 steps) ****
    Final optimized geometry and variables:
    Molecular point group: c1

    Geometry (in Angstrom), charge = 0, multiplicity = 1:

    O           -0.829931104267     1.138310064782     0.010873801664
    C           -0.829559796706    -0.032867980118     0.174490113081
    C           -2.041888638995    -0.822274392558     0.591111602983
    O            0.206109999096    -0.835317136938     0.018901920710
    H           -2.259025069864    -1.576239950360    -0.154323367281
    H           -2.882923866085    -0.157664344982     0.704117965759
    H           -1.840810484217    -1.331972500437     1.524503916693
    C            1.543652690872    -0.469295113606    -0.327111949488
    C            1.907658774243     0.997467188824    -0.459418194880
    H            1.750129654072    -0.988716665767    -1.252976735643
    H            2.154546351798    -0.923975983373     0.440505817533
    H            2.969749679812     1.030302610188    -0.681953720289
    H            1.371919040455     1.486725634558    -1.256895437075
    H            1.732578577676     1.546002875238     0.453650448965

  Mulliken Charges: (a.u.)
   Center  Symbol    Alpha    Beta     Spin     Total
       1     O     4.19749  4.19749  0.00000 -0.39498
       2     C     2.80674  2.80674  0.00000  0.38651
       3     C     3.13435  3.13435  0.00000 -0.26871
       4     O     4.15585  4.15585  0.00000 -0.31170
       5     H     0.44634  0.44634  0.00000  0.10733
       6     H     0.43910  0.43910  0.00000  0.12179
       7     H     0.44686  0.44686  0.00000  0.10628
       8     C     2.98116  2.98116  0.00000  0.03767
       9     C     3.14802  3.14802  0.00000 -0.29604
      10     H     0.45373  0.45373  0.00000  0.09254
      11     H     0.45300  0.45300  0.00000  0.09399
      12     H     0.45277  0.45277  0.00000  0.09446
      13     H     0.44072  0.44072  0.00000  0.11856
      14     H     0.44386  0.44386  0.00000  0.11229

   Total alpha = 24.00000, Total beta = 24.00000, Total charge = -0.00000
