  ==> Input File <==

--------------------------------------------------------------------------
set {
	reference rhf
	basis 6-31G*
}

set_num_threads( 4 )
memory 2 gb

molecule MOL {
0 1

H	 1.261358	 -1.605600	 -2.683710
C	 1.278337	 -0.859408	 -1.894315
C	 0.048068	 -1.000475	 -1.003440
H	 1.297734	 0.124447	 -2.349744
H	 2.202877	 -0.988899	 -1.342053
N	 -0.000257	 -0.000071	 0.054619
H	 -0.831031	 -0.883349	 -1.624604
H	 -0.003704	 -2.012764	 -0.592008
C	 -1.363055	 0.315058	 0.462241
C	 0.854918	 -0.341081	 1.183798
C	 -2.412078	 -0.285320	 -0.468531
H	 -1.482241	 1.391144	 0.451970
H	 -1.549931	 -0.001174	 1.492681
C	 1.365928	 0.887203	 1.930410
H	 1.712075	 -0.886825	 0.810168
H	 0.343680	 -1.016099	 1.876455
H	 -2.262839	 0.075384	 -1.480151
H	 -2.369300	 -1.368867	 -0.491760
H	 -3.410332	 -0.003975	 -0.144961
H	 1.923989	 1.527522	 1.256471
H	 0.559582	 1.474574	 2.356265
H	 2.019859	 0.589668	 2.745378

	symmetry c1
}
set optking {
	frozen_dihedral = ("
		3 6 9 11
	")
}

ee = optimize('scf')
oeprop('DIPOLE', 'QUADRUPOLE', 'MULLIKEN_CHARGES')
f=open( 'psi4out.xyz', 'w' )
f.write( "22  " )
f.write( str(ee) + "\n" )
f.write( MOL.save_string_xyz() )
f.close()
--------------------------------------------------------------------------

    Molecular point group: c1
  Charge       = 0
  Multiplicity = 1
  Basis Set: 6-31G*
  Basis Set:
  @DF-RHF Final Energy:  -290.35197456777018
    Total Energy =                       -290.3519745677699007
    Molecular point group: c1
  Basis Set: 6-31G*
  Basis Set:
  Basis Set: 6-31G*
  Basis Set:
  @DF-RHF Final Energy:  -290.34877709942072
    Total Energy =                       -290.3487770994204311
  Basis Set: 6-31G*
  Basis Set:
  Basis Set: 6-31G*
  Basis Set:
  @DF-RHF Final Energy:  -290.36037669302164
    Total Energy =                       -290.3603766930216352
  Basis Set: 6-31G*
  Basis Set:
  Basis Set: 6-31G*
  Basis Set:
  @DF-RHF Final Energy:  -290.36302945369800
    Total Energy =                       -290.3630294536980045
  Basis Set: 6-31G*
  Basis Set:
  @DF-RHF Final Energy:  -290.36327196593453
    Total Energy =                       -290.3632719659345298
  @DF-RHF Final Energy:  -290.36356523911792
    Total Energy =                       -290.3635652391182020
  Basis Set: 6-31G*
  Basis Set:
  @DF-RHF Final Energy:  -290.36359038776408
    Total Energy =                       -290.3635903877641340
  Basis Set: 6-31G*
  Basis Set:
  Basis Set: 6-31G*
  Basis Set:
  @DF-RHF Final Energy:  -290.36359302401593
    Total Energy =                       -290.3635930240168364
  Basis Set: 6-31G*
  Basis Set:
  Basis Set: 6-31G*
  Basis Set:
  @DF-RHF Final Energy:  -290.36359536182039
    Total Energy =                       -290.3635953618207850
  Basis Set: 6-31G*
  Basis Set:
  Charge       = 0
  Multiplicity = 1
  Basis Set: 6-31G*
  Basis Set:

    Orbital Energies (a.u.)
    -----------------------

    Doubly Occupied:

       1A    -15.532249     2A    -11.241770     3A    -11.239264
       4A    -11.238306     5A    -11.213325     6A    -11.203656
       7A    -11.203029     8A     -1.217632     9A     -1.024621
      10A     -1.022337    11A     -0.956014    12A     -0.857515
      13A     -0.843025    14A     -0.758547    15A     -0.652337
      16A     -0.641766    17A     -0.624275    18A     -0.593259
      19A     -0.589470    20A     -0.546466    21A     -0.533493
      22A     -0.518653    23A     -0.513658    24A     -0.501983
      25A     -0.491907    26A     -0.487484    27A     -0.466770
      28A     -0.459651    29A     -0.327227

  @DF-RHF Final Energy:  -290.36359571099018

   => Energetics <=

    Nuclear Repulsion Energy =            337.2762449856080025
    One-Electron Energy =               -1060.2803028559660561
    Two-Electron Energy =                 432.6404621593680417
    DFT Exchange-Correlation Energy =       0.0000000000000000
    Empirical Dispersion Energy =           0.0000000000000000
    PCM Polarization Energy =               0.0000000000000000
    EFP Energy =                            0.0000000000000000
    Total Energy =                       -290.3635957109900687
    Molecular point group: c1
  Basis Set: 6-31G*
  Basis Set:

  -Total Gradient:
     Atom            X                  Y                   Z
    ------   -----------------  -----------------  -----------------
       1       -0.000006482346    -0.000002981343     0.000005151200
       2        0.000015327046     0.000002046378     0.000033014303
       3        0.000006859437     0.002110126170    -0.001926566693
       4       -0.000004527643    -0.000002415497     0.000002645448
       5        0.000013801503     0.000000731839     0.000007259637
       6       -0.000147238016    -0.004191290276     0.003520839541
       7       -0.000013274072    -0.000000119506    -0.000004587284
       8        0.000008819124     0.000014320072     0.000011298447
       9        0.000340348297     0.004303903078    -0.003075459290
      10       -0.000011846611    -0.000012711186     0.000003639099
      11       -0.000236389290    -0.002207305956     0.001439241331
      12       -0.000012055845    -0.000003012479     0.000000168133
      13        0.000002777810    -0.000005842357    -0.000013829927
      14        0.000004054716    -0.000000989844     0.000003808734
      15        0.000018594353     0.000002303757    -0.000008935597
      16        0.000005416496    -0.000003566475     0.000005287687
      17        0.000001379767    -0.000003362146    -0.000001501763
      18       -0.000003399207     0.000001180212     0.000000473755
      19       -0.000000001436     0.000001178015     0.000000690669
      20       -0.000003925732     0.000003012802    -0.000000281174
      21        0.000015887131    -0.000005396638    -0.000000017169
      22        0.000005874519     0.000000191378    -0.000002339086

  **** Optimization is complete! (in 10 steps) ****
    Final optimized geometry and variables:
    Molecular point group: c1

    Geometry (in Angstrom), charge = 0, multiplicity = 1:

    H            1.448951982599    -1.393690961551    -2.732831525721
    C            1.411714527925    -0.675241654420    -1.918332846464
    C            0.163676701016    -0.909593325570    -1.068271808315
    H            1.392358716585     0.323822957421    -2.339794104169
    H            2.329519669092    -0.780482906016    -1.350757998763
    N            0.029080498119     0.066205557240    -0.000822242730
    H           -0.688396924230    -0.834501712030    -1.725058345512
    H            0.169113230896    -1.935958988201    -0.687618708024
    C           -1.303312959414     0.492413408494     0.428918451479
    C            0.923946862779    -0.155823318744     1.118215675466
    C           -2.490250327199     0.060701904202    -0.428549777007
    H           -1.316234408807     1.575859389202     0.506659248996
    H           -1.493100977789     0.116133261931     1.435833129594
    C            1.271580370925     1.124937587686     1.872358984039
    H            1.843604065721    -0.585843099751     0.743399241674
    H            0.504192591654    -0.887327419180     1.817260865056
    H           -2.433772049187     0.448372189947    -1.440075806580
    H           -2.589626251018    -1.017825233854    -0.478815454175
    H           -3.397114786062     0.454906961786     0.019532068615
    H            1.705445333490     1.853185477007     1.195464396916
    H            0.400798538091     1.574557890042     2.337037299577
    H            1.989834681685     0.914340744096     2.659530311095

  Mulliken Charges: (a.u.)
   Center  Symbol    Alpha    Beta     Spin     Total
       1     H     0.42459  0.42459  0.00000  0.15083
       2     C     3.23481  3.23481  0.00000 -0.46961
       3     C     3.05231  3.05231  0.00000 -0.10462
       4     H     0.41664  0.41664  0.00000  0.16672
       5     H     0.42185  0.42185  0.00000  0.15630
       6     N     3.80010  3.80010  0.00000 -0.60020
       7     H     0.41469  0.41469  0.00000  0.17061
       8     H     0.43473  0.43473  0.00000  0.13053
       9     C     3.03757  3.03757  0.00000 -0.07515
      10     C     3.05371  3.05371  0.00000 -0.10742
      11     C     3.25760  3.25760  0.00000 -0.51520
      12     H     0.41950  0.41950  0.00000  0.16100
      13     H     0.43145  0.43145  0.00000  0.13710
      14     C     3.23936  3.23936  0.00000 -0.47872
      15     H     0.41895  0.41895  0.00000  0.16209
      16     H     0.43427  0.43427  0.00000  0.13145
      17     H     0.41625  0.41625  0.00000  0.16750
      18     H     0.41686  0.41686  0.00000  0.16628
      19     H     0.41611  0.41611  0.00000  0.16777
      20     H     0.41577  0.41577  0.00000  0.16845
      21     H     0.41993  0.41993  0.00000  0.16014
      22     H     0.42292  0.42292  0.00000  0.15415

   Total alpha = 29.00000, Total beta = 29.00000, Total charge =  0.00000
