                              Psi4 1.0.54 Driver

  ==> Input File <==

--------------------------------------------------------------------------
set {
	reference rhf
	basis cc-pvtz
}

set_num_threads( 4 )
memory 2 gb

molecule MOL {
0 1

O	 2.201378	 0.644254	 0.937172
C	 1.704209	 0.119472	 -0.000093
C	 0.380337	 -0.600947	 -0.000234
O	 2.262813	 0.098305	 -1.199230
C	 -0.824290	 0.329213	 -0.000115
H	 0.371455	 -1.255476	 -0.865660
H	 0.371410	 -1.255787	 0.864952
C	 -2.146151	 -0.432825	 -0.000068
H	 -0.773936	 0.979158	 -0.866319
H	 -0.773838	 0.979034	 0.866186
C	 -3.366283	 0.483552	 0.000557
H	 -2.189286	 -1.084450	 -0.869996
H	 -2.188867	 -1.085083	 0.869399
C	 -4.687436	 -0.278003	 0.000108
H	 -3.325150	 1.134819	 -0.867957
H	 -3.325087	 1.133730	 0.869885
H	 -4.773783	 -0.912098	 -0.876078
H	 -5.531922	 0.401392	 0.000363
H	 -4.773901	 -0.912898	 0.875703
C	 3.513702	 0.739937	 -1.343832
H	 3.433372	 1.790133	 -1.105403
H	 3.795548	 0.613253	 -2.376480
H	 4.251306	 0.287371	 -0.697815

	symmetry c1
}
set optking {
	frozen_dihedral = ("
		1 2 3 6
	")
}

ee,wfn = optimize('scf', return_wfn=True)
oeprop( wfn, 'DIPOLE', 'QUADRUPOLE', 'MULLIKEN_CHARGES')
f=open( 'psi4out.xyz', 'w' )
f.write( "23  " )
f.write( str(ee) + "\n" )
f.write( MOL.save_string_xyz() )
f.close()
--------------------------------------------------------------------------

    Molecular point group: c1
  Charge       = 0
  Multiplicity = 1
  Basis Set: CC-PVTZ
  Basis Set:
  @DF-RHF Final Energy:  -423.12896367281525
    Total Energy =                       -423.1289636728150754
    Molecular point group: c1
  Basis Set: CC-PVTZ
  Basis Set:
  Basis Set: CC-PVTZ
  Basis Set:
  @DF-RHF Final Energy:  -423.12959648253189
    Total Energy =                       -423.1295964825324063
  Basis Set: CC-PVTZ
  Basis Set:
  Basis Set: CC-PVTZ
  Basis Set:
  @DF-RHF Final Energy:  -422.89501653944444
    Total Energy =                       -422.8950165394439864
  Basis Set: CC-PVTZ
  Basis Set:
  Basis Set: CC-PVTZ
  Basis Set:
  @DF-RHF Final Energy:  -423.04518754870094
    Total Energy =                       -423.0451875487009374
  Basis Set: CC-PVTZ
  Basis Set:
  @DF-RHF Final Energy:  -423.12117312179305
    Total Energy =                       -423.1211731217930492
  @DF-RHF Final Energy:  -422.57636123467353
    Total Energy =                       -422.5763612346731861
  @DF-RHF Final Energy:  -422.91805897407960
    Total Energy =                       -422.9180589740798268
  @DF-RHF Final Energy:  -423.08264837049302
    Total Energy =                       -423.0826483704930752
  @DF-RHF Final Energy:  -423.12188633469771
    Total Energy =                       -423.1218863346978196
  @DF-RHF Final Energy:  -423.12818077031380
    Total Energy =                       -423.1281807703139748
  @DF-RHF Final Energy:  -423.12969256425896
    Total Energy =                       -423.1296925642586757
  Basis Set: CC-PVTZ
  Basis Set:
  @DF-RHF Final Energy:  -423.12937401932118
    Total Energy =                       -423.1293740193212898
  Basis Set: CC-PVTZ
  Basis Set:
  Basis Set: CC-PVTZ
  Basis Set:
  @DF-RHF Final Energy:  -423.12980083713040
    Total Energy =                       -423.1298008371309152
  Basis Set: CC-PVTZ
  Basis Set:
  Basis Set: CC-PVTZ
  Basis Set:
  @DF-RHF Final Energy:  -423.12980515954655
    Total Energy =                       -423.1298051595457537
  Basis Set: CC-PVTZ
  Basis Set:
  Charge       = 0
  Multiplicity = 1
  Basis Set: CC-PVTZ
  Basis Set:

    Orbital Energies (a.u.)
    -----------------------

    Doubly Occupied:

       1A    -20.598009     2A    -20.531088     3A    -11.363246
       4A    -11.278311     5A    -11.231733     6A    -11.226561
       7A    -11.219192     8A    -11.217553     9A    -11.209822
      10A     -1.471887    11A     -1.364099    12A     -1.097734
      13A     -1.046008    14A     -0.986666    15A     -0.934948
      16A     -0.846135    17A     -0.798469    18A     -0.774690
      19A     -0.696793    20A     -0.683303    21A     -0.675635
      22A     -0.654957    23A     -0.608255    24A     -0.597934
      25A     -0.579048    26A     -0.572608    27A     -0.541871
      28A     -0.536033    29A     -0.525396    30A     -0.506869
      31A     -0.491212    32A     -0.476146    33A     -0.470590
      34A     -0.466713    35A     -0.456959    36A     -0.431829

  @DF-RHF Final Energy:  -423.12980532133770

   => Energetics <=

    Nuclear Repulsion Energy =            454.7352826970702608
    One-Electron Energy =               -1477.3935815930251465
    Two-Electron Energy =                 599.5284935746169594
    DFT Exchange-Correlation Energy =       0.0000000000000000
    Empirical Dispersion Energy =           0.0000000000000000
    PCM Polarization Energy =               0.0000000000000000
    EFP Energy =                            0.0000000000000000
    Total Energy =                       -423.1298053213379262
    Molecular point group: c1
  Basis Set: CC-PVTZ
  Basis Set:

  -Total Gradient:
     Atom            X                  Y                   Z
    ------   -----------------  -----------------  -----------------
       1       -0.000256778810     0.000168297915    -0.000228528379
       2        0.000334831310    -0.000216641866     0.000267214187
       3        0.000065857249    -0.000174233055     0.000212918598
       4        0.000034485406     0.000024862662     0.000012401723
       5        0.000002019170    -0.000008015318    -0.000001604392
       6       -0.000147579616     0.000224801035    -0.000243849187
       7       -0.000001868485    -0.000006381922     0.000008724327
       8        0.000000739282     0.000000749808     0.000010353223
       9       -0.000001393399     0.000008817840    -0.000005679933
      10       -0.000011727056    -0.000000959273     0.000004761954
      11       -0.000001608561    -0.000001119371    -0.000011277559
      12        0.000008917165    -0.000000674271    -0.000004157249
      13       -0.000001915693    -0.000008555641     0.000004640534
      14       -0.000002219957     0.000008918182     0.000010726510
      15       -0.000000366966     0.000009121086    -0.000003822481
      16       -0.000007247744    -0.000001610751     0.000004789558
      17        0.000009197655    -0.000000578588    -0.000007261344
      18       -0.000002319099     0.000000151109    -0.000001420132
      19       -0.000001929320    -0.000006829816     0.000002982338
      20       -0.000024348784    -0.000010533118    -0.000034867343
      21       -0.000001269500     0.000003783496     0.000004477142
      22        0.000006613362    -0.000000129638    -0.000000803263
      23       -0.000000087607    -0.000013240499    -0.000000718834

  **** Optimization is complete! (in 15 steps) ****
    Final optimized geometry and variables:
    Molecular point group: c1

    Geometry (in Angstrom), charge = 0, multiplicity = 1:

    O            0.220156406880     0.824058569416     2.406662109534
    C            0.841557807166     0.696007922068     1.406262928392
    C            0.694058829953    -0.466664851313     0.459705114758
    O            1.722970236053     1.585677717045     0.982567081085
    C           -0.556849183803    -0.305765890054    -0.411531257701
    H            1.575753126715    -0.542620594116    -0.161524364529
    H            0.609723321864    -1.362776591961     1.060490425861
    C           -0.759032067947    -1.481180825351    -1.362420354975
    H           -0.477959089628     0.613809255077    -0.984236394600
    H           -1.422340180581    -0.201400194306     0.233240684155
    C           -2.001013648408    -1.337576129664    -2.237370046442
    H            0.117108734473    -1.586538700335    -1.997666703024
    H           -0.830592236847    -2.400160707955    -0.785860892352
    C           -2.203068672774    -2.514504840086    -3.185763991895
    H           -1.929673414854    -0.418981767511    -2.813219342047
    H           -2.876083153345    -1.231840512144    -1.602410886589
    H           -1.358377934519    -2.625613946810    -3.857552698484
    H           -3.091755676965    -2.381538776881    -3.791723238716
    H           -2.312732011486    -3.444369466755    -2.637747949740
    C            1.907401903680     2.741746811935     1.774873000254
    H            0.984528588267     3.295894344237     1.860797484787
    H            2.652228946273     3.333945661109     1.268472837020
    H            2.251169748068     2.474606782380     2.763009580220

  Mulliken Charges: (a.u.)
   Center  Symbol    Alpha    Beta     Spin     Total
       1     O     4.20570  4.20570  0.00000 -0.41140
       2     C     2.80819  2.80819  0.00000  0.38362
       3     C     3.07714  3.07714  0.00000 -0.15427
       4     O     4.14814  4.14814  0.00000 -0.29629
       5     C     3.09933  3.09933  0.00000 -0.19866
       6     H     0.44253  0.44253  0.00000  0.11493
       7     H     0.44121  0.44121  0.00000  0.11759
       8     C     3.09102  3.09102  0.00000 -0.18205
       9     H     0.44962  0.44962  0.00000  0.10077
      10     H     0.44141  0.44141  0.00000  0.11719
      11     C     3.08473  3.08473  0.00000 -0.16946
      12     H     0.45418  0.45418  0.00000  0.09163
      13     H     0.45314  0.45314  0.00000  0.09371
      14     C     3.15019  3.15019  0.00000 -0.30039
      15     H     0.45395  0.45395  0.00000  0.09210
      16     H     0.45269  0.45269  0.00000  0.09463
      17     H     0.45508  0.45508  0.00000  0.08984
      18     H     0.44758  0.44758  0.00000  0.10485
      19     H     0.45454  0.45454  0.00000  0.09091
      20     C     3.03637  3.03637  0.00000 -0.07274
      21     H     0.45432  0.45432  0.00000  0.09135
      22     H     0.44544  0.44544  0.00000  0.10911
      23     H     0.45349  0.45349  0.00000  0.09301

   Total alpha = 36.00000, Total beta = 36.00000, Total charge = -0.00000

*** Psi4 exiting successfully. Buy a developer a beer!
