  ==> Input File <==

--------------------------------------------------------------------------
set {
	reference rhf
	basis cc-pvtz
}

set_num_threads( 4 )
memory 2 gb

molecule MOL {
0 1

H	 2.764751	 0.511509	 0.679347
N	 2.326826	 -0.066186	 0.000000
C	 0.934676	 -0.005420	 0.000000
H	 2.744565	 0.049031	 -0.894003
C	 0.226436	 -0.001077	 -1.195129
C	 0.226436	 -0.001077	 1.195129
H	 0.759091	 -0.011439	 -2.128123
C	 -1.153391	 0.009141	 -1.189028
H	 0.759091	 -0.011439	 2.128123
C	 -1.153391	 0.009141	 1.189028
H	 -1.680905	 0.012964	 -2.124348
C	 -1.857876	 0.014675	 0.000000
H	 -1.680905	 0.012964	 2.124348
H	 -2.930222	 0.022904	 0.000000

	symmetry c1
}
set optking {
	frozen_dihedral = ("
		1 2 3 5
	")
}

ee = optimize('scf')
oeprop('DIPOLE', 'QUADRUPOLE', 'MULLIKEN_CHARGES')
f=open( 'psi4out.xyz', 'w' )
f.write( "14  " )
f.write( str(ee) + "\n" )
f.write( MOL.save_string_xyz() )
f.close()
--------------------------------------------------------------------------

    Molecular point group: c1
  Charge       = 0
  Multiplicity = 1
  Basis Set: CC-PVTZ
  Basis Set:
  @DF-RHF Final Energy:  -285.83305789331405
    Total Energy =                       -285.8330578933141624
    Molecular point group: c1
  Basis Set: CC-PVTZ
  Basis Set:
  Basis Set: CC-PVTZ
  Basis Set:
  @DF-RHF Final Energy:  -285.83319510403180
    Total Energy =                       -285.8331951040318017
  Basis Set: CC-PVTZ
  Basis Set:
  Basis Set: CC-PVTZ
  Basis Set:
  @DF-RHF Final Energy:  -285.83323056364634
    Total Energy =                       -285.8332305636467368
  Basis Set: CC-PVTZ
  Basis Set:
  Charge       = 0
  Multiplicity = 1
  Basis Set: CC-PVTZ
  Basis Set:

    Orbital Energies (a.u.)
    -----------------------

    Doubly Occupied:

       1A    -15.555461     2A    -11.270077     3A    -11.227621
       4A    -11.227413     5A    -11.216986     6A    -11.216025
       7A    -11.212569     8A     -1.225972     9A     -1.131170
      10A     -1.014055    11A     -0.988452    12A     -0.833032
      13A     -0.813333    14A     -0.707864    15A     -0.685117
      16A     -0.654328    17A     -0.601041    18A     -0.594739
      19A     -0.582480    20A     -0.532426    21A     -0.506547
      22A     -0.488225    23A     -0.448301    24A     -0.336597
      25A     -0.297597

  @DF-RHF Final Energy:  -285.83323421249446

   => Energetics <=

    Nuclear Repulsion Energy =            273.6699685556712325
    One-Electron Energy =                -928.2715473206178558
    Two-Electron Energy =                 368.7683445524519925
    DFT Exchange-Correlation Energy =       0.0000000000000000
    Empirical Dispersion Energy =           0.0000000000000000
    PCM Polarization Energy =               0.0000000000000000
    EFP Energy =                            0.0000000000000000
    Total Energy =                       -285.8332342124946877
    Molecular point group: c1
  Basis Set: CC-PVTZ
  Basis Set:

  -Total Gradient:
     Atom            X                  Y                   Z
    ------   -----------------  -----------------  -----------------
       1        0.000053638925     0.001480394415    -0.001267571000
       2       -0.000177854825    -0.001174288348     0.001576663120
       3        0.000063779712    -0.001824393706    -0.000270789137
       4        0.000108270605     0.000041154139    -0.000046316462
       5       -0.000077711055     0.001477288922    -0.000020700644
       6       -0.000040443548    -0.000025841463    -0.000016326867
       7        0.000024941760    -0.000006301732    -0.000022866794
       8        0.000160249595     0.000057085875    -0.000063461704
       9        0.000001187417    -0.000017379891    -0.000006601296
      10       -0.000123701046     0.000068707611    -0.000051430163
      11        0.000011642606    -0.000013953625     0.000009795817
      12       -0.000001116001    -0.000070480447     0.000173999047
      13       -0.000001809561     0.000011949032     0.000009479431
      14       -0.000001074583    -0.000003940782    -0.000003873348

  **** Optimization is complete! (in 4 steps) ****
    Final optimized geometry and variables:
    Molecular point group: c1

    Geometry (in Angstrom), charge = 0, multiplicity = 1:

    H            2.748840251375     0.505896109766     0.699554277359
    N            2.330827698676    -0.074004364319     0.007586969273
    C            0.933492443555    -0.016696913066    -0.003086150747
    H            2.741328471686     0.108499742578    -0.879705763716
    C            0.223590186856    -0.006004856963    -1.195145432053
    C            0.228432275386    -0.001948471702     1.194438093132
    H            0.753084339821    -0.012582959723    -2.130157614253
    C           -1.157719756681     0.006706914318    -1.186549707134
    H            0.765897376560    -0.020307657738     2.124201665960
    C           -1.150223580910     0.023621287413     1.192291628591
    H           -1.687558596758     0.010279735894    -2.120486507284
    C           -1.857576039810     0.024580264534     0.003612584033
    H           -1.675985034510     0.036688105074     2.128475210556
    H           -2.929906285416     0.039489987575     0.006488660130

  Mulliken Charges: (a.u.)
   Center  Symbol    Alpha    Beta     Spin     Total
       1     H     0.42067  0.42067  0.00000  0.15867
       2     N     3.67015  3.67015  0.00000 -0.34031
       3     C     2.88878  2.88878  0.00000  0.22244
       4     H     0.42577  0.42577  0.00000  0.14847
       5     C     3.11829  3.11829  0.00000 -0.23657
       6     C     3.11557  3.11557  0.00000 -0.23113
       7     H     0.43468  0.43468  0.00000  0.13064
       8     C     3.05949  3.05949  0.00000 -0.11899
       9     H     0.43071  0.43071  0.00000  0.13859
      10     C     3.05879  3.05879  0.00000 -0.11758
      11     H     0.42461  0.42461  0.00000  0.15078
      12     C     3.10285  3.10285  0.00000 -0.20570
      13     H     0.42451  0.42451  0.00000  0.15099
      14     H     0.42515  0.42515  0.00000  0.14970

   Total alpha = 25.00000, Total beta = 25.00000, Total charge =  0.00000
