  ==> Input File <==

--------------------------------------------------------------------------
set {
	reference rhf
	basis 6-31G*
}

set_num_threads( 1 )
memory 2 gb

molecule MOL {
0 1

H	 -2.719512	 -1.311673	 1.086904
O	 -1.891066	 -0.995245	 0.756261
C	 -2.026376	 0.340750	 0.341611
C	 -0.673256	 0.843270	 -0.132153
H	 -2.749624	 0.414938	 -0.468540
H	 -2.387024	 0.960717	 1.161505
C	 0.486613	 -0.083066	 0.235839
H	 -0.715586	 0.970948	 -1.210718
H	 -0.508072	 1.829858	 0.297090
C	 1.840406	 0.433480	 -0.254303
H	 0.300215	 -1.068318	 -0.178947
H	 0.519509	 -0.203625	 1.318070
C	 3.000220	 -0.489290	 0.118523
H	 1.809207	 0.553576	 -1.335192
H	 2.021860	 1.424500	 0.157276
H	 2.864959	 -1.479103	 -0.307933
H	 3.946603	 -0.099227	 -0.243630
H	 3.080049	 -0.602997	 1.196117

	symmetry c1
}
set optking {
	frozen_dihedral = ("
		14 10 7 11,
		10 7 4 8,
		1 2 3 4
	")
}

ee = energy('scf')
oeprop('DIPOLE', 'QUADRUPOLE', 'MULLIKEN_CHARGES')
f=open( 'psi4out.xyz', 'w' )
f.write( "18  " )
f.write( str(ee) + "\n" )
f.write( MOL.save_string_xyz() )
f.close()
--------------------------------------------------------------------------

    Molecular point group: c1

    Geometry (in Angstrom), charge = 0, multiplicity = 1:

       Center              X                  Y                   Z               Mass
    ------------   -----------------  -----------------  -----------------  -----------------
           H         -2.796583915256    -1.289233565631     0.890578795863     1.007825032070
           O         -1.968137915256    -0.972805565631     0.559935795863    15.994914619560
           C         -2.103447915256     0.363189434369     0.145285795863    12.000000000000
           C         -0.750327915256     0.865709434369    -0.328478204137    12.000000000000
           H         -2.826695915256     0.437377434369    -0.664865204137     1.007825032070
           H         -2.464095915256     0.983156434369     0.965179795863     1.007825032070
           C          0.409541084744    -0.060626565631     0.039513795863    12.000000000000
           H         -0.792657915256     0.993387434369    -1.407043204137     1.007825032070
           H         -0.585143915256     1.852297434369     0.100764795863     1.007825032070
           C          1.763334084744     0.455919434369    -0.450628204137    12.000000000000
           H          0.223143084744    -1.045878565631    -0.375272204137     1.007825032070
           H          0.442437084744    -0.181185565631     1.121744795863     1.007825032070
           C          2.923148084744    -0.466850565631    -0.077802204137    12.000000000000
           H          1.732135084744     0.576015434369    -1.531517204137     1.007825032070
           H          1.944788084744     1.446939434369    -0.039049204137     1.007825032070
           H          2.787887084744    -1.456663565631    -0.504258204137     1.007825032070
           H          3.869531084744    -0.076787565631    -0.439955204137     1.007825032070
           H          3.002977084744    -0.580557565631     0.999791795863     1.007825032070

  Charge       = 0
  Multiplicity = 1
  Basis Set: 6-31G*
  Basis Set:

    Orbital Energies (a.u.)
    -----------------------

    Doubly Occupied:

       1A    -20.552447     2A    -11.267145     3A    -11.210009
       4A    -11.206761     5A    -11.201686     6A    -11.201140
       7A     -1.360480     8A     -1.070663     9A     -1.006781
      10A     -0.912410    11A     -0.815879    12A     -0.779208
      13A     -0.697038    14A     -0.657883    15A     -0.615121
      16A     -0.580885    17A     -0.570076    18A     -0.549986
      19A     -0.514055    20A     -0.500586    21A     -0.493448
      22A     -0.461308    23A     -0.455598    24A     -0.443589
      25A     -0.422603

  @DF-RHF Final Energy:  -271.17072125884602

   => Energetics <=

    Nuclear Repulsion Energy =            251.4136649346323793
    One-Electron Energy =                -866.0750880416038626
    Two-Electron Energy =                 343.4907018481259797
    DFT Exchange-Correlation Energy =       0.0000000000000000
    Empirical Dispersion Energy =           0.0000000000000000
    PCM Polarization Energy =               0.0000000000000000
    EFP Energy =                            0.0000000000000000
    Total Energy =                       -271.1707212588455036

  Mulliken Charges: (a.u.)
   Center  Symbol    Alpha    Beta     Spin     Total
       1     H     0.28072  0.28072  0.00000  0.43857
       2     O     4.37195  4.37195  0.00000 -0.74390
       3     C     2.98947  2.98947  0.00000  0.02106
       4     C     3.17652  3.17652  0.00000 -0.35303
       5     H     0.42955  0.42955  0.00000  0.14090
       6     H     0.43102  0.43102  0.00000  0.13796
       7     C     3.14207  3.14207  0.00000 -0.28414
       8     H     0.42008  0.42008  0.00000  0.15984
       9     H     0.42109  0.42109  0.00000  0.15783
      10     C     3.15205  3.15205  0.00000 -0.30411
      11     H     0.40999  0.40999  0.00000  0.18002
      12     H     0.42016  0.42016  0.00000  0.15968
      13     C     3.23836  3.23836  0.00000 -0.47672
      14     H     0.42555  0.42555  0.00000  0.14891
      15     H     0.42634  0.42634  0.00000  0.14733
      16     H     0.42158  0.42158  0.00000  0.15685
      17     H     0.42130  0.42130  0.00000  0.15740
      18     H     0.42221  0.42221  0.00000  0.15558

   Total alpha = 25.00000, Total beta = 25.00000, Total charge = -0.00000
