                              Psi4 1.0.54 Driver

  ==> Input File <==

--------------------------------------------------------------------------
set {
	reference rhf
	basis cc-pvtz
}

set_num_threads( 4 )
memory 2 gb

molecule MOL {
0 1

O	 -0.988175	 -1.402891	 0.050086
C	 -0.675048	 -0.248293	 -0.009686
C	 -1.742492	 0.826599	 -0.011538
N	 0.622280	 0.144970	 -0.099307
H	 -1.692153	 1.431066	 -0.908439
H	 -2.698310	 0.331559	 0.031353
H	 -1.642148	 1.483784	 0.843455
C	 1.100536	 0.697497	 -1.349081
C	 1.649998	 -0.245936	 0.835969
H	 1.787065	 1.510175	 -1.145476
H	 0.269811	 1.067440	 -1.921985
H	 1.623838	 -0.051788	 -1.937603
H	 2.376848	 0.551749	 0.919774
H	 1.247788	 -0.424021	 1.818521
H	 2.174819	 -1.141673	 0.511526

	symmetry c1
}
set optking {
	frozen_dihedral = ("
		8 4 2 3
	")
}

ee,wfn = optimize('scf', return_wfn=True)
oeprop( wfn, 'DIPOLE', 'QUADRUPOLE', 'MULLIKEN_CHARGES')
f=open( 'psi4out.xyz', 'w' )
f.write( "15  " )
f.write( str(ee) + "\n" )
f.write( MOL.save_string_xyz() )
f.close()
--------------------------------------------------------------------------

    Molecular point group: c1
  Charge       = 0
  Multiplicity = 1
  Basis Set: CC-PVTZ
  Basis Set:
  @DF-RHF Final Energy:  -286.10830390365561
    Total Energy =                       -286.1083039036554965
    Molecular point group: c1
  Basis Set: CC-PVTZ
  Basis Set:
  Basis Set: CC-PVTZ
  Basis Set:
  @DF-RHF Final Energy:  -286.11088266499712
    Total Energy =                       -286.1108826649968933
  Basis Set: CC-PVTZ
  Basis Set:
  Basis Set: CC-PVTZ
  Basis Set:
  @DF-RHF Final Energy:  -286.12070284436481
    Total Energy =                       -286.1207028443647005
  Basis Set: CC-PVTZ
  Basis Set:
  Basis Set: CC-PVTZ
  Basis Set:
  @DF-RHF Final Energy:  -286.10061597590231
    Total Energy =                       -286.1006159759024854
  Basis Set: CC-PVTZ
  Basis Set:
  @DF-RHF Final Energy:  -286.12386378405500
    Total Energy =                       -286.1238637840549472
  @DF-RHF Final Energy:  -286.12506708937826
    Total Energy =                       -286.1250670893782058
  @DF-RHF Final Energy:  -286.12526273058245
    Total Energy =                       -286.1252627305821647
  @DF-RHF Final Energy:  -286.12535847437721
    Total Energy =                       -286.1253584743772649
  @DF-RHF Final Energy:  -286.12541829773659
    Total Energy =                       -286.1254182977364735
  @DF-RHF Final Energy:  -286.12546723829519
    Total Energy =                       -286.1254672382953004
  @DF-RHF Final Energy:  -286.12551360456314
    Total Energy =                       -286.1255136045631389
  @DF-RHF Final Energy:  -286.12539646321852
    Total Energy =                       -286.1253964632184079
  @DF-RHF Final Energy:  -286.12256563521265
    Total Energy =                       -286.1225656352125952
  @DF-RHF Final Energy:  -286.12551149362389
    Total Energy =                       -286.1255114936237760
  @DF-RHF Final Energy:  -286.12566991168899
    Total Energy =                       -286.1256699116890445
  Basis Set: CC-PVTZ
  Basis Set:
  @DF-RHF Final Energy:  -286.12568885913157
    Total Energy =                       -286.1256888591314009
  Basis Set: CC-PVTZ
  Basis Set:
  Basis Set: CC-PVTZ
  Basis Set:
  @DF-RHF Final Energy:  -286.12571852507386
    Total Energy =                       -286.1257185250734665
  Basis Set: CC-PVTZ
  Basis Set:
  Basis Set: CC-PVTZ
  Basis Set:
  @DF-RHF Final Energy:  -286.12572192921857
    Total Energy =                       -286.1257219292185709
  Basis Set: CC-PVTZ
  Basis Set:
  Charge       = 0
  Multiplicity = 1
  Basis Set: CC-PVTZ
  Basis Set:

    Orbital Energies (a.u.)
    -----------------------

    Doubly Occupied:

       1A    -20.526712     2A    -15.570259     3A    -11.339950
       4A    -11.261130     5A    -11.242830     6A    -11.226720
       7A     -1.404626     8A     -1.240743     9A     -1.013306
      10A     -0.967024    11A     -0.908382    12A     -0.737596
      13A     -0.682973    14A     -0.659720    15A     -0.649678
      16A     -0.602960    17A     -0.581910    18A     -0.568069
      19A     -0.558784    20A     -0.540169    21A     -0.524420
      22A     -0.498109    23A     -0.425779    24A     -0.382793

  @DF-RHF Final Energy:  -286.12572218559768

   => Energetics <=

    Nuclear Repulsion Energy =            253.1008587238151790
    One-Electron Energy =                -890.2238784939077050
    Two-Electron Energy =                 350.9972975844948451
    DFT Exchange-Correlation Energy =       0.0000000000000000
    Empirical Dispersion Energy =           0.0000000000000000
    PCM Polarization Energy =               0.0000000000000000
    EFP Energy =                            0.0000000000000000
    Total Energy =                       -286.1257221855976240
    Molecular point group: c1
  Basis Set: CC-PVTZ
  Basis Set:

  -Total Gradient:
     Atom            X                  Y                   Z
    ------   -----------------  -----------------  -----------------
       1        0.000107413457    -0.000083752365    -0.000318617537
       2        0.003361310018    -0.002060329069    -0.008886078193
       3       -0.001563935847    -0.000263801711     0.005806981950
       4       -0.004601789268     0.007903820432     0.005023533944
       5        0.000019965744     0.000053595144    -0.000008641332
       6       -0.000025477341    -0.000016348424    -0.000035066958
       7       -0.000030700824     0.000002542468     0.000074140107
       8        0.002692156362    -0.005618983800    -0.001730564157
       9        0.000048452558     0.000081133133     0.000066341917
      10       -0.000006121898    -0.000003263652    -0.000005166903
      11        0.000005994009    -0.000006460347     0.000004767264
      12       -0.000005033508     0.000007106994     0.000003498199
      13       -0.000002364800    -0.000004855721     0.000001008987
      14        0.000005603189     0.000003711355    -0.000007288212
      15       -0.000005471850     0.000005885562     0.000011150922

  **** Optimization is complete! (in 19 steps) ****
    Final optimized geometry and variables:
    Molecular point group: c1

    Geometry (in Angstrom), charge = 0, multiplicity = 1:

    O           -0.972669225977    -1.309146217655    -0.037171667662
    C           -0.677926190807    -0.157930842778    -0.081753519571
    C           -1.731767572329     0.896335989080    -0.332544072596
    N            0.583016330764     0.307864579468     0.283886728894
    H           -1.332059114430     1.861581804434    -0.601118010081
    H           -2.426131996990     0.553557450750    -1.085519866844
    H           -2.270742983575     1.005219860706     0.601417653962
    C            1.333958344243     0.986618224906    -0.762207206143
    C            1.403435569232    -0.685796309236     0.958229629766
    H            2.168318960809     1.513483423409    -0.320131074429
    H            0.720134717261     1.709883028476    -1.277619752373
    H            1.722131284986     0.283198355160    -1.495706626280
    H            2.272607370245    -0.187995518734     1.367492053917
    H            0.847179961493    -1.136404955251     1.764554780668
    H            1.733025603613    -1.476899843481     0.291115572035

  Mulliken Charges: (a.u.)
   Center  Symbol    Alpha    Beta     Spin     Total
       1     O     4.19305  4.19305  0.00000 -0.38610
       2     C     2.84355  2.84355  0.00000  0.31290
       3     C     3.13818  3.13818  0.00000 -0.27635
       4     N     3.59963  3.59963  0.00000 -0.19925
       5     H     0.45061  0.45061  0.00000  0.09879
       6     H     0.44108  0.44108  0.00000  0.11784
       7     H     0.44136  0.44136  0.00000  0.11727
       8     C     3.09288  3.09288  0.00000 -0.18576
       9     C     3.09169  3.09169  0.00000 -0.18337
      10     H     0.44927  0.44927  0.00000  0.10145
      11     H     0.44848  0.44848  0.00000  0.10303
      12     H     0.45759  0.45759  0.00000  0.08482
      13     H     0.45445  0.45445  0.00000  0.09110
      14     H     0.44108  0.44108  0.00000  0.11784
      15     H     0.45710  0.45710  0.00000  0.08579

   Total alpha = 24.00000, Total beta = 24.00000, Total charge = -0.00000

*** Psi4 exiting successfully. Buy a developer a beer!
