  ==> Input File <==

--------------------------------------------------------------------------
set {
	reference rhf
	basis cc-pvtz
}

set_num_threads( 4 )
memory 2 gb

molecule MOL {
0 1

H	 3.350209	 -1.124104	 3.651338
C	 2.818657	 -1.392608	 2.746094
C	 1.546206	 -0.566957	 2.591757
H	 3.491571	 -1.234882	 1.909823
H	 2.597613	 -2.453588	 2.795874
C	 0.766782	 -0.912734	 1.331636
H	 1.787660	 0.489948	 2.571372
H	 0.909325	 -0.721847	 3.459494
N	 -0.421266	 -0.096941	 1.202178
H	 1.393295	 -0.734935	 0.462706
H	 0.535243	 -1.982067	 1.330839
C	 -1.215959	 -0.382435	 0.027143
H	 -0.985069	 -0.190318	 2.021157
C	 -2.451944	 0.502410	 -0.038737
H	 -0.599104	 -0.202048	 -0.848144
H	 -1.519233	 -1.432577	 -0.020860
C	 -3.752217	 -0.292550	 0.005776
H	 -2.407325	 1.093801	 -0.946480
H	 -2.431979	 1.206234	 0.790023
H	 -3.817783	 -0.982946	 -0.828547
H	 -4.612613	 0.364348	 -0.042306
H	 -3.830160	 -0.871666	 0.919868

	symmetry c1
}
set optking {
	frozen_dihedral = ("
		15 12 14 18
	")
}

ee = optimize('scf')
oeprop('DIPOLE', 'QUADRUPOLE', 'MULLIKEN_CHARGES')
f=open( 'psi4out.xyz', 'w' )
f.write( "22  " )
f.write( str(ee) + "\n" )
f.write( MOL.save_string_xyz() )
f.close()
--------------------------------------------------------------------------

    Molecular point group: c1
  Charge       = 0
  Multiplicity = 1
  Basis Set: CC-PVTZ
  Basis Set:
  @DF-RHF Final Energy:  -290.48358436290772
    Total Energy =                       -290.4835843629081182
    Molecular point group: c1
  Basis Set: CC-PVTZ
  Basis Set:
  Basis Set: CC-PVTZ
  Basis Set:
  @DF-RHF Final Energy:  -290.48394693647361
    Total Energy =                       -290.4839469364735578
  Basis Set: CC-PVTZ
  Basis Set:
  Basis Set: CC-PVTZ
  Basis Set:
  @DF-RHF Final Energy:  -290.48404068033233
    Total Energy =                       -290.4840406803322708
  Basis Set: CC-PVTZ
  Basis Set:
  Charge       = 0
  Multiplicity = 1
  Basis Set: CC-PVTZ
  Basis Set:

    Orbital Energies (a.u.)
    -----------------------

    Doubly Occupied:

       1A    -15.528747     2A    -11.236360     3A    -11.235936
       4A    -11.211870     5A    -11.211591     6A    -11.208211
       7A    -11.207572     8A     -1.206988     9A     -1.058620
      10A     -1.025719    11A     -0.928454    12A     -0.871608
      13A     -0.810574    14A     -0.794494    15A     -0.667305
      16A     -0.632408    17A     -0.619324    18A     -0.597762
      19A     -0.576330    20A     -0.564540    21A     -0.546564
      22A     -0.527777    23A     -0.506572    24A     -0.488719
      25A     -0.480629    26A     -0.471512    27A     -0.465203
      28A     -0.451587    29A     -0.360627

  @DF-RHF Final Energy:  -290.48404142809738

   => Energetics <=

    Nuclear Repulsion Energy =            314.5630121282457594
    One-Electron Energy =               -1015.1068974489444372
    Two-Electron Energy =                 410.0598438926014637
    DFT Exchange-Correlation Energy =       0.0000000000000000
    Empirical Dispersion Energy =           0.0000000000000000
    PCM Polarization Energy =               0.0000000000000000
    EFP Energy =                            0.0000000000000000
    Total Energy =                       -290.4840414280972141
    Molecular point group: c1
  Basis Set: CC-PVTZ
  Basis Set:

  -Total Gradient:
     Atom            X                  Y                   Z
    ------   -----------------  -----------------  -----------------
       1        0.000014382324    -0.000008269714     0.000003424631
       2        0.000016617365     0.000007973224     0.000030324215
       3        0.000039404464    -0.000026633341    -0.000013205056
       4       -0.000003492224     0.000001298596     0.000001254495
       5       -0.000001940505     0.000003707510    -0.000000626187
       6       -0.000025614256     0.000035867171     0.000031215836
       7        0.000000451360    -0.000004644808    -0.000001873267
       8       -0.000000641930    -0.000004184005    -0.000004081737
       9       -0.000019698684    -0.000019193953    -0.000087990709
      10        0.000005698353    -0.000005129757     0.000010732189
      11        0.000011230834    -0.000007500243    -0.000005790290
      12        0.000415906257     0.000696762069     0.000523853548
      13       -0.000006957311     0.000001906234    -0.000041670426
      14       -0.000445916466    -0.000656258901    -0.000485239347
      15       -0.000290711467    -0.000462735888    -0.000280882973
      16        0.000008456784    -0.000001678749    -0.000005478414
      17       -0.000028146794    -0.000020588858     0.000012063802
      18        0.000297754110     0.000465068587     0.000314600497
      19       -0.000012723313    -0.000017540630    -0.000004425059
      20        0.000015725467     0.000007105051     0.000005502842
      21        0.000004660213     0.000013756463    -0.000006759733
      22        0.000005555417     0.000000913943     0.000005051143

  **** Optimization is complete! (in 4 steps) ****
    Final optimized geometry and variables:
    Molecular point group: c1

    Geometry (in Angstrom), charge = 0, multiplicity = 1:

    H            3.740978121686    -0.672006324271     2.530030859744
    C            3.209096637517    -0.939188445229     1.624558016466
    C            1.942031761314    -0.106020474192     1.466414861904
    H            3.884165071954    -0.787487387683     0.788916506621
    H            2.981256901201    -1.998632014978     1.676335446453
    C            1.162878549401    -0.448843148456     0.205175327470
    H            2.190175428668     0.949279421601     1.444896908047
    H            1.302534078894    -0.255807095829     2.333131534392
    N           -0.018622971345     0.375310493059     0.070853867666
    H            1.792601149197    -0.277271290314    -0.662829619248
    H            0.923828994810    -1.516554373746     0.205555405217
    C           -0.812010653924     0.086692429253    -1.107473411969
    H           -0.586249517876     0.284531616274     0.887881808427
    C           -2.076899720032     0.960749477591    -1.175716977645
    H           -0.188444524821     0.264636453002    -1.976108899647
    H           -1.095585802545    -0.967929599642    -1.153017684844
    C           -3.378112264308     0.165603722647    -1.122250300597
    H           -2.060420846900     1.559610384430    -2.079178130005
    H           -2.048928964985     1.667755470890    -0.354567104657
    H           -3.456055948144    -0.517824713377    -1.961005124715
    H           -4.239844896280     0.822725542510    -1.150384127454
    H           -3.440689287562    -0.423826017933    -0.212799345727

  Mulliken Charges: (a.u.)
   Center  Symbol    Alpha    Beta     Spin     Total
       1     H     0.44771  0.44771  0.00000  0.10458
       2     C     3.15354  3.15354  0.00000 -0.30708
       3     C     3.08021  3.08021  0.00000 -0.16043
       4     H     0.45472  0.45472  0.00000  0.09056
       5     H     0.45614  0.45614  0.00000  0.08771
       6     C     3.02108  3.02108  0.00000 -0.04216
       7     H     0.44905  0.44905  0.00000  0.10189
       8     H     0.45979  0.45979  0.00000  0.08042
       9     N     3.63628  3.63628  0.00000 -0.27256
      10     H     0.45918  0.45918  0.00000  0.08165
      11     H     0.47480  0.47480  0.00000  0.05040
      12     C     3.03393  3.03393  0.00000 -0.06785
      13     H     0.44525  0.44525  0.00000  0.10951
      14     C     3.09352  3.09352  0.00000 -0.18703
      15     H     0.45568  0.45568  0.00000  0.08864
      16     H     0.47243  0.47243  0.00000  0.05514
      17     C     3.14724  3.14724  0.00000 -0.29448
      18     H     0.44873  0.44873  0.00000  0.10253
      19     H     0.44951  0.44951  0.00000  0.10098
      20     H     0.45509  0.45509  0.00000  0.08982
      21     H     0.44909  0.44909  0.00000  0.10181
      22     H     0.45703  0.45703  0.00000  0.08594

   Total alpha = 29.00000, Total beta = 29.00000, Total charge = -0.00000
