                              Psi4 1.0.54 Driver

  ==> Input File <==

--------------------------------------------------------------------------
set {
	reference rhf
	basis cc-pvtz
}

set_num_threads( 4 )
memory 2 gb

molecule MOL {
0 1

O	 1.847685	 1.294399	 -0.000190
C	 1.704209	 0.119472	 -0.000093
C	 0.380337	 -0.600947	 -0.000234
O	 2.715427	 -0.733672	 0.000025
C	 -0.824290	 0.329213	 -0.000115
H	 0.371455	 -1.255476	 -0.865660
H	 0.371410	 -1.255787	 0.864952
C	 -1.233197	 0.749339	 1.408540
H	 -1.655137	 -0.162111	 -0.493639
H	 -0.598100	 1.206816	 -0.595045
C	 -2.439831	 1.683195	 1.428980
H	 -1.456252	 -0.135483	 2.000643
H	 -0.394556	 1.238552	 1.899040
C	 -2.848859	 2.102729	 2.836850
H	 -3.278339	 1.195211	 0.940173
H	 -2.217573	 2.568048	 0.839238
H	 -3.110837	 1.240990	 3.441836
H	 -3.707232	 2.764142	 2.815338
H	 -2.041824	 2.625032	 3.339968
C	 4.020999	 -0.192556	 0.000019
H	 4.182809	 0.412891	 -0.879449
H	 4.692590	 -1.035653	 0.000152
H	 4.182726	 0.413087	 0.879368

	symmetry c1
}
set optking {
	frozen_dihedral = ("
		9 5 3 6
	")
}

ee,wfn = optimize('scf', return_wfn=True)
oeprop( wfn, 'DIPOLE', 'QUADRUPOLE', 'MULLIKEN_CHARGES')
f=open( 'psi4out.xyz', 'w' )
f.write( "23  " )
f.write( str(ee) + "\n" )
f.write( MOL.save_string_xyz() )
f.close()
--------------------------------------------------------------------------

    Molecular point group: c1
  Charge       = 0
  Multiplicity = 1
  Basis Set: CC-PVTZ
  Basis Set:
  @DF-RHF Final Energy:  -423.12936907127062
    Total Energy =                       -423.1293690712703892
    Molecular point group: c1
  Basis Set: CC-PVTZ
  Basis Set:
  Basis Set: CC-PVTZ
  Basis Set:
  @DF-RHF Final Energy:  -423.12956987364350
    Total Energy =                       -423.1295698736435043
  Basis Set: CC-PVTZ
  Basis Set:
  Basis Set: CC-PVTZ
  Basis Set:
  @DF-RHF Final Energy:  -423.12947919167681
    Total Energy =                       -423.1294791916762961
  Basis Set: CC-PVTZ
  Basis Set:
  Basis Set: CC-PVTZ
  Basis Set:
  @DF-RHF Final Energy:  -423.12960257281605
    Total Energy =                       -423.1296025728164523
  Basis Set: CC-PVTZ
  Basis Set:
  Charge       = 0
  Multiplicity = 1
  Basis Set: CC-PVTZ
  Basis Set:

    Orbital Energies (a.u.)
    -----------------------

    Doubly Occupied:

       1A    -20.597048     2A    -20.535077     3A    -11.365593
       4A    -11.279034     5A    -11.233741     6A    -11.216658
       7A    -11.211402     8A    -11.210684     9A    -11.204604
      10A     -1.473140    11A     -1.366648    12A     -1.091919
      13A     -1.042699    14A     -0.987196    15A     -0.931130
      16A     -0.844075    17A     -0.794120    18A     -0.768713
      19A     -0.705399    20A     -0.684054    21A     -0.675979
      22A     -0.640334    23A     -0.613478    24A     -0.600218
      25A     -0.569781    26A     -0.558073    27A     -0.553826
      28A     -0.532968    29A     -0.524283    30A     -0.499304
      31A     -0.490881    32A     -0.466395    33A     -0.465670
      34A     -0.458803    35A     -0.452436    36A     -0.441329

  @DF-RHF Final Energy:  -423.12960346270165

   => Energetics <=

    Nuclear Repulsion Energy =            461.2295795300253758
    One-Electron Energy =               -1490.5449859921525331
    Two-Electron Energy =                 606.1858029994257322
    DFT Exchange-Correlation Energy =       0.0000000000000000
    Empirical Dispersion Energy =           0.0000000000000000
    PCM Polarization Energy =               0.0000000000000000
    EFP Energy =                            0.0000000000000000
    Total Energy =                       -423.1296034627014251
    Molecular point group: c1
  Basis Set: CC-PVTZ
  Basis Set:

  -Total Gradient:
     Atom            X                  Y                   Z
    ------   -----------------  -----------------  -----------------
       1       -0.000068017814    -0.000074481089     0.000071170451
       2       -0.000029320011     0.000057923094    -0.000121846582
       3        0.001944774182     0.002913823719    -0.002407362815
       4        0.000015131286    -0.000010828913     0.000004891253
       5       -0.001224122586    -0.001947977674     0.003419250414
       6       -0.001458310487    -0.002001471886     0.001528276504
       7       -0.000001247140    -0.000015573753     0.000069361897
       8        0.000063723458    -0.000120718276     0.000021915689
       9        0.000748345274     0.001167450579    -0.002493164669
      10        0.000003883556     0.000039954608    -0.000058875328
      11        0.000012497161    -0.000038904455    -0.000052760630
      12       -0.000004757402     0.000009212443     0.000011448993
      13       -0.000020246938    -0.000027859031    -0.000008374553
      14        0.000016638129     0.000022266334     0.000005570146
      15        0.000016218976     0.000010633338     0.000012077536
      16       -0.000026720822     0.000004451762    -0.000008528494
      17        0.000005707801     0.000013572313    -0.000020850362
      18        0.000007902593     0.000002973275     0.000006716969
      19       -0.000005516575    -0.000002922631     0.000012487265
      20        0.000005773169    -0.000000004295     0.000006758403
      21       -0.000001681989    -0.000007639887     0.000008046438
      22       -0.000005428435     0.000010293376     0.000000582942
      23        0.000004774618    -0.000004172950    -0.000006791467

  **** Optimization is complete! (in 5 steps) ****
    Final optimized geometry and variables:
    Molecular point group: c1

    Geometry (in Angstrom), charge = 0, multiplicity = 1:

    O            1.422043365698     0.786925697030    -0.640433587006
    C            1.293390320808    -0.389831101553    -0.658144628379
    C           -0.019870128459    -1.130686358755    -0.663945567326
    O            2.315572284903    -1.228854975996    -0.677204939918
    C           -1.252842470659    -0.231871096085    -0.608184061960
    H           -0.032420143448    -1.768070203775    -1.540599407357
    H            0.002041308888    -1.816334487962     0.177427874744
    C           -1.646083831773     0.182977109376     0.806120210719
    H           -2.078270234735    -0.745318287138    -1.090637229236
    H           -1.063931236674     0.654633081497    -1.201648155673
    C           -2.851535724816     1.117194211849     0.842375094170
    H           -1.863608750933    -0.705943281252     1.394594643562
    H           -0.801066021537     0.671324054053     1.282112474802
    C           -3.247518282396     1.527691315960     2.256681236913
    H           -3.695995106965     0.634140373218     0.357719001506
    H           -2.631373490445     2.005732570382     0.257908446341
    H           -3.507167270858     0.662413580624     2.857751040532
    H           -4.103836955266     2.192212799683     2.247551703172
    H           -2.433998782027     2.043435506502     2.755675119150
    C            3.614083556633    -0.670871849875    -0.677536899850
    H            3.762130695742    -0.050052632401    -1.548640822867
    H            4.296365342213    -1.505128302361    -0.694845456914
    H            3.774007483426    -0.076835862265     0.210003006395

  Mulliken Charges: (a.u.)
   Center  Symbol    Alpha    Beta     Spin     Total
       1     O     4.19890  4.19890  0.00000 -0.39780
       2     C     2.80184  2.80184  0.00000  0.39631
       3     C     3.11260  3.11260  0.00000 -0.22520
       4     O     4.14612  4.14612  0.00000 -0.29223
       5     C     3.09501  3.09501  0.00000 -0.19003
       6     H     0.43041  0.43041  0.00000  0.13918
       7     H     0.44021  0.44021  0.00000  0.11959
       8     C     3.08506  3.08506  0.00000 -0.17012
       9     H     0.44608  0.44608  0.00000  0.10783
      10     H     0.44405  0.44405  0.00000  0.11191
      11     C     3.08603  3.08603  0.00000 -0.17206
      12     H     0.45772  0.45772  0.00000  0.08456
      13     H     0.44877  0.44877  0.00000  0.10246
      14     C     3.15021  3.15021  0.00000 -0.30041
      15     H     0.45602  0.45602  0.00000  0.08797
      16     H     0.45136  0.45136  0.00000  0.09728
      17     H     0.45629  0.45629  0.00000  0.08743
      18     H     0.44860  0.44860  0.00000  0.10280
      19     H     0.45382  0.45382  0.00000  0.09237
      20     C     3.03678  3.03678  0.00000 -0.07356
      21     H     0.45429  0.45429  0.00000  0.09142
      22     H     0.44540  0.44540  0.00000  0.10920
      23     H     0.45445  0.45445  0.00000  0.09111

   Total alpha = 36.00000, Total beta = 36.00000, Total charge = -0.00000

*** Psi4 exiting successfully. Buy a developer a beer!
