  ==> Input File <==

--------------------------------------------------------------------------
set {
	reference rhf
	basis 6-31G*
}

set_num_threads( 1 )
memory 2 gb

molecule MOL {
0 1

O	 -2.033709	 1.814671	 -0.150723
C	 -1.984349	 0.629850	 -0.285618
C	 -0.770717	 -0.032179	 -0.914205
C	 -3.103714	 -0.270385	 0.187639
C	 0.379448	 -0.143569	 0.099626
H	 -0.457238	 0.582571	 -1.750936
H	 -1.026724	 -1.016805	 -1.294992
C	 1.631333	 -0.777471	 -0.511575
H	 0.598329	 0.850373	 0.473195
H	 0.058319	 -0.736999	 0.954298
C	 2.915987	 -0.544314	 0.291766
H	 1.766672	 -0.399098	 -1.523130
H	 1.471257	 -1.849544	 -0.605828
C	 3.373361	 0.914346	 0.347591
H	 3.708709	 -1.142521	 -0.150311
H	 2.780642	 -0.921148	 1.303579
H	 3.506512	 1.320010	 -0.651625
H	 4.322697	 0.999599	 0.867103
H	 2.660624	 1.545032	 0.868198
H	 -3.577287	 -0.744919	 -0.667821
H	 -3.839025	 0.307172	 0.730345
H	 -2.717270	 -1.064040	 0.820552

	symmetry c1
}
set optking {
	frozen_dihedral = ("
		6 3 2 1,
		6 3 5 8,
		12 8 11 15
	")
}

ee = energy('scf')
oeprop('DIPOLE', 'QUADRUPOLE', 'MULLIKEN_CHARGES')
f=open( 'psi4out.xyz', 'w' )
f.write( "22  " )
f.write( str(ee) + "\n" )
f.write( MOL.save_string_xyz() )
f.close()
--------------------------------------------------------------------------

    Molecular point group: c1

    Geometry (in Angstrom), charge = 0, multiplicity = 1:

       Center              X                  Y                   Z               Mass
    ------------   -----------------  -----------------  -----------------  -----------------
           O         -2.087132267662     1.603875029923    -0.041521351120    15.994914619560
           C         -2.037772267662     0.419054029923    -0.176416351120    12.000000000000
           C         -0.824140267662    -0.242974970077    -0.805003351120    12.000000000000
           C         -3.157137267662    -0.481180970077     0.296840648880    12.000000000000
           C          0.326024732338    -0.354364970077     0.208827648880    12.000000000000
           H         -0.510661267662     0.371775029923    -1.641734351120     1.007825032070
           H         -1.080147267662    -1.227600970077    -1.185790351120     1.007825032070
           C          1.577909732338    -0.988266970077    -0.402373351120    12.000000000000
           H          0.544905732338     0.639577029923     0.582396648880     1.007825032070
           H          0.004895732338    -0.947794970077     1.063499648880     1.007825032070
           C          2.862563732338    -0.755109970077     0.400967648880    12.000000000000
           H          1.713248732338    -0.609893970077    -1.413928351120     1.007825032070
           H          1.417833732338    -2.060339970077    -0.496626351120     1.007825032070
           C          3.319937732338     0.703550029923     0.456792648880    12.000000000000
           H          3.655285732338    -1.353316970077    -0.041109351120     1.007825032070
           H          2.727218732338    -1.131943970077     1.412780648880     1.007825032070
           H          3.453088732338     1.109214029923    -0.542423351120     1.007825032070
           H          4.269273732338     0.788803029923     0.976304648880     1.007825032070
           H          2.607200732338     1.334236029923     0.977399648880     1.007825032070
           H         -3.630710267662    -0.955714970077    -0.558619351120     1.007825032070
           H         -3.892448267662     0.096376029923     0.839546648880     1.007825032070
           H         -2.770693267662    -1.274835970077     0.929753648880     1.007825032070

  Charge       = 0
  Multiplicity = 1
  Basis Set: 6-31G*
  Basis Set:

    Orbital Energies (a.u.)
    -----------------------

    Doubly Occupied:

       1A    -20.547331     2A    -11.324345     3A    -11.229357
       4A    -11.228660     5A    -11.228095     6A    -11.222032
       7A    -11.220284     8A    -11.210470     9A     -1.393044
      10A     -1.095545    11A     -1.043901    12A     -0.999204
      13A     -0.937695    14A     -0.857318    15A     -0.786144
      16A     -0.732870    17A     -0.661510    18A     -0.645082
      19A     -0.626091    20A     -0.620919    21A     -0.597862
      22A     -0.577793    23A     -0.565592    24A     -0.543406
      25A     -0.533289    26A     -0.515630    27A     -0.501116
      28A     -0.486684    29A     -0.469367    30A     -0.462812
      31A     -0.460570    32A     -0.396041

  @DF-RHF Final Energy:  -348.09691884074317

   => Energetics <=

    Nuclear Repulsion Energy =            373.7412834315405803
    One-Electron Energy =               -1212.2363407150357943
    Two-Electron Energy =                 490.3981384427519856
    DFT Exchange-Correlation Energy =       0.0000000000000000
    Empirical Dispersion Energy =           0.0000000000000000
    PCM Polarization Energy =               0.0000000000000000
    EFP Energy =                            0.0000000000000000
    Total Energy =                       -348.0969188407432853

  Mulliken Charges: (a.u.)
   Center  Symbol    Alpha    Beta     Spin     Total
       1     O     4.26258  4.26258  0.00000 -0.52516
       2     C     2.73714  2.73714  0.00000  0.52571
       3     C     3.20004  3.20004  0.00000 -0.40007
       4     C     3.28944  3.28944  0.00000 -0.57888
       5     C     3.16464  3.16464  0.00000 -0.32927
       6     H     0.40108  0.40108  0.00000  0.19784
       7     H     0.41694  0.41694  0.00000  0.16612
       8     C     3.15329  3.15329  0.00000 -0.30659
       9     H     0.40356  0.40356  0.00000  0.19288
      10     H     0.42022  0.42022  0.00000  0.15956
      11     C     3.15354  3.15354  0.00000 -0.30708
      12     H     0.42160  0.42160  0.00000  0.15681
      13     H     0.42083  0.42083  0.00000  0.15835
      14     C     3.24212  3.24212  0.00000 -0.48424
      15     H     0.41965  0.41965  0.00000  0.16070
      16     H     0.42272  0.42272  0.00000  0.15457
      17     H     0.42099  0.42099  0.00000  0.15801
      18     H     0.41804  0.41804  0.00000  0.16392
      19     H     0.41773  0.41773  0.00000  0.16455
      20     H     0.40693  0.40693  0.00000  0.18613
      21     H     0.39715  0.39715  0.00000  0.20570
      22     H     0.40978  0.40978  0.00000  0.18044

   Total alpha = 32.00000, Total beta = 32.00000, Total charge =  0.00000
