                              Psi4 1.0.54 Driver

  ==> Input File <==

--------------------------------------------------------------------------
set {
	reference rhf
	basis cc-pvtz
}

set_num_threads( 4 )
memory 2 gb

molecule MOL {
0 1

H	 -3.008297	 0.519306	 -1.920879
O	 -2.219269	 -0.000963	 -1.942617
C	 -1.369952	 0.484353	 -1.041470
C	 -0.081157	 -0.291757	 -1.015163
O	 -1.635219	 1.417626	 -0.365744
C	 0.926581	 0.227233	 0.000178
H	 0.325133	 -0.269941	 -2.021235
H	 -0.337012	 -1.328716	 -0.822885
C	 2.220156	 -0.582071	 -0.000088
H	 1.143994	 1.268088	 -0.211454
H	 0.481041	 0.208018	 0.988382
C	 3.466689	 0.296012	 -0.000457
H	 2.239073	 -1.234095	 -0.869382
H	 2.239505	 -1.233985	 0.869270
H	 3.493549	 0.935857	 -0.875887
H	 4.368821	 -0.304526	 -0.001199
H	 3.494559	 0.935166	 0.875458

	symmetry c1
}
set optking {
	frozen_dihedral = ("
		10 6 9 13
	")
}

ee,wfn = optimize('scf', return_wfn=True)
oeprop( wfn, 'DIPOLE', 'QUADRUPOLE', 'MULLIKEN_CHARGES')
f=open( 'psi4out.xyz', 'w' )
f.write( "17  " )
f.write( str(ee) + "\n" )
f.write( MOL.save_string_xyz() )
f.close()
--------------------------------------------------------------------------

    Molecular point group: c1
  Charge       = 0
  Multiplicity = 1
  Basis Set: CC-PVTZ
  Basis Set:
  @DF-RHF Final Energy:  -345.04361861332256
    Total Energy =                       -345.0436186133223941
    Molecular point group: c1
  Basis Set: CC-PVTZ
  Basis Set:
  Basis Set: CC-PVTZ
  Basis Set:
  @DF-RHF Final Energy:  -345.04390155597520
    Total Energy =                       -345.0439015559751397
  Basis Set: CC-PVTZ
  Basis Set:
  Basis Set: CC-PVTZ
  Basis Set:
  @DF-RHF Final Energy:  -345.04367375716419
    Total Energy =                       -345.0436737571642425
  Basis Set: CC-PVTZ
  Basis Set:
  Basis Set: CC-PVTZ
  Basis Set:
  @DF-RHF Final Energy:  -345.04398579468932
    Total Energy =                       -345.0439857946894904
  Basis Set: CC-PVTZ
  Basis Set:
  Basis Set: CC-PVTZ
  Basis Set:
  @DF-RHF Final Energy:  -345.04399067159562
    Total Energy =                       -345.0439906715957363
  Basis Set: CC-PVTZ
  Basis Set:
  Charge       = 0
  Multiplicity = 1
  Basis Set: CC-PVTZ
  Basis Set:

    Orbital Energies (a.u.)
    -----------------------

    Doubly Occupied:

       1A    -20.604175     2A    -20.540843     3A    -11.373639
       4A    -11.240051     5A    -11.220927     6A    -11.220334
       7A    -11.211567     8A     -1.477762     9A     -1.369298
      10A     -1.090756    11A     -1.019511    12A     -0.914981
      13A     -0.826493    14A     -0.791040    15A     -0.703995
      16A     -0.690457    17A     -0.668148    18A     -0.625568
      19A     -0.597901    20A     -0.590318    21A     -0.570747
      22A     -0.534638    23A     -0.518129    24A     -0.484610
      25A     -0.481698    26A     -0.478329    27A     -0.465671
      28A     -0.445709

  @DF-RHF Final Energy:  -345.04399082518830

   => Energetics <=

    Nuclear Repulsion Energy =            304.8276060622122259
    One-Electron Energy =               -1074.2286002708624437
    Two-Electron Energy =                 424.3570033834620290
    DFT Exchange-Correlation Energy =       0.0000000000000000
    Empirical Dispersion Energy =           0.0000000000000000
    PCM Polarization Energy =               0.0000000000000000
    EFP Energy =                            0.0000000000000000
    Total Energy =                       -345.0439908251881889
    Molecular point group: c1
  Basis Set: CC-PVTZ
  Basis Set:

  -Total Gradient:
     Atom            X                  Y                   Z
    ------   -----------------  -----------------  -----------------
       1       -0.000002496755    -0.000001563635    -0.000003274384
       2       -0.000013822866     0.000019655126     0.000010000195
       3        0.000021920006    -0.000003916614     0.000016502011
       4        0.000006878069    -0.000009889506    -0.000008568838
       5       -0.000016638704    -0.000008011967    -0.000020908187
       6       -0.000788571918    -0.001354227435    -0.003697715402
       7        0.000003057805     0.000002276749     0.000005029458
       8        0.000007926064     0.000005291239     0.000001343129
       9        0.001980685368     0.003170744519    -0.001410761062
      10        0.000350875993     0.000606622463     0.003313608725
      11        0.000002718759    -0.000009353071     0.000005050777
      12        0.000010619439     0.000012914622    -0.000003311362
      13       -0.001541864910    -0.002415379759     0.001784411427
      14       -0.000000328564     0.000001942391     0.000007595750
      15       -0.000005364627    -0.000009150977     0.000009083638
      16       -0.000008518364    -0.000002816588     0.000001021287
      17       -0.000007074799    -0.000005137558    -0.000009107162

  **** Optimization is complete! (in 6 steps) ****
    Final optimized geometry and variables:
    Molecular point group: c1

    Geometry (in Angstrom), charge = 0, multiplicity = 1:

    H           -3.188687800486     0.255920219147    -1.230676729668
    O           -2.394081878615    -0.254860059847    -1.268822521340
    C           -1.530551529175     0.244235861293    -0.388875987344
    C           -0.232306608209    -0.516669139661    -0.388726419412
    O           -1.792643040153     1.175570226702     0.290757713946
    C            0.792038419762     0.016699126763     0.601430078653
    H            0.151636005388    -0.494428347087    -1.403399427128
    H           -0.470923502461    -1.555898008698    -0.186247522522
    C            2.097731319933    -0.799968721555     0.614667665273
    H            1.002202983401     1.057818111977     0.387984768416
    H            0.351910484282     0.020658506344     1.591110226715
    C            3.353708869424     0.062272043656     0.662614430080
    H            2.134891664661    -1.459430327097    -0.247315888256
    H            2.092668613229    -1.463591814498     1.473595348853
    H            3.424909908096     0.697378881670    -0.213943990643
    H            4.248148509433    -0.548445392088     0.705255845343
    H            3.349625473137     0.706290375434     1.535510265783

  Mulliken Charges: (a.u.)
   Center  Symbol    Alpha    Beta     Spin     Total
       1     H     0.38234  0.38234  0.00000  0.23532
       2     O     4.16001  4.16001  0.00000 -0.32002
       3     C     2.80612  2.80612  0.00000  0.38776
       4     C     3.11068  3.11068  0.00000 -0.22136
       5     O     4.19089  4.19089  0.00000 -0.38177
       6     C     3.08777  3.08777  0.00000 -0.17555
       7     H     0.43756  0.43756  0.00000  0.12489
       8     H     0.43665  0.43665  0.00000  0.12670
       9     C     3.08824  3.08824  0.00000 -0.17648
      10     H     0.44598  0.44598  0.00000  0.10804
      11     H     0.44393  0.44393  0.00000  0.11214
      12     C     3.14672  3.14672  0.00000 -0.29344
      13     H     0.45581  0.45581  0.00000  0.08839
      14     H     0.45086  0.45086  0.00000  0.09828
      15     H     0.45511  0.45511  0.00000  0.08978
      16     H     0.44910  0.44910  0.00000  0.10180
      17     H     0.45224  0.45224  0.00000  0.09552

   Total alpha = 28.00000, Total beta = 28.00000, Total charge =  0.00000

*** Psi4 exiting successfully. Buy a developer a beer!
