                              Psi4 1.0.54 Driver

  ==> Input File <==

--------------------------------------------------------------------------
set {
	reference rhf
	basis cc-pvtz
}

set_num_threads( 4 )
memory 2 gb

molecule MOL {
0 1

H	 -2.644180	 -0.653737	 1.272255
C	 -2.092774	 -0.380414	 0.391915
O	 -0.808934	 -0.154049	 0.752536
F	 -2.163230	 -1.351640	 -0.507133
F	 -2.627232	 0.691260	 -0.169301
C	 0.085006	 0.250800	 -0.215074
C	 1.370439	 -0.548013	 -0.012993
Cl	 0.421658	 1.987697	 -0.091007
H	 -0.272219	 0.063284	 -1.212508
F	 2.411565	 0.162391	 -0.365703
F	 1.333460	 -1.616200	 -0.773864
F	 1.525126	 -0.932043	 1.224280

	symmetry c1
}
set optking {
	frozen_dihedral = ("
		10 7 6 9
	")
}

ee,wfn = optimize('scf', return_wfn=True)
oeprop( wfn, 'DIPOLE', 'QUADRUPOLE', 'MULLIKEN_CHARGES')
f=open( 'psi4out.xyz', 'w' )
f.write( "12  " )
f.write( str(ee) + "\n" )
f.write( MOL.save_string_xyz() )
f.close()
--------------------------------------------------------------------------

    Molecular point group: c1
  Charge       = 0
  Multiplicity = 1
  Basis Set: CC-PVTZ
  Basis Set:
  @DF-RHF Final Energy: -1146.61392011054295
    Total Energy =                      -1146.6139201105434040
    Molecular point group: c1
  Basis Set: CC-PVTZ
  Basis Set:
  Basis Set: CC-PVTZ
  Basis Set:
  @DF-RHF Final Energy: -1146.61428866908545
    Total Energy =                      -1146.6142886690849991
  Basis Set: CC-PVTZ
  Basis Set:
  Basis Set: CC-PVTZ
  Basis Set:
  @DF-RHF Final Energy: -1146.61529646707163
    Total Energy =                      -1146.6152964670704932
  Basis Set: CC-PVTZ
  Basis Set:
  Basis Set: CC-PVTZ
  Basis Set:
  @DF-RHF Final Energy: -1146.61534314663277
    Total Energy =                      -1146.6153431466329948
  Basis Set: CC-PVTZ
  Basis Set:
  Basis Set: CC-PVTZ
  Basis Set:
  @DF-RHF Final Energy: -1146.61534985627168
    Total Energy =                      -1146.6153498562716777
  Basis Set: CC-PVTZ
  Basis Set:
  Basis Set: CC-PVTZ
  Basis Set:
  @DF-RHF Final Energy: -1146.61535141267905
    Total Energy =                      -1146.6153514126797290
  Basis Set: CC-PVTZ
  Basis Set:
  Charge       = 0
  Multiplicity = 1
  Basis Set: CC-PVTZ
  Basis Set:

    Orbital Energies (a.u.)
    -----------------------

    Doubly Occupied:

       1A   -104.857274     2A    -26.356326     3A    -26.354039
       4A    -26.350131     5A    -26.342587     6A    -26.342329
       7A    -20.639050     8A    -11.521466     9A    -11.482721
      10A    -11.401422    11A    -10.582853    12A     -8.049656
      13A     -8.047649    14A     -8.047586    15A     -1.768198
      16A     -1.723813    17A     -1.663804    18A     -1.659595
      19A     -1.643949    20A     -1.484883    21A     -1.177407
      22A     -1.052124    23A     -0.989661    24A     -0.923732
      25A     -0.862972    26A     -0.856785    27A     -0.853661
      28A     -0.829231    29A     -0.817368    30A     -0.794863
      31A     -0.733178    32A     -0.729586    33A     -0.711491
      34A     -0.707996    35A     -0.685898    36A     -0.679535
      37A     -0.665088    38A     -0.663229    39A     -0.649841
      40A     -0.636213    41A     -0.597950    42A     -0.580498
      43A     -0.525613    44A     -0.477673    45A     -0.470349

  @DF-RHF Final Energy: -1146.61535126397825

   => Energetics <=

    Nuclear Repulsion Energy =            737.1539246436916528
    One-Electron Energy =               -3057.5560164344333316
    Two-Electron Energy =                1173.7867405267634240
    DFT Exchange-Correlation Energy =       0.0000000000000000
    Empirical Dispersion Energy =           0.0000000000000000
    PCM Polarization Energy =               0.0000000000000000
    EFP Energy =                            0.0000000000000000
    Total Energy =                      -1146.6153512639784822
    Molecular point group: c1
  Basis Set: CC-PVTZ
  Basis Set:

  -Total Gradient:
     Atom            X                  Y                   Z
    ------   -----------------  -----------------  -----------------
       1       -0.000017724684    -0.000021253170    -0.000014287413
       2       -0.000038087536    -0.000053085109     0.000087553345
       3       -0.000104822947     0.000149483819     0.000247235332
       4       -0.000002381863     0.000055790711     0.000009658498
       5       -0.000023514045    -0.000038397023    -0.000033649709
       6        0.004987960298     0.007633867094    -0.001726902185
       7       -0.001578328795    -0.004726225051    -0.007378994928
       8       -0.000027312959    -0.000039359943     0.000069150271
       9       -0.003730137952    -0.005685534487     0.002751118781
      10        0.000579114876     0.002499891159     0.005968099838
      11       -0.000071347367     0.000009752665    -0.000144732593
      12        0.000026582976     0.000215069366     0.000165750755

  **** Optimization is complete! (in 7 steps) ****
    Final optimized geometry and variables:
    Molecular point group: c1

    Geometry (in Angstrom), charge = 0, multiplicity = 1:

    H           -2.624695704406    -0.735403390697     1.252841452905
    C           -2.076490908597    -0.437703472946     0.378298129192
    O           -0.802305003914    -0.179422511996     0.747478849870
    F           -2.114638550164    -1.403743078847    -0.529919129500
    F           -2.641520151557     0.621494789930    -0.177246186729
    C            0.085517974638     0.269669886240    -0.214697003885
    C            1.396478228595    -0.517320727011    -0.016075236373
    CL           0.330517225128     2.013985396566    -0.076599271778
    H           -0.290276182884     0.039146541106    -1.195729051371
    F            2.444085342711     0.155330229207    -0.409238105795
    F            1.329677557754    -1.630403770681    -0.708175010307
    F            1.579641256491    -0.828777213743     1.240048165369

  Mulliken Charges: (a.u.)
   Center  Symbol    Alpha    Beta     Spin     Total
       1     H     0.45202  0.45202  0.00000  0.09595
       2     C     2.73999  2.73999  0.00000  0.52001
       3     O     4.15369  4.15369  0.00000 -0.30738
       4     F     4.61890  4.61890  0.00000 -0.23779
       5     F     4.61531  4.61531  0.00000 -0.23062
       6     C     2.94995  2.94995  0.00000  0.10010
       7     C     2.66772  2.66772  0.00000  0.66456
       8    CL     8.56849  8.56849  0.00000 -0.13698
       9     H     0.43151  0.43151  0.00000  0.13698
      10     F     4.59784  4.59784  0.00000 -0.19567
      11     F     4.60484  4.60484  0.00000 -0.20968
      12     F     4.59974  4.59974  0.00000 -0.19948

   Total alpha = 45.00000, Total beta = 45.00000, Total charge =  0.00000

*** Psi4 exiting successfully. Buy a developer a beer!
