  ==> Input File <==

--------------------------------------------------------------------------
set {
	reference rhf
	basis 6-31G*
}

set_num_threads( 4 )
memory 2 gb

molecule MOL {
0 1

H	 2.710789	 1.971130	 -0.602983
C	 2.221185	 1.073324	 -0.236280
C	 0.713743	 1.164607	 -0.451701
H	 2.440838	 0.967440	 0.820273
H	 2.659975	 0.227156	 -0.753965
N	 -0.000257	 -0.000071	 0.054619
H	 0.352582	 2.040851	 0.071879
H	 0.495041	 1.332029	 -1.510392
C	 -1.363055	 0.315058	 0.462241
C	 0.060586	 -1.132439	 -0.860093
C	 -2.412078	 -0.285320	 -0.468531
H	 -1.482241	 1.391144	 0.451970
H	 -1.549931	 -0.001174	 1.492681
C	 -0.032349	 -2.476314	 -0.144129
H	 1.006994	 -1.096929	 -1.384692
H	 -0.715100	 -1.061502	 -1.628252
H	 -2.262839	 0.075384	 -1.480151
H	 -2.369300	 -1.368867	 -0.491760
H	 -3.410332	 -0.003975	 -0.144961
H	 0.772645	 -2.571355	 0.576000
H	 -0.970309	 -2.595013	 0.387560
H	 0.044541	 -3.291525	 -0.858164

	symmetry c1
}
set optking {
	frozen_dihedral = ("
		3 6 9 11
	")
}

ee = optimize('scf')
oeprop('DIPOLE', 'QUADRUPOLE', 'MULLIKEN_CHARGES')
f=open( 'psi4out.xyz', 'w' )
f.write( "22  " )
f.write( str(ee) + "\n" )
f.write( MOL.save_string_xyz() )
f.close()
--------------------------------------------------------------------------

    Molecular point group: c1
  Charge       = 0
  Multiplicity = 1
  Basis Set: 6-31G*
  Basis Set:
  @DF-RHF Final Energy:  -290.35378410023003
    Total Energy =                       -290.3537841002298592
    Molecular point group: c1
  Basis Set: 6-31G*
  Basis Set:
  Basis Set: 6-31G*
  Basis Set:
  @DF-RHF Final Energy:  -290.35987601739174
    Total Energy =                       -290.3598760173917981
  Basis Set: 6-31G*
  Basis Set:
  Basis Set: 6-31G*
  Basis Set:
  @DF-RHF Final Energy:  -290.36246882913252
    Total Energy =                       -290.3624688291327516
  Basis Set: 6-31G*
  Basis Set:
  Basis Set: 6-31G*
  Basis Set:
  @DF-RHF Final Energy:  -290.36331356927116
    Total Energy =                       -290.3633135692709288
  Basis Set: 6-31G*
  Basis Set:
  @DF-RHF Final Energy:  -290.36382277094839
    Total Energy =                       -290.3638227709489001
  @DF-RHF Final Energy:  -290.36415915304997
    Total Energy =                       -290.3641591530500250
  @DF-RHF Final Energy:  -290.36458450609530
    Total Energy =                       -290.3645845060948432
  @DF-RHF Final Energy:  -290.36475319450960
    Total Energy =                       -290.3647531945093192
  @DF-RHF Final Energy:  -290.36483365749882
    Total Energy =                       -290.3648336574989912
  Basis Set: 6-31G*
  Basis Set:
  @DF-RHF Final Energy:  -290.36486056172032
    Total Energy =                       -290.3648605617208887
  Basis Set: 6-31G*
  Basis Set:
  Basis Set: 6-31G*
  Basis Set:
  @DF-RHF Final Energy:  -290.36486692340031
    Total Energy =                       -290.3648669234006547
  Basis Set: 6-31G*
  Basis Set:
  Basis Set: 6-31G*
  Basis Set:
  @DF-RHF Final Energy:  -290.36486828730392
    Total Energy =                       -290.3648682873039206
  Basis Set: 6-31G*
  Basis Set:
  Charge       = 0
  Multiplicity = 1
  Basis Set: 6-31G*
  Basis Set:

    Orbital Energies (a.u.)
    -----------------------

    Doubly Occupied:

       1A    -15.527525     2A    -11.241898     3A    -11.241759
       4A    -11.240100     5A    -11.206052     6A    -11.204052
       7A    -11.202007     8A     -1.216794     9A     -1.025797
      10A     -1.018492    11A     -0.954389    12A     -0.862717
      13A     -0.840006    14A     -0.758725    15A     -0.658921
      16A     -0.645087    17A     -0.614121    18A     -0.590690
      19A     -0.568856    20A     -0.548440    21A     -0.545321
      22A     -0.528123    23A     -0.514310    24A     -0.499088
      25A     -0.491854    26A     -0.480476    27A     -0.472428
      28A     -0.465103    29A     -0.316424

  @DF-RHF Final Energy:  -290.36486852226312

   => Energetics <=

    Nuclear Repulsion Energy =            338.0453870465930777
    One-Electron Energy =               -1061.8614011320587451
    Two-Electron Energy =                 433.4511455632024308
    DFT Exchange-Correlation Energy =       0.0000000000000000
    Empirical Dispersion Energy =           0.0000000000000000
    PCM Polarization Energy =               0.0000000000000000
    EFP Energy =                            0.0000000000000000
    Total Energy =                       -290.3648685222632366
    Molecular point group: c1
  Basis Set: 6-31G*
  Basis Set:

  -Total Gradient:
     Atom            X                  Y                   Z
    ------   -----------------  -----------------  -----------------
       1       -0.000003901638     0.000006844346     0.000001936547
       2       -0.000004940914    -0.000025735774    -0.000013080478
       3        0.001967386171    -0.000028314595     0.003773336419
       4       -0.000000713763    -0.000003503358    -0.000005685500
       5        0.000009750815     0.000003493562     0.000001906938
       6       -0.002881069782    -0.001622115719    -0.004899574859
       7       -0.000003599466     0.000007467872     0.000000592068
       8       -0.000007286928    -0.000029351473     0.000006315335
       9        0.000818756812     0.005305818054    -0.000242692007
      10       -0.000007377765     0.000000238809    -0.000017154918
      11        0.000095160668    -0.003624736828     0.001394743714
      12       -0.000008070424     0.000009850020    -0.000006094043
      13        0.000009820925    -0.000000962272    -0.000003822206
      14        0.000006638380     0.000000135544     0.000006981570
      15        0.000000226970    -0.000001550726    -0.000003560721
      16        0.000006814785    -0.000002247671     0.000001646736
      17        0.000002570163    -0.000003539810     0.000005523798
      18       -0.000003056980     0.000003220972     0.000000700860
      19        0.000001017562     0.000002587955     0.000002570484
      20        0.000005978239    -0.000000720274    -0.000002674497
      21       -0.000000964300    -0.000000771473    -0.000000874862
      22       -0.000003139532     0.000003892839    -0.000001040378

  **** Optimization is complete! (in 13 steps) ****
    Final optimized geometry and variables:
    Molecular point group: c1

    Geometry (in Angstrom), charge = 0, multiplicity = 1:

    H            2.855206513449     2.160023508803    -0.128805522075
    C            2.285774804868     1.294509174229     0.200598807372
    C            0.864438808279     1.336429422236    -0.359228637291
    H            2.264287340639     1.287527014809     1.285233787012
    H            2.816255360206     0.405920518702    -0.126850606884
    N            0.063735394400     0.200347889420     0.047223751720
    H            0.383230403148     2.243046282779    -0.012090948291
    H            0.910320300634     1.419309057559    -1.447230060072
    C           -1.199798991730     0.428710398733     0.720600194308
    C            0.241603144081    -1.022123463466    -0.701986848348
    C           -2.463582639656     0.089189240994    -0.077123710456
    H           -1.238265443321     1.470096767085     1.013868880977
    H           -1.229622036763    -0.141785693737     1.648054941181
    C            0.218478670059    -2.275494937242     0.171118635316
    H            1.207352984229    -0.969238404450    -1.190702741789
    H           -0.492954887226    -1.124324080403    -1.503464578282
    H           -2.501271597783     0.637223426842    -1.014332751872
    H           -2.531482609977    -0.968305936751    -0.305503612423
    H           -3.343726051236     0.353353635455     0.502293567300
    H            0.987496432860    -2.217820372376     0.934083006782
    H           -0.736160023553    -2.406181575197     0.669960052160
    H            0.395859758064    -3.161047969817    -0.432685941164

  Mulliken Charges: (a.u.)
   Center  Symbol    Alpha    Beta     Spin     Total
       1     H     0.42636  0.42636  0.00000  0.14729
       2     C     3.23180  3.23180  0.00000 -0.46360
       3     C     3.04862  3.04862  0.00000 -0.09724
       4     H     0.41920  0.41920  0.00000  0.16161
       5     H     0.42247  0.42247  0.00000  0.15506
       6     N     3.80519  3.80519  0.00000 -0.61039
       7     H     0.42164  0.42164  0.00000  0.15673
       8     H     0.42997  0.42997  0.00000  0.14006
       9     C     3.04357  3.04357  0.00000 -0.08713
      10     C     3.04933  3.04933  0.00000 -0.09866
      11     C     3.24844  3.24844  0.00000 -0.49688
      12     H     0.42025  0.42025  0.00000  0.15951
      13     H     0.42341  0.42341  0.00000  0.15319
      14     C     3.23931  3.23931  0.00000 -0.47862
      15     H     0.41910  0.41910  0.00000  0.16180
      16     H     0.42968  0.42968  0.00000  0.14064
      17     H     0.42045  0.42045  0.00000  0.15909
      18     H     0.41886  0.41886  0.00000  0.16229
      19     H     0.42116  0.42116  0.00000  0.15767
      20     H     0.41677  0.41677  0.00000  0.16646
      21     H     0.42099  0.42099  0.00000  0.15801
      22     H     0.42344  0.42344  0.00000  0.15312

   Total alpha = 29.00000, Total beta = 29.00000, Total charge =  0.00000
