  ==> Input File <==

--------------------------------------------------------------------------
set {
	reference rhf
	basis 6-31G*
}

set_num_threads( 4 )
memory 2 gb

molecule MOL {
0 1

H	 1.940974	 -3.715665	 0.775966
C	 2.183352	 -2.690733	 0.514206
C	 0.920622	 -1.836877	 0.407406
H	 2.854166	 -2.305693	 1.277082
H	 2.728341	 -2.710331	 -0.425394
C	 1.217350	 -0.386724	 0.039429
H	 0.378002	 -1.850916	 1.347489
H	 0.256761	 -2.268049	 -0.340103
N	 0.000003	 0.397874	 -0.023260
H	 1.858879	 0.051776	 0.799115
H	 1.782310	 -0.355015	 -0.898223
C	 -1.217365	 -0.386708	 0.039277
H	 -0.000031	 1.072115	 0.718656
C	 -2.452633	 0.504241	 -0.042481
H	 -1.215291	 -1.074557	 -0.802042
H	 -1.269739	 -1.003477	 0.942735
C	 -3.758029	 -0.289423	 -0.010781
H	 -2.394220	 1.093569	 -0.952170
H	 -2.440793	 1.210787	 0.785871
H	 -3.816659	 -0.981993	 -0.845726
H	 -4.617837	 0.370165	 -0.069296
H	 -3.847478	 -0.867502	 0.904682

	symmetry c1
}
set optking {
	frozen_dihedral = ("
		10 6 9 12
	")
}

ee = optimize('scf')
oeprop('DIPOLE', 'QUADRUPOLE', 'MULLIKEN_CHARGES')
f=open( 'psi4out.xyz', 'w' )
f.write( "22  " )
f.write( str(ee) + "\n" )
f.write( MOL.save_string_xyz() )
f.close()
--------------------------------------------------------------------------

    Molecular point group: c1
  Charge       = 0
  Multiplicity = 1
  Basis Set: 6-31G*
  Basis Set:
  @DF-RHF Final Energy:  -290.36247593595806
    Total Energy =                       -290.3624759359578320
    Molecular point group: c1
  Basis Set: 6-31G*
  Basis Set:
  Basis Set: 6-31G*
  Basis Set:
  @DF-RHF Final Energy:  -290.36092655070968
    Total Energy =                       -290.3609265507097916
  Basis Set: 6-31G*
  Basis Set:
  Basis Set: 6-31G*
  Basis Set:
  @DF-RHF Final Energy:  -290.36976792711016
    Total Energy =                       -290.3697679271101606
  Basis Set: 6-31G*
  Basis Set:
  Basis Set: 6-31G*
  Basis Set:
  @DF-RHF Final Energy:  -290.37180382591100
    Total Energy =                       -290.3718038259108880
  Basis Set: 6-31G*
  Basis Set:
  @DF-RHF Final Energy:  -290.37214006197968
    Total Energy =                       -290.3721400619795077
  Basis Set: 6-31G*
  Basis Set:
  @DF-RHF Final Energy:  -290.37235606553401
    Total Energy =                       -290.3723560655338360
  Basis Set: 6-31G*
  Basis Set:
  Basis Set: 6-31G*
  Basis Set:
  @DF-RHF Final Energy:  -290.37238046071292
    Total Energy =                       -290.3723804607129182
  Basis Set: 6-31G*
  Basis Set:
  Basis Set: 6-31G*
  Basis Set:
  @DF-RHF Final Energy:  -290.37238160356981
    Total Energy =                       -290.3723816035701475
  Basis Set: 6-31G*
  Basis Set:
  Charge       = 0
  Multiplicity = 1
  Basis Set: 6-31G*
  Basis Set:

    Orbital Energies (a.u.)
    -----------------------

    Doubly Occupied:

       1A    -15.529338     2A    -11.239127     3A    -11.237099
       4A    -11.215408     5A    -11.212294     6A    -11.211188
       7A    -11.208913     8A     -1.196396     9A     -1.057029
      10A     -1.027626    11A     -0.929532    12A     -0.874445
      13A     -0.813860    14A     -0.780764    15A     -0.668424
      16A     -0.626235    17A     -0.619078    18A     -0.610117
      19A     -0.571413    20A     -0.558352    21A     -0.538493
      22A     -0.533076    23A     -0.502795    24A     -0.489648
      25A     -0.482062    26A     -0.473463    27A     -0.463246
      28A     -0.459056    29A     -0.347003

  @DF-RHF Final Energy:  -290.37238215486832

   => Energetics <=

    Nuclear Repulsion Energy =            317.7284684439671310
    One-Electron Energy =               -1021.2507443029726346
    Two-Electron Energy =                 413.1498937041375825
    DFT Exchange-Correlation Energy =       0.0000000000000000
    Empirical Dispersion Energy =           0.0000000000000000
    PCM Polarization Energy =               0.0000000000000000
    EFP Energy =                            0.0000000000000000
    Total Energy =                       -290.3723821548679211
    Molecular point group: c1
  Basis Set: 6-31G*
  Basis Set:

  -Total Gradient:
     Atom            X                  Y                   Z
    ------   -----------------  -----------------  -----------------
       1       -0.000001143114     0.000001105402    -0.000005060510
       2       -0.000010775178     0.000000107901    -0.000021942449
       3        0.000006845719    -0.000002515384     0.000035499361
       4       -0.000004082228    -0.000003173554     0.000004542550
       5        0.000010096698     0.000002277576     0.000000127124
       6        0.001882128619     0.002891278080    -0.001714363573
       7       -0.000001016490     0.000001434131     0.000001677177
       8       -0.000005407508     0.000005766594     0.000001744774
       9       -0.000311386874    -0.000916372076    -0.004026621907
      10       -0.001552093627    -0.002247795703     0.002614012671
      11        0.000020339735    -0.000002803586    -0.000000052595
      12       -0.000029027344     0.000261598963     0.003119342786
      13       -0.000003037498     0.000007933072     0.000008393221
      14       -0.000003010456    -0.000001034578     0.000007622536
      15        0.000005408456    -0.000013780605    -0.000008369894
      16        0.000004674989     0.000008641735    -0.000011033176
      17       -0.000002716246     0.000002122110    -0.000011856475
      18       -0.000007318269     0.000005019981     0.000000602995
      19       -0.000000308344    -0.000001314140     0.000003949814
      20        0.000001602816    -0.000002229599     0.000002575072
      21       -0.000000270852    -0.000000917257    -0.000003223213
      22        0.000000496995     0.000004650937     0.000002433711

  **** Optimization is complete! (in 9 steps) ****
    Final optimized geometry and variables:
    Molecular point group: c1

    Geometry (in Angstrom), charge = 0, multiplicity = 1:

    H            2.815391269200    -3.004606959068     0.576730393471
    C            2.893372071671    -1.948919469059     0.337504360415
    C            1.513700080917    -1.290799031431     0.297814780637
    H            3.530167645021    -1.486925542499     1.086828445426
    H            3.397060957840    -1.863828487173    -0.621126174171
    C            1.617520004049     0.198036425775    -0.052788740717
    H            1.029475146755    -1.412194786743     1.262750723871
    H            0.895945349801    -1.808436160842    -0.429354871002
    N            0.367249545520     0.959067296422    -0.127982488784
    H            2.245360255844     0.654057254078     0.708177422824
    H            2.147530793788     0.290143148794    -0.997894751630
    C           -0.907493478645     0.268026393391    -0.080436264005
    H            0.371686999875     1.673592255962     0.570128249483
    C           -2.050657780275     1.269094242425    -0.223427859100
    H           -0.956108155150    -0.434880980303    -0.906141184850
    H           -1.054518166175    -0.312514509564     0.833099267039
    C           -3.425779856442     0.602941338425    -0.206072248241
    H           -1.912770342257     1.822441347709    -1.146912159711
    H           -1.993788634602     1.996555042936     0.585014660795
    H           -3.528345765201    -0.107440474302    -1.021584786042
    H           -4.217318123837     1.338315248913    -0.308914398252
    H           -3.593875631327     0.065542728839     0.723068023505

  Mulliken Charges: (a.u.)
   Center  Symbol    Alpha    Beta     Spin     Total
       1     H     0.41750  0.41750  0.00000  0.16501
       2     C     3.24234  3.24234  0.00000 -0.48468
       3     C     3.16658  3.16658  0.00000 -0.33316
       4     H     0.42175  0.42175  0.00000  0.15650
       5     H     0.41986  0.41986  0.00000  0.16028
       6     C     3.03647  3.03647  0.00000 -0.07293
       7     H     0.42125  0.42125  0.00000  0.15750
       8     H     0.41891  0.41891  0.00000  0.16219
       9     N     3.87094  3.87094  0.00000 -0.74188
      10     H     0.42804  0.42804  0.00000  0.14391
      11     H     0.42202  0.42202  0.00000  0.15597
      12     C     3.04626  3.04626  0.00000 -0.09252
      13     H     0.33243  0.33243  0.00000  0.33514
      14     C     3.15478  3.15478  0.00000 -0.30957
      15     H     0.42158  0.42158  0.00000  0.15683
      16     H     0.43467  0.43467  0.00000  0.13066
      17     C     3.24312  3.24312  0.00000 -0.48624
      18     H     0.41299  0.41299  0.00000  0.17402
      19     H     0.42761  0.42761  0.00000  0.14479
      20     H     0.42096  0.42096  0.00000  0.15808
      21     H     0.41790  0.41790  0.00000  0.16419
      22     H     0.42204  0.42204  0.00000  0.15592

   Total alpha = 29.00000, Total beta = 29.00000, Total charge =  0.00000
