  ==> Input File <==

--------------------------------------------------------------------------
set {
	reference rhf
	basis cc-pvtz
}

set_num_threads( 4 )
memory 2 gb

molecule MOL {
0 1

H	 2.646708	 0.758099	 0.000000
O	 2.258158	 -0.097743	 0.000000
C	 0.911162	 -0.015915	 0.000000
C	 0.341860	 1.174977	 0.420087
C	 0.105662	 -1.065788	 -0.399197
H	 0.982153	 1.978614	 0.726180
C	 -1.030010	 1.304459	 0.436851
H	 0.547335	 -1.990058	 -0.725237
C	 -1.270267	 -0.921592	 -0.377177
H	 -1.465646	 2.229667	 0.763365
C	 -1.847647	 0.259590	 0.039204
H	 -1.888502	 -1.741939	 -0.688854
H	 -2.914386	 0.367825	 0.054983

	symmetry c1
}
set optking {
	frozen_dihedral = ("
		4 3 2 1
	")
}

ee = optimize('scf')
oeprop('DIPOLE', 'QUADRUPOLE', 'MULLIKEN_CHARGES')
f=open( 'psi4out.xyz', 'w' )
f.write( "13  " )
f.write( str(ee) + "\n" )
f.write( MOL.save_string_xyz() )
f.close()
--------------------------------------------------------------------------

    Molecular point group: c1
  Charge       = 0
  Multiplicity = 1
  Basis Set: CC-PVTZ
  Basis Set:
  @DF-RHF Final Energy:  -305.66812741938520
    Total Energy =                       -305.6681274193853142
    Molecular point group: c1
  Basis Set: CC-PVTZ
  Basis Set:
  Basis Set: CC-PVTZ
  Basis Set:
  @DF-RHF Final Energy:  -305.66987220556013
    Total Energy =                       -305.6698722055597841
  Basis Set: CC-PVTZ
  Basis Set:
  Basis Set: CC-PVTZ
  Basis Set:
  @DF-RHF Final Energy:  -305.67001593154504
    Total Energy =                       -305.6700159315451515
  Basis Set: CC-PVTZ
  Basis Set:
  Basis Set: CC-PVTZ
  Basis Set:
  @DF-RHF Final Energy:  -305.67003482641269
    Total Energy =                       -305.6700348264125751
  Basis Set: CC-PVTZ
  Basis Set:
  Basis Set: CC-PVTZ
  Basis Set:
  @DF-RHF Final Energy:  -305.67003874756909
    Total Energy =                       -305.6700387475692082
  Basis Set: CC-PVTZ
  Basis Set:
  Charge       = 0
  Multiplicity = 1
  Basis Set: CC-PVTZ
  Basis Set:

    Orbital Energies (a.u.)
    -----------------------

    Doubly Occupied:

       1A    -20.583523     2A    -11.296744     3A    -11.235107
       4A    -11.233369     5A    -11.226187     6A    -11.220866
       7A    -11.220045     8A     -1.413788     9A     -1.152713
      10A     -1.022736    11A     -1.008392    12A     -0.850192
      13A     -0.826829    14A     -0.741316    15A     -0.687963
      16A     -0.654449    17A     -0.615126    18A     -0.598022
      19A     -0.591842    20A     -0.561277    21A     -0.517502
      22A     -0.493821    23A     -0.484163    24A     -0.343073
      25A     -0.316031

  @DF-RHF Final Energy:  -305.67003922339342

   => Energetics <=

    Nuclear Repulsion Energy =            273.7824050837795653
    One-Electron Energy =                -957.1147352954106964
    Two-Electron Energy =                 377.6622909882377144
    DFT Exchange-Correlation Energy =       0.0000000000000000
    Empirical Dispersion Energy =           0.0000000000000000
    PCM Polarization Energy =               0.0000000000000000
    EFP Energy =                            0.0000000000000000
    Total Energy =                       -305.6700392233934735
    Molecular point group: c1
  Basis Set: CC-PVTZ
  Basis Set:

  -Total Gradient:
     Atom            X                  Y                   Z
    ------   -----------------  -----------------  -----------------
       1        0.000002229608     0.000017940093    -0.001708278097
       2        0.000057707893    -0.000258193426     0.002816147163
       3        0.000056112136     0.000696736286    -0.002361954476
       4       -0.000026136089    -0.000427531936     0.001222488224
       5       -0.000079950410    -0.000016448040     0.000025664391
       6       -0.000004791711    -0.000004454581    -0.000000407643
       7       -0.000007821584     0.000004381454     0.000028676297
       8        0.000010148490     0.000008904971     0.000000467086
       9       -0.000000034040    -0.000007389908     0.000013958701
      10       -0.000013879332    -0.000001865758    -0.000006212463
      11        0.000007342334    -0.000021809493    -0.000026861430
      12       -0.000001904922     0.000000385918    -0.000006534579
      13        0.000000977629     0.000009344421     0.000002846827

  **** Optimization is complete! (in 6 steps) ****
    Final optimized geometry and variables:
    Molecular point group: c1

    Geometry (in Angstrom), charge = 0, multiplicity = 1:

    H            2.695036868948     0.570809808835    -0.024471288800
    O            2.246857064793    -0.255429447047    -0.035109328658
    C            0.907250042176    -0.077951683136    -0.019456236899
    C            0.325086753270     1.101312056961     0.407317819514
    C            0.112938041453    -1.140733375345    -0.414106838820
    H            0.942843780250     1.920422248074     0.727739996292
    C           -1.052835945579     1.219298325836     0.423194265327
    H            0.581690874381    -2.049299532179    -0.737126422761
    C           -1.259704915085    -1.012580855750    -0.385521493965
    H           -1.497285284675     2.139527560248     0.751811781034
    C           -1.853725822955     0.166920751999     0.029432592919
    H           -1.870601134359    -1.839831398940    -0.693533890620
    H           -2.921870589810     0.260915920332     0.046276042019

  Mulliken Charges: (a.u.)
   Center  Symbol    Alpha    Beta     Spin     Total
       1     H     0.38682  0.38682  0.00000  0.22636
       2     O     4.17711  4.17711  0.00000 -0.35423
       3     C     2.85332  2.85332  0.00000  0.29336
       4     C     3.13159  3.13159  0.00000 -0.26318
       5     C     3.11061  3.11061  0.00000 -0.22122
       6     H     0.43293  0.43293  0.00000  0.13415
       7     C     3.06518  3.06518  0.00000 -0.13036
       8     H     0.41902  0.41902  0.00000  0.16196
       9     C     3.05742  3.05742  0.00000 -0.11484
      10     H     0.42236  0.42236  0.00000  0.15528
      11     C     3.09741  3.09741  0.00000 -0.19483
      12     H     0.42237  0.42237  0.00000  0.15525
      13     H     0.42386  0.42386  0.00000  0.15229

   Total alpha = 25.00000, Total beta = 25.00000, Total charge =  0.00000
