                              Psi4 1.0.54 Driver

  ==> Input File <==

--------------------------------------------------------------------------
set {
	reference rhf
	basis cc-pvtz
}

set_num_threads( 4 )
memory 2 gb

molecule MOL {
0 1

H	 -3.999103	 -0.677684	 -0.608273
C	 -2.936217	 -0.529860	 -0.632711
C	 -2.396092	 0.465779	 -1.426819
C	 -2.111171	 -1.335038	 0.129504
H	 -3.037099	 1.090366	 -2.018174
C	 -1.030189	 0.655126	 -1.457696
H	 -2.531028	 -2.106884	 0.745009
C	 -0.743279	 -1.146683	 0.099657
H	 -0.595255	 1.421173	 -2.066844
C	 -0.198787	 -0.150207	 -0.694745
H	 -0.101528	 -1.768509	 0.688739
C	 1.270335	 0.094641	 -0.762940
O	 1.968286	 -0.725612	 -0.000027
O	 1.768033	 0.937586	 -1.431460
C	 3.373556	 -0.568203	 0.000011
H	 3.695416	 -0.031588	 -0.879663
H	 3.782700	 -1.565294	 -0.000152
H	 3.695405	 -0.031851	 0.879862

	symmetry c1
}
set optking {
	frozen_dihedral = ("
		12 13 15 16
	")
}

ee,wfn = optimize('scf', return_wfn=True)
oeprop( wfn, 'DIPOLE', 'QUADRUPOLE', 'MULLIKEN_CHARGES')
f=open( 'psi4out.xyz', 'w' )
f.write( "18  " )
f.write( str(ee) + "\n" )
f.write( MOL.save_string_xyz() )
f.close()
--------------------------------------------------------------------------

    Molecular point group: c1
  Charge       = 0
  Multiplicity = 1
  Basis Set: CC-PVTZ
  Basis Set:
  @DF-RHF Final Energy:  -457.50806118780724
    Total Energy =                       -457.5080611878072432
    Molecular point group: c1
  Basis Set: CC-PVTZ
  Basis Set:
  Basis Set: CC-PVTZ
  Basis Set:
  @DF-RHF Final Energy:  -457.50777459956180
    Total Energy =                       -457.5077745995617988
  Basis Set: CC-PVTZ
  Basis Set:
  Basis Set: CC-PVTZ
  Basis Set:
  @DF-RHF Final Energy:  -457.50851143011778
    Total Energy =                       -457.5085114301173235
  Basis Set: CC-PVTZ
  Basis Set:
  Basis Set: CC-PVTZ
  Basis Set:
  @DF-RHF Final Energy:  -457.50750699452334
    Total Energy =                       -457.5075069945231689
  Basis Set: CC-PVTZ
  Basis Set:
  Basis Set: CC-PVTZ
  Basis Set:
  @DF-RHF Final Energy:  -457.50856397275675
    Total Energy =                       -457.5085639727569742
  Basis Set: CC-PVTZ
  Basis Set:
  Basis Set: CC-PVTZ
  Basis Set:
  @DF-RHF Final Energy:  -457.50857463085941
    Total Energy =                       -457.5085746308591297
  Basis Set: CC-PVTZ
  Basis Set:
  Charge       = 0
  Multiplicity = 1
  Basis Set: CC-PVTZ
  Basis Set:

    Orbital Energies (a.u.)
    -----------------------

    Doubly Occupied:

       1A    -20.600148     2A    -20.533814     3A    -11.372927
       4A    -11.280219     5A    -11.244683     6A    -11.243253
       7A    -11.242363     8A    -11.239727     9A    -11.235779
      10A    -11.235011    11A     -1.475006    12A     -1.368951
      13A     -1.170421    14A     -1.051598    15A     -1.028738
      16A     -0.981427    17A     -0.862848    18A     -0.838127
      19A     -0.780644    20A     -0.745083    21A     -0.688309
      22A     -0.679629    23A     -0.676155    24A     -0.634273
      25A     -0.629815    26A     -0.600991    27A     -0.587979
      28A     -0.569496    29A     -0.527706    30A     -0.520095
      31A     -0.509896    32A     -0.501678    33A     -0.461212
      34A     -0.449609    35A     -0.350039    36A     -0.345944

  @DF-RHF Final Energy:  -457.50857508262573

   => Energetics <=

    Nuclear Repulsion Energy =            493.6752240233856810
    One-Electron Energy =               -1601.8404090144758811
    Two-Electron Energy =                 650.6566099084645884
    DFT Exchange-Correlation Energy =       0.0000000000000000
    Empirical Dispersion Energy =           0.0000000000000000
    PCM Polarization Energy =               0.0000000000000000
    EFP Energy =                            0.0000000000000000
    Total Energy =                       -457.5085750826256117
    Molecular point group: c1
  Basis Set: CC-PVTZ
  Basis Set:

  -Total Gradient:
     Atom            X                  Y                   Z
    ------   -----------------  -----------------  -----------------
       1       -0.000000282458    -0.000002260842     0.000001971022
       2       -0.000005928932    -0.000000753826    -0.000000020697
       3       -0.000011145938     0.000005346478    -0.000006603628
       4       -0.000003447177    -0.000009168287     0.000012516089
       5       -0.000002599352     0.000001348846    -0.000001249275
       6       -0.000013425288     0.000003956996    -0.000006603199
       7       -0.000009884456    -0.000006950782     0.000007192733
       8       -0.000028710453    -0.000029332879     0.000022571359
       9        0.000004970093     0.000004543401    -0.000003477679
      10        0.000015686885     0.000027573761    -0.000017061831
      11       -0.000014433718     0.000007489255    -0.000007456541
      12       -0.000032972580    -0.000867934569    -0.000824284795
      13       -0.000024143492     0.001647089633     0.001264843880
      14        0.000054170100    -0.000051168692     0.000057466797
      15        0.000099553936    -0.001988010831    -0.001016044983
      16       -0.000053355666     0.001255260823     0.000532837458
      17        0.000012758267     0.000017202820    -0.000000138207
      18        0.000013190231    -0.000014231302    -0.000016458500

  **** Optimization is complete! (in 7 steps) ****
    Final optimized geometry and variables:
    Molecular point group: c1

    Geometry (in Angstrom), charge = 0, multiplicity = 1:

    H           -4.029999921725    -0.353097128285     0.154118314777
    C           -2.965493233417    -0.232632467400     0.086440612433
    C           -2.429029977263     0.670892928603    -0.813381165357
    C           -2.134484045386    -0.980580944732     0.898746389096
    H           -3.074486534204     1.251410139820    -1.443636372901
    C           -1.061095228502     0.825248174033    -0.899656508685
    H           -2.551162742981    -1.680993314541     1.596451615617
    C           -0.764400890301    -0.827216193550     0.813377348937
    H           -0.629349253244     1.520386175488    -1.590641759688
    C           -0.223454454597     0.076795699851    -0.086956224679
    H           -0.118544555894    -1.405000310287     1.441413563527
    C            1.248560268354     0.281620849389    -0.220406192041
    O            1.946365746743    -0.477774278779     0.604047950005
    O            1.736212635211     1.045752488153    -0.983681672052
    C            3.359657691687    -0.413300317511     0.569769683833
    H            3.703879979334    -0.000515685561    -0.362609093811
    H            3.723649950918    -1.419966808475     0.702433783198
    H            3.704663002672     0.207792164032     1.384742752642

  Mulliken Charges: (a.u.)
   Center  Symbol    Alpha    Beta     Spin     Total
       1     H     0.42033  0.42033  0.00000  0.15933
       2     C     3.06973  3.06973  0.00000 -0.13946
       3     C     3.07556  3.07556  0.00000 -0.15112
       4     C     3.07488  3.07488  0.00000 -0.14977
       5     H     0.42046  0.42046  0.00000  0.15907
       6     C     3.07590  3.07590  0.00000 -0.15181
       7     H     0.42196  0.42196  0.00000  0.15608
       8     C     3.08194  3.08194  0.00000 -0.16388
       9     H     0.40642  0.40642  0.00000  0.18716
      10     C     3.01782  3.01782  0.00000 -0.03563
      11     H     0.41120  0.41120  0.00000  0.17759
      12     C     2.77568  2.77568  0.00000  0.44865
      13     O     4.14985  4.14985  0.00000 -0.29971
      14     O     4.21154  4.21154  0.00000 -0.42309
      15     C     3.04074  3.04074  0.00000 -0.08148
      16     H     0.44195  0.44195  0.00000  0.11610
      17     H     0.44904  0.44904  0.00000  0.10191
      18     H     0.45498  0.45498  0.00000  0.09004

   Total alpha = 36.00000, Total beta = 36.00000, Total charge = -0.00000

*** Psi4 exiting successfully. Buy a developer a beer!
