  ==> Input File <==

--------------------------------------------------------------------------
set {
	reference rhf
	basis 6-31G*
}

set_num_threads( 4 )
memory 2 gb

molecule MOL {
0 1

O	 -2.042549	 -1.228399	 -0.269030
C	 -1.653912	 -0.146171	 0.050137
C	 -0.332303	 0.024011	 0.778412
C	 -2.438579	 1.106236	 -0.272369
C	 0.845713	 -0.001731	 -0.208243
H	 -0.323783	 0.953829	 1.340327
H	 -0.235459	 -0.796807	 1.480410
C	 2.200309	 0.136118	 0.488247
H	 0.733710	 0.800019	 -0.936072
H	 0.811185	 -0.933796	 -0.764304
C	 2.353347	 1.465872	 1.225500
H	 2.330998	 -0.684339	 1.190526
H	 2.993376	 0.037786	 -0.249278
H	 1.593811	 1.578652	 1.993899
H	 2.259822	 2.305178	 0.542665
H	 3.323554	 1.537053	 1.706808
H	 -3.277823	 0.863061	 -0.908988
H	 -1.806773	 1.843019	 -0.759671
H	 -2.802853	 1.554979	 0.648059

	symmetry c1
}
set optking {
	frozen_dihedral = ("
		11 8 5 9
	")
}

ee = optimize('scf')
oeprop('DIPOLE', 'QUADRUPOLE', 'MULLIKEN_CHARGES')
f=open( 'psi4out.xyz', 'w' )
f.write( "19  " )
f.write( str(ee) + "\n" )
f.write( MOL.save_string_xyz() )
f.close()
--------------------------------------------------------------------------

    Molecular point group: c1
  Charge       = 0
  Multiplicity = 1
  Basis Set: 6-31G*
  Basis Set:
  @DF-RHF Final Energy:  -309.06284516115534
    Total Energy =                       -309.0628451611553373
    Molecular point group: c1
  Basis Set: 6-31G*
  Basis Set:
  Basis Set: 6-31G*
  Basis Set:
  @DF-RHF Final Energy:  -309.06319640042454
    Total Energy =                       -309.0631964004246015
  Basis Set: 6-31G*
  Basis Set:
  Basis Set: 6-31G*
  Basis Set:
  @DF-RHF Final Energy:  -309.06360615763765
    Total Energy =                       -309.0636061576377074
  Basis Set: 6-31G*
  Basis Set:
  Basis Set: 6-31G*
  Basis Set:
  @DF-RHF Final Energy:  -309.06345728283594
    Total Energy =                       -309.0634572828356568
  Basis Set: 6-31G*
  Basis Set:
  @DF-RHF Final Energy:  -309.06359022787882
    Total Energy =                       -309.0635902278789331
  @DF-RHF Final Energy:  -309.06360716267454
    Total Energy =                       -309.0636071626747707
  Basis Set: 6-31G*
  Basis Set:
  @DF-RHF Final Energy:  -309.06361074131189
    Total Energy =                       -309.0636107413116065
  Basis Set: 6-31G*
  Basis Set:
  Basis Set: 6-31G*
  Basis Set:
  @DF-RHF Final Energy:  -309.06363189811628
    Total Energy =                       -309.0636318981162276
  Basis Set: 6-31G*
  Basis Set:
  Basis Set: 6-31G*
  Basis Set:
  @DF-RHF Final Energy:  -309.06363445508651
    Total Energy =                       -309.0636344550867420
  Basis Set: 6-31G*
  Basis Set:
  Charge       = 0
  Multiplicity = 1
  Basis Set: 6-31G*
  Basis Set:

    Orbital Energies (a.u.)
    -----------------------

    Doubly Occupied:

       1A    -20.547490     2A    -11.324638     3A    -11.230698
       4A    -11.229039     5A    -11.228255     6A    -11.225052
       7A    -11.216664     8A     -1.393278     9A     -1.091186
      10A     -1.027858    11A     -0.982046    12A     -0.900045
      13A     -0.798672    14A     -0.735092    15A     -0.658766
      16A     -0.650490    17A     -0.619110    18A     -0.604573
      19A     -0.598014    20A     -0.570193    21A     -0.552218
      22A     -0.540284    23A     -0.522280    24A     -0.496798
      25A     -0.479875    26A     -0.473280    27A     -0.464500
      28A     -0.397391

  @DF-RHF Final Energy:  -309.06363472605437

   => Energetics <=

    Nuclear Repulsion Energy =            304.4927698332669479
    One-Electron Energy =               -1021.9972385786149971
    Two-Electron Energy =                 408.4408340192939022
    DFT Exchange-Correlation Energy =       0.0000000000000000
    Empirical Dispersion Energy =           0.0000000000000000
    PCM Polarization Energy =               0.0000000000000000
    EFP Energy =                            0.0000000000000000
    Total Energy =                       -309.0636347260541470
    Molecular point group: c1
  Basis Set: 6-31G*
  Basis Set:

  -Total Gradient:
     Atom            X                  Y                   Z
    ------   -----------------  -----------------  -----------------
       1       -0.000007117994    -0.000002125486    -0.000003266293
       2        0.000004553095    -0.000007520556     0.000007940890
       3       -0.000003359544    -0.000010333307     0.000004135039
       4        0.000003537106     0.000002142001    -0.000000524777
       5       -0.000343086528     0.000376182715     0.000615755648
       6        0.000010416974     0.000000952823    -0.000003704277
       7       -0.000009813269    -0.000002924059     0.000000587333
       8        0.000284912352     0.000145983159    -0.000572015148
       9        0.000214693981    -0.000326952650    -0.000411189350
      10        0.000008165980     0.000006182582     0.000020233953
      11       -0.000169925735    -0.000179590694     0.000340872549
      12        0.000011538207     0.000002593203     0.000009816977
      13       -0.000001126062     0.000003915904     0.000001704592
      14       -0.000000702730    -0.000002564571    -0.000001579300
      15        0.000001053581     0.000001570503    -0.000003448180
      16       -0.000002726024    -0.000006665897    -0.000005172954
      17        0.000001293606    -0.000000557902    -0.000000080248
      18       -0.000001725554     0.000000016524    -0.000000345375
      19       -0.000000581444    -0.000000304285     0.000000278922

  **** Optimization is complete! (in 10 steps) ****
    Final optimized geometry and variables:
    Molecular point group: c1

    Geometry (in Angstrom), charge = 0, multiplicity = 1:

    O           -1.868071274245    -1.460240818067    -0.518027026088
    C           -1.515565437648    -0.360748833466    -0.216479988329
    C           -0.210732588761    -0.136076702076     0.527690975676
    C           -2.331396511765     0.861088589231    -0.576896209427
    C            0.978147776557    -0.154343372464    -0.447986750045
    H           -0.245887593869     0.802632417906     1.070388387263
    H           -0.100071563594    -0.941049784786     1.246389330547
    C            2.347825012653    -0.060525997412     0.232565006391
    H            0.879060603936     0.656946469930    -1.167262435211
    H            0.930875472515    -1.077926449147    -1.016104836550
    C            2.595835501991     1.242490010339     0.993947248393
    H            2.467884447631    -0.903298706999     0.909476198388
    H            3.112583898368    -0.172941033013    -0.531404413049
    H            1.927060243842     1.352519595084     1.841255358851
    H            2.459472099300     2.106062424526     0.348237310806
    H            3.610865018020     1.275278454302     1.376798995935
    H           -3.153236380861     0.580159188231    -1.220635634036
    H           -1.713747221531     1.605835987337    -1.070218882131
    H           -2.722895379787     1.317942196104     0.328244058447

  Mulliken Charges: (a.u.)
   Center  Symbol    Alpha    Beta     Spin     Total
       1     O     4.26207  4.26207  0.00000 -0.52414
       2     C     2.73710  2.73710  0.00000  0.52579
       3     C     3.20177  3.20177  0.00000 -0.40354
       4     C     3.28949  3.28949  0.00000 -0.57897
       5     C     3.16316  3.16316  0.00000 -0.32632
       6     H     0.41484  0.41484  0.00000  0.17031
       7     H     0.40155  0.40155  0.00000  0.19690
       8     C     3.15298  3.15298  0.00000 -0.30596
       9     H     0.42124  0.42124  0.00000  0.15751
      10     H     0.40449  0.40449  0.00000  0.19102
      11     C     3.24283  3.24283  0.00000 -0.48567
      12     H     0.41920  0.41920  0.00000  0.16160
      13     H     0.41729  0.41729  0.00000  0.16542
      14     H     0.42019  0.42019  0.00000  0.15961
      15     H     0.42194  0.42194  0.00000  0.15612
      16     H     0.41624  0.41624  0.00000  0.16752
      17     H     0.39702  0.39702  0.00000  0.20595
      18     H     0.40976  0.40976  0.00000  0.18047
      19     H     0.40682  0.40682  0.00000  0.18636

   Total alpha = 28.00000, Total beta = 28.00000, Total charge =  0.00000
