  ==> Input File <==

--------------------------------------------------------------------------
set {
	reference rhf
	basis 6-31G*
}

set_num_threads( 4 )
memory 2 gb

molecule MOL {
0 1

H	 0.919622	 1.678085	 -1.644045
O	 1.207959	 1.735875	 -0.743281
C	 0.709265	 0.639550	 -0.033818
C	 -0.793441	 0.596080	 0.058728
H	 1.133645	 0.705100	 0.961575
H	 1.067768	 -0.295157	 -0.463730
C	 -1.530462	 -0.493172	 -0.025500
H	 -1.268471	 1.554324	 0.202247
H	 -1.092586	 -1.461565	 -0.186463
H	 -2.602122	 -0.450675	 0.050101

	symmetry c1
}
set optking {
	frozen_dihedral = ("
		5 3 4 7
	")
}

ee = optimize('scf')
oeprop('DIPOLE', 'QUADRUPOLE', 'MULLIKEN_CHARGES')
f=open( 'psi4out.xyz', 'w' )
f.write( "10  " )
f.write( str(ee) + "\n" )
f.write( MOL.save_string_xyz() )
f.close()
--------------------------------------------------------------------------

    Molecular point group: c1
  Charge       = 0
  Multiplicity = 1
  Basis Set: 6-31G*
  Basis Set:
  @DF-RHF Final Energy:  -191.91658646768980
    Total Energy =                       -191.9165864676897684
    Molecular point group: c1
  Basis Set: 6-31G*
  Basis Set:
  Basis Set: 6-31G*
  Basis Set:
  @DF-RHF Final Energy:  -191.91683363986186
    Total Energy =                       -191.9168336398619203
  Basis Set: 6-31G*
  Basis Set:
  Basis Set: 6-31G*
  Basis Set:
  @DF-RHF Final Energy:  -191.91693136169994
    Total Energy =                       -191.9169313616999375
  Basis Set: 6-31G*
  Basis Set:
  Basis Set: 6-31G*
  Basis Set:
  @DF-RHF Final Energy:  -191.91693454030963
    Total Energy =                       -191.9169345403096258
  Basis Set: 6-31G*
  Basis Set:
  Charge       = 0
  Multiplicity = 1
  Basis Set: 6-31G*
  Basis Set:

    Orbital Energies (a.u.)
    -----------------------

    Doubly Occupied:

       1A    -20.558629     2A    -11.276570     3A    -11.231240
       4A    -11.225944     5A     -1.366092     6A     -1.063436
       7A     -0.920838     8A     -0.775950     9A     -0.703318
      10A     -0.622713    11A     -0.614833    12A     -0.606078
      13A     -0.526225    14A     -0.492379    15A     -0.445862
      16A     -0.370457

  @DF-RHF Final Energy:  -191.91693488367673

   => Energetics <=

    Nuclear Repulsion Energy =            117.2377367587613577
    One-Electron Energy =                -492.7082172975954109
    Two-Electron Energy =                 183.5535456551573361
    DFT Exchange-Correlation Energy =       0.0000000000000000
    Empirical Dispersion Energy =           0.0000000000000000
    PCM Polarization Energy =               0.0000000000000000
    EFP Energy =                            0.0000000000000000
    Total Energy =                       -191.9169348836767313
    Molecular point group: c1
  Basis Set: 6-31G*
  Basis Set:

  -Total Gradient:
     Atom            X                  Y                   Z
    ------   -----------------  -----------------  -----------------
       1       -0.000004972068    -0.000008746069     0.000007158665
       2        0.000001889970    -0.000014886880     0.000026666728
       3       -0.000006548585     0.002596896776     0.000765998460
       4       -0.000145683780    -0.000252898222    -0.002975366724
       5        0.000045129874    -0.002139720082     0.000159564124
       6       -0.000001747322    -0.000005001329     0.000001595823
       7        0.000117565003    -0.000176642965     0.002014746495
       8       -0.000001699002    -0.000001622575    -0.000000373237
       9       -0.000003881437     0.000004982623     0.000000730955
      10       -0.000000052655    -0.000002361278    -0.000000721287

  **** Optimization is complete! (in 5 steps) ****
    Final optimized geometry and variables:
    Molecular point group: c1

    Geometry (in Angstrom), charge = 0, multiplicity = 1:

    H            0.935273026845     1.015482201357    -1.413402284611
    O            1.233081957845     1.070617697835    -0.515626693743
    C            0.745591877278    -0.033349143643     0.198882476949
    C           -0.757489745655    -0.057660842922     0.267778285365
    H            1.159575089802     0.048773467237     1.196706965636
    H            1.115950780217    -0.966563381669    -0.220455182730
    C           -1.494389508594    -1.148152737993     0.193573651031
    H           -1.222776580492     0.900662390197     0.435868543273
    H           -1.058374510863    -2.119447754259     0.029047491827
    H           -2.564447556047    -1.115888443083     0.294306226598

  Mulliken Charges: (a.u.)
   Center  Symbol    Alpha    Beta     Spin     Total
       1     H     0.28130  0.28130  0.00000  0.43740
       2     O     4.36903  4.36903  0.00000 -0.73805
       3     C     3.00738  3.00738  0.00000 -0.01477
       4     C     3.08740  3.08740  0.00000 -0.17479
       5     H     0.40832  0.40832  0.00000  0.18335
       6     H     0.42453  0.42453  0.00000  0.15094
       7     C     3.19805  3.19805  0.00000 -0.39611
       8     H     0.40257  0.40257  0.00000  0.19486
       9     H     0.41274  0.41274  0.00000  0.17452
      10     H     0.40867  0.40867  0.00000  0.18266

   Total alpha = 16.00000, Total beta = 16.00000, Total charge =  0.00000
