  ==> Input File <==

--------------------------------------------------------------------------
set {
	reference rhf
	basis 6-31G*
}

set_num_threads( 1 )
memory 2 gb

molecule MOL {
0 1

H	 -0.249749	 0.149429	 -2.492675
O	 -0.735560	 0.950965	 -2.353462
C	 -0.402352	 1.474210	 -1.100805
C	 -0.793441	 0.596080	 0.058728
H	 -0.914304	 2.426772	 -1.025079
H	 0.664187	 1.688926	 -1.042349
C	 -1.530462	 -0.493172	 -0.025500
H	 -0.424048	 0.919759	 1.019594
H	 -1.092586	 -1.461565	 -0.186463
H	 -2.602122	 -0.450675	 0.050101

	symmetry c1
}
set optking {
	frozen_dihedral = ("
		5 3 2 1,
		5 3 4 7
	")
}

ee = energy('scf')
oeprop('DIPOLE', 'QUADRUPOLE', 'MULLIKEN_CHARGES')
f=open( 'psi4out.xyz', 'w' )
f.write( "10  " )
f.write( str(ee) + "\n" )
f.write( MOL.save_string_xyz() )
f.close()
--------------------------------------------------------------------------

    Molecular point group: c1

    Geometry (in Angstrom), charge = 0, multiplicity = 1:

       Center              X                  Y                   Z               Mass
    ------------   -----------------  -----------------  -----------------  -----------------
           H          0.596795858991    -0.495523994918    -1.559555594562     1.007825032070
           O          0.110984858991     0.306012005082    -1.420342594562    15.994914619560
           C          0.444192858991     0.829257005082    -0.167685594562    12.000000000000
           C          0.053103858991    -0.048872994918     0.991847405438    12.000000000000
           H         -0.067759141009     1.781819005082    -0.091959594562     1.007825032070
           H          1.510731858991     1.043973005082    -0.109229594562     1.007825032070
           C         -0.683917141009    -1.138124994918     0.907619405438    12.000000000000
           H          0.422496858991     0.274806005082     1.952713405438     1.007825032070
           H         -0.246041141009    -2.106517994918     0.746656405438     1.007825032070
           H         -1.755577141009    -1.095627994918     0.983220405438     1.007825032070

  Charge       = 0
  Multiplicity = 1
  Basis Set: 6-31G*
  Basis Set:

    Orbital Energies (a.u.)
    -----------------------

    Doubly Occupied:

       1A    -20.568218     2A    -11.353211     3A    -11.300196
       4A    -11.102977     5A     -1.377940     6A     -1.081446
       7A     -0.939704     8A     -0.779932     9A     -0.699196
      10A     -0.671141    11A     -0.628706    12A     -0.567377
      13A     -0.533767    14A     -0.516928    15A     -0.466564
      16A     -0.218012

  @DF-RHF Final Energy:  -191.71543269142950

   => Energetics <=

    Nuclear Repulsion Energy =            119.1468877575145910
    One-Electron Energy =                -496.1140348211354194
    Two-Electron Energy =                 185.2517143721913158
    DFT Exchange-Correlation Energy =       0.0000000000000000
    Empirical Dispersion Energy =           0.0000000000000000
    PCM Polarization Energy =               0.0000000000000000
    EFP Energy =                            0.0000000000000000
    Total Energy =                       -191.7154326914294984

  Mulliken Charges: (a.u.)
   Center  Symbol    Alpha    Beta     Spin     Total
       1     H     0.27967  0.27967  0.00000  0.44066
       2     O     4.34938  4.34938  0.00000 -0.69876
       3     C     3.03142  3.03142  0.00000 -0.06284
       4     C     2.88683  2.88683  0.00000  0.22635
       5     H     0.39192  0.39192  0.00000  0.21616
       6     H     0.41440  0.41440  0.00000  0.17120
       7     C     3.43997  3.43997  0.00000 -0.87993
       8     H     0.41041  0.41041  0.00000  0.17917
       9     H     0.40184  0.40184  0.00000  0.19632
      10     H     0.39416  0.39416  0.00000  0.21167

   Total alpha = 16.00000, Total beta = 16.00000, Total charge =  0.00000
