  ==> Input File <==

--------------------------------------------------------------------------
set {
	reference rhf
	basis 6-31G*
}

set_num_threads( 4 )
memory 2 gb

molecule MOL {
0 1

H	 -2.499100	 -0.730091	 -0.745082
O	 -2.347518	 -0.290803	 0.079804
C	 -1.184022	 0.487508	 -0.006784
C	 0.062599	 -0.378592	 0.031606
H	 -1.176523	 1.099369	 -0.904519
H	 -1.187323	 1.153111	 0.844927
O	 0.067302	 -1.176683	 -1.109800
H	 0.061819	 -0.996568	 0.931654
H	 0.946567	 0.255077	 0.072225
C	 1.178190	 -2.007942	 -1.228456
H	 1.245435	 -2.703690	 -0.394164
H	 1.069105	 -2.570124	 -2.145493
H	 2.101049	 -1.433447	 -1.274036

	symmetry c1
}
set optking {
	frozen_dihedral = ("
		8 4 3 5
	")
}

ee = optimize('scf')
oeprop('DIPOLE', 'QUADRUPOLE', 'MULLIKEN_CHARGES')
f=open( 'psi4out.xyz', 'w' )
f.write( "13  " )
f.write( str(ee) + "\n" )
f.write( MOL.save_string_xyz() )
f.close()
--------------------------------------------------------------------------

    Molecular point group: c1
  Charge       = 0
  Multiplicity = 1
  Basis Set: 6-31G*
  Basis Set:
  @DF-RHF Final Energy:  -267.95313404011279
    Total Energy =                       -267.9531340401125021
    Molecular point group: c1
  Basis Set: 6-31G*
  Basis Set:
  Basis Set: 6-31G*
  Basis Set:
  @DF-RHF Final Energy:  -267.95422923918500
    Total Energy =                       -267.9542292391849969
  Basis Set: 6-31G*
  Basis Set:
  Basis Set: 6-31G*
  Basis Set:
  @DF-RHF Final Energy:  -267.95433565998042
    Total Energy =                       -267.9543356599803019
  Basis Set: 6-31G*
  Basis Set:
  Basis Set: 6-31G*
  Basis Set:
  @DF-RHF Final Energy:  -267.95435130950119
    Total Energy =                       -267.9543513095014760
  Basis Set: 6-31G*
  Basis Set:
  Basis Set: 6-31G*
  Basis Set:
  @DF-RHF Final Energy:  -267.95435381930230
    Total Energy =                       -267.9543538193025825
  Basis Set: 6-31G*
  Basis Set:
  Charge       = 0
  Multiplicity = 1
  Basis Set: 6-31G*
  Basis Set:

    Orbital Energies (a.u.)
    -----------------------

    Doubly Occupied:

       1A    -20.568601     2A    -20.548455     3A    -11.274362
       4A    -11.273769     5A    -11.268102     6A     -1.395092
       7A     -1.354164     8A     -1.020568     9A     -0.921352
      10A     -0.836436    11A     -0.702981    12A     -0.682090
      13A     -0.664366    14A     -0.634630    15A     -0.585475
      16A     -0.580616    17A     -0.542296    18A     -0.492779
      19A     -0.484679    20A     -0.431950    21A     -0.429098

  @DF-RHF Final Energy:  -267.95435411904577

   => Energetics <=

    Nuclear Repulsion Energy =            194.6231177000060200
    One-Electron Energy =                -751.7712188279260772
    Two-Electron Energy =                 289.1937470088744249
    DFT Exchange-Correlation Energy =       0.0000000000000000
    Empirical Dispersion Energy =           0.0000000000000000
    PCM Polarization Energy =               0.0000000000000000
    EFP Energy =                            0.0000000000000000
    Total Energy =                       -267.9543541190456608
    Molecular point group: c1
  Basis Set: 6-31G*
  Basis Set:

  -Total Gradient:
     Atom            X                  Y                   Z
    ------   -----------------  -----------------  -----------------
       1       -0.000007398088    -0.000002658467    -0.000001401611
       2       -0.000007892552    -0.000012855038    -0.000006530880
       3        0.000326980071     0.000481990881     0.000353060890
       4        0.000363276380     0.000519696536     0.000353713715
       5       -0.000308735419    -0.000503023792    -0.000349978018
       6        0.000003692766    -0.000003394828     0.000001347461
       7       -0.000029473882     0.000000977823    -0.000005780742
       8       -0.000336131082    -0.000490417339    -0.000370756099
       9        0.000002690237     0.000005969831     0.000007607063
      10       -0.000005449101    -0.000003585446     0.000019579505
      11        0.000005874211    -0.000002926044    -0.000002557836
      12       -0.000004666249     0.000004165833     0.000000519418
      13       -0.000002767290     0.000006060048     0.000001177135

  **** Optimization is complete! (in 6 steps) ****
    Final optimized geometry and variables:
    Molecular point group: c1

    Geometry (in Angstrom), charge = 0, multiplicity = 1:

    H           -1.802193328684    -0.246035359450    -0.228724150482
    O           -1.867783764561     0.367386026977     0.491789211539
    C           -0.724927999531     1.172366641558     0.471847200150
    C            0.537334332815     0.337098965448     0.496002310849
    H           -0.714820104509     1.808229149458    -0.410371599821
    H           -0.766999677334     1.806874354926     1.348100938635
    O            0.539924938487    -0.442602447823    -0.666032639495
    H            0.538065121390    -0.303797676635     1.375472667135
    H            1.420068352514     0.974613405330     0.532010578018
    C            1.596430957506    -1.347198115815    -0.755940778400
    H            1.581745345901    -2.056894710650     0.068266050156
    H            1.487211593406    -1.886272831024    -1.686781567736
    H            2.556221605882    -0.835068368452    -0.755764244546

  Mulliken Charges: (a.u.)
   Center  Symbol    Alpha    Beta     Spin     Total
       1     H     0.27371  0.27371  0.00000  0.45257
       2     O     4.37270  4.37270  0.00000 -0.74540
       3     C     2.99788  2.99788  0.00000  0.00424
       4     C     3.00469  3.00469  0.00000 -0.00939
       5     H     0.42371  0.42371  0.00000  0.15258
       6     H     0.41657  0.41657  0.00000  0.16686
       7     O     4.31360  4.31360  0.00000 -0.62720
       8     H     0.42326  0.42326  0.00000  0.15348
       9     H     0.42944  0.42944  0.00000  0.14111
      10     C     3.07996  3.07996  0.00000 -0.15992
      11     H     0.42643  0.42643  0.00000  0.14715
      12     H     0.41060  0.41060  0.00000  0.17880
      13     H     0.42744  0.42744  0.00000  0.14511

   Total alpha = 21.00000, Total beta = 21.00000, Total charge = -0.00000
