                              Psi4 1.0.54 Driver

  ==> Input File <==

--------------------------------------------------------------------------
set {
	reference rhf
	basis cc-pvtz
}

set_num_threads( 4 )
memory 2 gb

molecule MOL {
0 1

O	 1.179567	 1.257430	 0.339648
C	 1.121787	 0.124983	 0.000110
C	 -0.119141	 -0.582561	 -0.480455
O	 2.167739	 -0.685178	 -0.000678
C	 -1.358942	 0.299690	 -0.501613
H	 0.098879	 -0.977823	 -1.467226
H	 -0.263090	 -1.447493	 0.158790
C	 -2.595437	 -0.447133	 -0.993187
H	 -1.174748	 1.161123	 -1.133710
H	 -1.537489	 0.690495	 0.493846
C	 -3.843439	 0.428444	 -1.020535
H	 -2.409285	 -0.839182	 -1.989623
H	 -2.774830	 -1.309220	 -0.356115
H	 -3.707767	 1.281456	 -1.676697
H	 -4.704573	 -0.127202	 -1.373215
H	 -4.076053	 0.807907	 -0.031354
C	 3.449556	 -0.089977	 -0.000570
H	 3.585694	 0.522473	 -0.879546
H	 4.155805	 -0.904274	 -0.001389
H	 3.586173	 0.521118	 0.879272

	symmetry c1
}
set optking {
	frozen_dihedral = ("
		1 2 4 17
	")
}

ee,wfn = optimize('scf', return_wfn=True)
oeprop( wfn, 'DIPOLE', 'QUADRUPOLE', 'MULLIKEN_CHARGES')
f=open( 'psi4out.xyz', 'w' )
f.write( "20  " )
f.write( str(ee) + "\n" )
f.write( MOL.save_string_xyz() )
f.close()
--------------------------------------------------------------------------

    Molecular point group: c1
  Charge       = 0
  Multiplicity = 1
  Basis Set: CC-PVTZ
  Basis Set:
  @DF-RHF Final Energy:  -384.08088034330297
    Total Energy =                       -384.0808803433030789
    Molecular point group: c1
  Basis Set: CC-PVTZ
  Basis Set:
  Basis Set: CC-PVTZ
  Basis Set:
  @DF-RHF Final Energy:  -384.07759415456638
    Total Energy =                       -384.0775941545667820
  Basis Set: CC-PVTZ
  Basis Set:
  Basis Set: CC-PVTZ
  Basis Set:
  @DF-RHF Final Energy:  -384.08109944052273
    Total Energy =                       -384.0810994405230758
  Basis Set: CC-PVTZ
  Basis Set:
  Basis Set: CC-PVTZ
  Basis Set:
  @DF-RHF Final Energy:  -384.08116022585529
    Total Energy =                       -384.0811602258554558
  Basis Set: CC-PVTZ
  Basis Set:
  Basis Set: CC-PVTZ
  Basis Set:
  @DF-RHF Final Energy:  -384.08117006501669
    Total Energy =                       -384.0811700650168632
  Basis Set: CC-PVTZ
  Basis Set:
  Basis Set: CC-PVTZ
  Basis Set:
  @DF-RHF Final Energy:  -384.08117583072016
    Total Energy =                       -384.0811758307205537
  Basis Set: CC-PVTZ
  Basis Set:
  Charge       = 0
  Multiplicity = 1
  Basis Set: CC-PVTZ
  Basis Set:

    Orbital Energies (a.u.)
    -----------------------

    Doubly Occupied:

       1A    -20.594482     2A    -20.535264     3A    -11.365091
       4A    -11.279496     5A    -11.234155     6A    -11.218586
       7A    -11.217458     8A    -11.208859     9A     -1.470876
      10A     -1.366207    11A     -1.090070    12A     -1.025095
      13A     -0.969862    14A     -0.887230    15A     -0.804848
      16A     -0.769265    17A     -0.698814    18A     -0.685608
      19A     -0.675939    20A     -0.646845    21A     -0.600312
      22A     -0.592904    23A     -0.580533    24A     -0.542788
      25A     -0.537031    26A     -0.523764    27A     -0.501758
      28A     -0.479420    29A     -0.475418    30A     -0.471304
      31A     -0.458813    32A     -0.439454

  @DF-RHF Final Energy:  -384.08117662457647

   => Energetics <=

    Nuclear Repulsion Energy =            381.5782521159788416
    One-Electron Energy =               -1279.4237614074313569
    Two-Electron Energy =                 513.7643326668763848
    DFT Exchange-Correlation Energy =       0.0000000000000000
    Empirical Dispersion Energy =           0.0000000000000000
    PCM Polarization Energy =               0.0000000000000000
    EFP Energy =                            0.0000000000000000
    Total Energy =                       -384.0811766245761874
    Molecular point group: c1
  Basis Set: CC-PVTZ
  Basis Set:

  -Total Gradient:
     Atom            X                  Y                   Z
    ------   -----------------  -----------------  -----------------
       1       -0.001670757034    -0.001264794866     0.006136974668
       2        0.002553457262     0.001849331684    -0.011837136797
       3       -0.000038188423    -0.000010037528     0.000232012236
       4       -0.001118074553    -0.000238511395     0.010362872016
       5        0.000018847895    -0.000023243304    -0.000008850340
       6        0.000014723851    -0.000003470683    -0.000004068698
       7        0.000013029622    -0.000001672453    -0.000004592045
       8       -0.000016640072     0.000010840450     0.000009100599
       9       -0.000002671120     0.000005779065     0.000000511862
      10        0.000002049691     0.000000535567     0.000006952038
      11        0.000000801613    -0.000019292938    -0.000013276213
      12       -0.000000505631     0.000000071110     0.000001466688
      13       -0.000002803902    -0.000000234314     0.000001207419
      14        0.000001234432     0.000005900693     0.000002013557
      15       -0.000004017547     0.000002473488    -0.000002141836
      16        0.000003485372     0.000001036468     0.000001469449
      17        0.000221641377    -0.000371541777    -0.004978618717
      18        0.000018491408     0.000034861150     0.000025429077
      19       -0.000009067964    -0.000027940128     0.000017481869
      20        0.000014963727     0.000049909713     0.000051193168

  **** Optimization is complete! (in 7 steps) ****
    Final optimized geometry and variables:
    Molecular point group: c1

    Geometry (in Angstrom), charge = 0, multiplicity = 1:

    O            1.184614177025     1.247778552407     0.502808291921
    C            1.101166505676     0.096204308942     0.245246815744
    C           -0.155053082681    -0.614211740791    -0.187211075152
    O            2.117298907872    -0.747639752719     0.361216115735
    C           -1.398597936407     0.262414040567    -0.159058552385
    H            0.028240509056    -1.000229118673    -1.185605774692
    H           -0.269250983171    -1.485239571386     0.448772411372
    C           -2.648712071937    -0.486488341491    -0.611580402467
    H           -1.240168768636     1.129111994642    -0.790470579084
    H           -1.543872618572     0.645049781583     0.845321744560
    C           -3.900928665210     0.383122771234    -0.586697758158
    H           -2.496740167875    -0.869354706277    -1.617379919362
    H           -2.801022218367    -1.354696102110     0.024173537234
    H           -3.792735176673     1.242418914950    -1.239756748644
    H           -4.771586886233    -0.173687158048    -0.913166814076
    H           -4.099780634248     0.752949928878     0.413442497413
    C            3.418644714940    -0.196258129706     0.386443931025
    H            3.585193227354     0.418810475981    -0.486393273768
    H            4.097819459915    -1.033296511966     0.384516320162
    H            3.568036289858     0.401471167302     1.273084646921

  Mulliken Charges: (a.u.)
   Center  Symbol    Alpha    Beta     Spin     Total
       1     O     4.19419  4.19419  0.00000 -0.38839
       2     C     2.80591  2.80591  0.00000  0.38819
       3     C     3.10059  3.10059  0.00000 -0.20118
       4     O     4.14864  4.14864  0.00000 -0.29728
       5     C     3.08185  3.08185  0.00000 -0.16370
       6     H     0.44275  0.44275  0.00000  0.11450
       7     H     0.43849  0.43849  0.00000  0.12303
       8     C     3.08667  3.08667  0.00000 -0.17334
       9     H     0.44581  0.44581  0.00000  0.10839
      10     H     0.44751  0.44751  0.00000  0.10497
      11     C     3.14922  3.14922  0.00000 -0.29845
      12     H     0.45537  0.45537  0.00000  0.08925
      13     H     0.45508  0.45508  0.00000  0.08984
      14     H     0.45386  0.45386  0.00000  0.09228
      15     H     0.44836  0.44836  0.00000  0.10327
      16     H     0.45384  0.45384  0.00000  0.09231
      17     C     3.03742  3.03742  0.00000 -0.07485
      18     H     0.45850  0.45850  0.00000  0.08299
      19     H     0.44526  0.44526  0.00000  0.10947
      20     H     0.45066  0.45066  0.00000  0.09867

   Total alpha = 32.00000, Total beta = 32.00000, Total charge = -0.00000

*** Psi4 exiting successfully. Buy a developer a beer!
