                              Psi4 1.0.54 Driver

  ==> Input File <==

--------------------------------------------------------------------------
set {
	reference rhf
	basis cc-pvtz
}

set_num_threads( 4 )
memory 2 gb

molecule MOL {
0 1

H	 2.454258	 0.709580	 0.569777
O	 1.558639	 0.823898	 0.827541
C	 0.700177	 0.619554	 -0.266242
C	 -0.713111	 0.588314	 0.266177
H	 0.923489	 -0.322547	 -0.757670
H	 0.798779	 1.422229	 -0.992443
O	 -1.421673	 -0.521378	 -0.196983
H	 -1.244794	 1.469161	 -0.069059
H	 -0.685100	 0.604721	 1.352683
H	 -0.933408	 -1.297830	 0.014544

	symmetry c1
}
set optking {
	frozen_dihedral = ("
		5 3 4 7
	")
}

ee,wfn = optimize('scf', return_wfn=True)
oeprop( wfn, 'DIPOLE', 'QUADRUPOLE', 'MULLIKEN_CHARGES')
f=open( 'psi4out.xyz', 'w' )
f.write( "10  " )
f.write( str(ee) + "\n" )
f.write( MOL.save_string_xyz() )
f.close()
--------------------------------------------------------------------------

    Molecular point group: c1
  Charge       = 0
  Multiplicity = 1
  Basis Set: CC-PVTZ
  Basis Set:
  @DF-RHF Final Energy:  -229.01871918250157
    Total Energy =                       -229.0187191825013429
    Molecular point group: c1
  Basis Set: CC-PVTZ
  Basis Set:
  Basis Set: CC-PVTZ
  Basis Set:
  @DF-RHF Final Energy:  -229.01994631254678
    Total Energy =                       -229.0199463125465229
  Basis Set: CC-PVTZ
  Basis Set:
  Basis Set: CC-PVTZ
  Basis Set:
  @DF-RHF Final Energy:  -229.02039733966592
    Total Energy =                       -229.0203973396660047
  Basis Set: CC-PVTZ
  Basis Set:
  Basis Set: CC-PVTZ
  Basis Set:
  @DF-RHF Final Energy:  -229.02046658997622
    Total Energy =                       -229.0204665899761380
  Basis Set: CC-PVTZ
  Basis Set:
  Basis Set: CC-PVTZ
  Basis Set:
  @DF-RHF Final Energy:  -229.02046885605853
    Total Energy =                       -229.0204688560584998
  Basis Set: CC-PVTZ
  Basis Set:
  Charge       = 0
  Multiplicity = 1
  Basis Set: CC-PVTZ
  Basis Set:

    Orbital Energies (a.u.)
    -----------------------

    Doubly Occupied:

       1A    -20.555421     2A    -20.549789     3A    -11.271564
       4A    -11.267492     5A     -1.377800     6A     -1.363346
       7A     -0.996792     8A     -0.848515     9A     -0.729526
      10A     -0.669850    11A     -0.657817    12A     -0.611047
      13A     -0.576361    14A     -0.528991    15A     -0.495673
      16A     -0.448520    17A     -0.437258

  @DF-RHF Final Energy:  -229.02046922655884

   => Energetics <=

    Nuclear Repulsion Energy =            131.3632572307412545
    One-Electron Energy =                -573.9959281621563605
    Two-Electron Energy =                 213.6122017048563748
    DFT Exchange-Correlation Energy =       0.0000000000000000
    Empirical Dispersion Energy =           0.0000000000000000
    PCM Polarization Energy =               0.0000000000000000
    EFP Energy =                            0.0000000000000000
    Total Energy =                       -229.0204692265587028
    Molecular point group: c1
  Basis Set: CC-PVTZ
  Basis Set:

  -Total Gradient:
     Atom            X                  Y                   Z
    ------   -----------------  -----------------  -----------------
       1       -0.000017171319     0.000001734825     0.000009812629
       2        0.000013139892    -0.000000966411    -0.000010476862
       3        0.000825071383    -0.001117400410     0.002124570455
       4       -0.000655397735     0.001192283488    -0.001720090541
       5       -0.000547651897     0.000693569177    -0.001438326945
       6        0.000001244487    -0.000005705953     0.000000070271
       7        0.000393902156    -0.000749334734     0.001039165607
       8       -0.000002375354    -0.000012136150    -0.000003066980
       9       -0.000008563455     0.000003147487     0.000002503734
      10       -0.000002198156    -0.000005191317    -0.000004161366

  **** Optimization is complete! (in 6 steps) ****
    Final optimized geometry and variables:
    Molecular point group: c1

    Geometry (in Angstrom), charge = 0, multiplicity = 1:

    H            2.427437428334     0.537482572437     0.332385487223
    O            1.550450650796     0.425621387774     0.649853461102
    C            0.665395913202     0.253465300074    -0.425026424218
    C           -0.767067557604     0.237672422855     0.115997941986
    H            0.851343496329    -0.680840995648    -0.946429609449
    H            0.789345145988     1.054291792101    -1.147995041252
    O           -1.527003244761    -0.833405279690    -0.371795760959
    H           -1.296068443846     1.134172289994    -0.172442525813
    H           -0.713754664863     0.217905113978     1.198641031223
    H           -1.219843459201    -1.639077213691     0.002412371603

  Mulliken Charges: (a.u.)
   Center  Symbol    Alpha    Beta     Spin     Total
       1     H     0.39286  0.39286  0.00000  0.21429
       2     O     4.19900  4.19900  0.00000 -0.39799
       3     C     2.96934  2.96934  0.00000  0.06132
       4     C     2.97281  2.97281  0.00000  0.05438
       5     H     0.47553  0.47553  0.00000  0.04895
       6     H     0.47425  0.47425  0.00000  0.05150
       7     O     4.20335  4.20335  0.00000 -0.40671
       8     H     0.45763  0.45763  0.00000  0.08474
       9     H     0.46274  0.46274  0.00000  0.07453
      10     H     0.39250  0.39250  0.00000  0.21500

   Total alpha = 17.00000, Total beta = 17.00000, Total charge = -0.00000

*** Psi4 exiting successfully. Buy a developer a beer!
