  ==> Input File <==

--------------------------------------------------------------------------
set {
	reference rhf
	basis 6-31G*
}

set_num_threads( 4 )
memory 2 gb

molecule MOL {
0 1

H	 -1.265187	 -0.592460	 -0.758169
N	 -0.626943	 -0.667432	 -0.000092
C	 -0.916094	 -1.622917	 1.044972
C	 0.469286	 0.129090	 0.000148
H	 -1.862479	 -1.398413	 1.525553
H	 -0.128957	 -1.567670	 1.779201
H	 -0.957766	 -2.631997	 0.648675
C	 1.788933	 -0.616240	 -0.000037
O	 0.411098	 1.327768	 -0.000049
H	 1.872803	 -1.245775	 -0.880381
H	 2.595421	 0.101576	 0.003713
H	 1.870096	 -1.252171	 0.875943

	symmetry c1
}
set optking {
	frozen_dihedral = ("
		3 2 4 9
	")
}

ee = optimize('scf')
oeprop('DIPOLE', 'QUADRUPOLE', 'MULLIKEN_CHARGES')
f=open( 'psi4out.xyz', 'w' )
f.write( "12  " )
f.write( str(ee) + "\n" )
f.write( MOL.save_string_xyz() )
f.close()
--------------------------------------------------------------------------

    Molecular point group: c1
  Charge       = 0
  Multiplicity = 1
  Basis Set: 6-31G*
  Basis Set:
  @DF-RHF Final Energy:  -246.97269407902849
    Total Energy =                       -246.9726940790285994
    Molecular point group: c1
  Basis Set: 6-31G*
  Basis Set:
  Basis Set: 6-31G*
  Basis Set:
  @DF-RHF Final Energy:  -246.98022787934690
    Total Energy =                       -246.9802278793467849
  Basis Set: 6-31G*
  Basis Set:
  Basis Set: 6-31G*
  Basis Set:
  @DF-RHF Final Energy:  -246.98605934312135
    Total Energy =                       -246.9860593431214966
  Basis Set: 6-31G*
  Basis Set:
  Basis Set: 6-31G*
  Basis Set:
  @DF-RHF Final Energy:  -246.99144116575175
    Total Energy =                       -246.9914411657517803
  Basis Set: 6-31G*
  Basis Set:
  @DF-RHF Final Energy:  -246.99212119959947
    Total Energy =                       -246.9921211995995236
  @DF-RHF Final Energy:  -246.99266442093540
    Total Energy =                       -246.9926644209351707
  @DF-RHF Final Energy:  -246.99310681160000
    Total Energy =                       -246.9931068116000574
  @DF-RHF Final Energy:  -246.99352964085932
    Total Energy =                       -246.9935296408593786
  @DF-RHF Final Energy:  -246.99414706097193
    Total Energy =                       -246.9941470609720682
  @DF-RHF Final Energy:  -246.99423787535093
    Total Energy =                       -246.9942378753508478
  @DF-RHF Final Energy:  -246.99430871240264
    Total Energy =                       -246.9943087124026988
  @DF-RHF Final Energy:  -246.99433117739616
    Total Energy =                       -246.9943311773958499
  @DF-RHF Final Energy:  -246.99434691544442
    Total Energy =                       -246.9943469154446234
  @DF-RHF Final Energy:  -246.99437238654897
    Total Energy =                       -246.9943723865491165
  @DF-RHF Final Energy:  -246.99436040090782
    Total Energy =                       -246.9943604009080218
  @DF-RHF Final Energy:  -246.99438410175065
    Total Energy =                       -246.9943841017505974
  @DF-RHF Final Energy:  -246.99438996278300
    Total Energy =                       -246.9943899627828614
  @DF-RHF Final Energy:  -246.99429093735554
    Total Energy =                       -246.9942909373554585
  @DF-RHF Final Energy:  -246.99349903456974
    Total Energy =                       -246.9934990345697656
  @DF-RHF Final Energy:  -246.99438891817704
    Total Energy =                       -246.9943889181770942
  @DF-RHF Final Energy:  -246.99439843660085
    Total Energy =                       -246.9943984366006475
  @DF-RHF Final Energy:  -246.99439914877675
    Total Energy =                       -246.9943991487768926
  @DF-RHF Final Energy:  -246.99439909563816
    Total Energy =                       -246.9943990956382436
  @DF-RHF Final Energy:  -246.99439899219573
    Total Energy =                       -246.9943989921956700
  @DF-RHF Final Energy:  -246.99439907507707
    Total Energy =                       -246.9943990750770126
  @DF-RHF Final Energy:  -246.99439922949870
    Total Energy =                       -246.9943992294987538
  @DF-RHF Final Energy:  -246.99439916045591
    Total Energy =                       -246.9943991604559415
  @DF-RHF Final Energy:  -246.99439907156449
    Total Energy =                       -246.9943990715646578
  @DF-RHF Final Energy:  -246.99439914208276
    Total Energy =                       -246.9943991420827842
  @DF-RHF Final Energy:  -246.99439904926854
    Total Energy =                       -246.9943990492685657
  @DF-RHF Final Energy:  -246.99439900506798
    Total Energy =                       -246.9943990050679190
  @DF-RHF Final Energy:  -246.99439895431266
    Total Energy =                       -246.9943989543127145
  @DF-RHF Final Energy:  -246.99439897519338
    Total Energy =                       -246.9943989751933486
  @DF-RHF Final Energy:  -246.99439893784128
    Total Energy =                       -246.9943989378411402
  @DF-RHF Final Energy:  -246.99439892402469
    Total Energy =                       -246.9943989240247788
  @DF-RHF Final Energy:  -246.99439896708103
    Total Energy =                       -246.9943989670808264
  Basis Set: 6-31G*
  Basis Set:
  @DF-RHF Final Energy:  -246.99439887245694
    Total Energy =                       -246.9943988724569408
  Basis Set: 6-31G*
  Basis Set:
  Basis Set: 6-31G*
  Basis Set:
  @DF-RHF Final Energy:  -246.99439884807003
    Total Energy =                       -246.9943988480700909
  Basis Set: 6-31G*
  Basis Set:
  Basis Set: 6-31G*
  Basis Set:
  @DF-RHF Final Energy:  -246.99439874498705
    Total Energy =                       -246.9943987449870519
  Basis Set: 6-31G*
  Basis Set:
  Charge       = 0
  Multiplicity = 1
  Basis Set: 6-31G*
  Basis Set:

    Orbital Energies (a.u.)
    -----------------------

    Doubly Occupied:

       1A    -20.537386     2A    -15.572220     3A    -11.348499
       4A    -11.267858     5A    -11.230265     6A     -1.400433
       7A     -1.225049     8A     -1.007695     9A     -0.945799
      10A     -0.771794    11A     -0.676716    12A     -0.663128
      13A     -0.634071    14A     -0.597907    15A     -0.577586
      16A     -0.565781    17A     -0.549449    18A     -0.505212
      19A     -0.429486    20A     -0.394631

  @DF-RHF Final Energy:  -246.99439890173716

   => Energetics <=

    Nuclear Repulsion Energy =            181.2709139394106046
    One-Electron Energy =                -694.7286962585601486
    Two-Electron Energy =                 266.4633834174122171
    DFT Exchange-Correlation Energy =       0.0000000000000000
    Empirical Dispersion Energy =           0.0000000000000000
    PCM Polarization Energy =               0.0000000000000000
    EFP Energy =                            0.0000000000000000
    Total Energy =                       -246.9943989017373838
    Molecular point group: c1
  Basis Set: 6-31G*
  Basis Set:

  -Total Gradient:
     Atom            X                  Y                   Z
    ------   -----------------  -----------------  -----------------
       1       -0.000067730432    -0.000310064017    -0.000390933804
       2        0.005948769879    -0.006062960421     0.000228412168
       3       -0.004273392191     0.004745542010     0.002811115042
       4        0.000124365366     0.001241434407    -0.011096217542
       5        0.000056177149    -0.000125393569    -0.000151948968
       6       -0.000099893450     0.000047895531     0.000005343824
       7        0.000000104753     0.000000422066     0.000018499536
       8       -0.000152928974     0.000011515840    -0.000175100936
       9       -0.001434819069     0.000421841673     0.008744494898
      10       -0.000007488582     0.000112849361    -0.000014377031
      11       -0.000062609917    -0.000041234334    -0.000021695209
      12       -0.000030554532    -0.000041848552     0.000042408024

    Molecular point group: c1

    Geometry (in Angstrom), charge = 0, multiplicity = 1:

    H           -1.613807526735    -0.014872589095    -0.616929631729
    N           -0.784902871127    -0.506712582147    -0.345393378518
    C           -1.059475904407    -1.368193047343     0.799291759217
    C            0.239952615052     0.425857528406    -0.241530861303
    H           -1.295443789630    -0.809135870484     1.701449313243
    H           -0.212564512245    -2.010817406082     1.001459653294
    H           -1.900727361402    -2.002695845703     0.555729365827
    C            1.613641043550    -0.126198222598     0.063763213181
    O            0.038940740900     1.597665642771    -0.358903245723
    H            1.783768656295    -1.070485677496    -0.437712497434
    H            2.353631364309     0.598950920244    -0.242765118205
    H            1.717416716896    -0.283766374639     1.133459342196

  Mulliken Charges: (a.u.)
   Center  Symbol    Alpha    Beta     Spin     Total
       1     H     0.31637  0.31637  0.00000  0.36727
       2     N     3.86607  3.86607  0.00000 -0.73214
       3     C     3.15772  3.15772  0.00000 -0.31544
       4     C     2.65872  2.65872  0.00000  0.68256
       5     H     0.41605  0.41605  0.00000  0.16790
       6     H     0.40941  0.40941  0.00000  0.18118
       7     H     0.40571  0.40571  0.00000  0.18857
       8     C     3.29235  3.29235  0.00000 -0.58470
       9     O     4.27624  4.27624  0.00000 -0.55247
      10     H     0.40368  0.40368  0.00000  0.19265
      11     H     0.39330  0.39330  0.00000  0.21340
      12     H     0.40439  0.40439  0.00000  0.19121

   Total alpha = 20.00000, Total beta = 20.00000, Total charge =  0.00000
