                              Psi4 1.0.54 Driver

  ==> Input File <==

--------------------------------------------------------------------------
set {
	reference rhf
	basis cc-pvtz
}

set_num_threads( 4 )
memory 2 gb

molecule MOL {
0 1

O	 3.219313	 0.959291	 -0.614106
C	 2.698710	 0.058177	 -0.050237
C	 1.246364	 -0.005813	 0.348416
O	 3.344101	 -1.038700	 0.312317
C	 0.453207	 1.232821	 -0.049003
H	 0.839270	 -0.907818	 -0.092281
H	 1.216683	 -0.160521	 1.422434
C	 -0.998367	 1.217982	 0.432195
H	 0.481498	 1.345443	 -1.127236
H	 0.951413	 2.105557	 0.354893
C	 -1.882951	 0.151251	 -0.211235
H	 -1.429490	 2.193659	 0.228843
H	 -1.019755	 1.099323	 1.513279
C	 -3.342450	 0.243269	 0.226009
H	 -1.826223	 0.246578	 -1.293162
H	 -1.508033	 -0.839650	 0.027695
C	 -4.329441	 0.195848	 -0.936907
H	 -3.492275	 1.163908	 0.784861
H	 -3.562797	 -0.568810	 0.915096
C	 -5.785184	 0.290110	 -0.492270
H	 -4.110647	 1.006836	 -1.626218
H	 -4.182888	 -0.725051	 -1.494872
H	 -6.458613	 0.253336	 -1.340871
H	 -5.972874	 1.217472	 0.038655
H	 -6.045321	 -0.527529	 0.171811
C	 4.720529	 -1.114346	 0.001449
H	 4.874321	 -1.055557	 -1.065852
H	 5.057824	 -2.067950	 0.373977
H	 5.264321	 -0.313596	 0.480350

	symmetry c1
}
set optking {
	frozen_dihedral = ("
		17 14 11 15
	")
}

ee,wfn = optimize('scf', return_wfn=True)
oeprop( wfn, 'DIPOLE', 'QUADRUPOLE', 'MULLIKEN_CHARGES')
f=open( 'psi4out.xyz', 'w' )
f.write( "29  " )
f.write( str(ee) + "\n" )
f.write( MOL.save_string_xyz() )
f.close()
--------------------------------------------------------------------------

    Molecular point group: c1
  Charge       = 0
  Multiplicity = 1
  Basis Set: CC-PVTZ
  Basis Set:
  @DF-RHF Final Energy:  -501.21985231677104
    Total Energy =                       -501.2198523167710391
    Molecular point group: c1
  Basis Set: CC-PVTZ
  Basis Set:
  Basis Set: CC-PVTZ
  Basis Set:
  @DF-RHF Final Energy:  -501.22006550166077
    Total Energy =                       -501.2200655016607698
  Basis Set: CC-PVTZ
  Basis Set:
  Basis Set: CC-PVTZ
  Basis Set:
  @DF-RHF Final Energy:  -501.22014137507438
    Total Energy =                       -501.2201413750742631
  Basis Set: CC-PVTZ
  Basis Set:
  Basis Set: CC-PVTZ
  Basis Set:
  @DF-RHF Final Energy:  -501.21995103838481
    Total Energy =                       -501.2199510383845791
  Basis Set: CC-PVTZ
  Basis Set:
  Basis Set: CC-PVTZ
  Basis Set:
  @DF-RHF Final Energy:  -501.22016184446159
    Total Energy =                       -501.2201618444618134
  Basis Set: CC-PVTZ
  Basis Set:
  Charge       = 0
  Multiplicity = 1
  Basis Set: CC-PVTZ
  Basis Set:

    Orbital Energies (a.u.)
    -----------------------

    Doubly Occupied:

       1A    -20.596025     2A    -20.533872     3A    -11.364296
       4A    -11.278276     5A    -11.233009     6A    -11.217026
       7A    -11.216103     8A    -11.214199     9A    -11.213398
      10A    -11.212041    11A    -11.206838    12A     -1.471894
      13A     -1.365499    14A     -1.098274    15A     -1.067169
      16A     -1.020253    17A     -0.977396    18A     -0.928871
      19A     -0.862818    20A     -0.802089    21A     -0.790209
      22A     -0.765932    23A     -0.703292    24A     -0.685439
      25A     -0.675855    26A     -0.644893    27A     -0.627946
      28A     -0.608682    29A     -0.598689    30A     -0.580765
      31A     -0.564398    32A     -0.554810    33A     -0.533351
      34A     -0.530899    35A     -0.520385    36A     -0.509037
      37A     -0.498118    38A     -0.476867    39A     -0.473266
      40A     -0.462744    41A     -0.459270    42A     -0.451430
      43A     -0.444258    44A     -0.437715

  @DF-RHF Final Energy:  -501.22016180208277

   => Energetics <=

    Nuclear Repulsion Energy =            610.5482623819424361
    One-Electron Energy =               -1892.5816510298373032
    Two-Electron Energy =                 780.8132268458125509
    DFT Exchange-Correlation Energy =       0.0000000000000000
    Empirical Dispersion Energy =           0.0000000000000000
    PCM Polarization Energy =               0.0000000000000000
    EFP Energy =                            0.0000000000000000
    Total Energy =                       -501.2201618020822025
    Molecular point group: c1
  Basis Set: CC-PVTZ
  Basis Set:

  -Total Gradient:
     Atom            X                  Y                   Z
    ------   -----------------  -----------------  -----------------
       1       -0.000030141211     0.000014311308    -0.000132236898
       2        0.000068876069     0.000115793583     0.000296927826
       3       -0.000007121376    -0.000033738353    -0.000083360955
       4       -0.000030655814    -0.000080857503    -0.000058266175
       5        0.000011205332     0.000017837813    -0.000035349197
       6       -0.000009342232     0.000005744608     0.000007297283
       7        0.000021380520    -0.000001259623    -0.000001041415
       8       -0.000005611024    -0.000043696808     0.000006927796
       9        0.000005900146    -0.000001241560    -0.000006112625
      10        0.000023033081     0.000002139277    -0.000006988486
      11        0.000214312882     0.004002112845     0.000360644064
      12       -0.000020076950    -0.000014628959     0.000006064287
      13        0.000003974046    -0.000020885558     0.000001688997
      14       -0.000088208309    -0.003289102410    -0.000030986284
      15       -0.000168396109    -0.002601359183    -0.000334725030
      16        0.000033370240    -0.000029274642     0.000034905971
      17        0.000089008918     0.001965235629    -0.000048025273
      18       -0.000038209836     0.000011547509    -0.000004940737
      19       -0.000008166783    -0.000030846608     0.000016799361
      20       -0.000073616729     0.000000617690    -0.000002958254
      21        0.000034242020     0.000055062564    -0.000044471251
      22        0.000056945870    -0.000035826791    -0.000005278841
      23       -0.000021375867    -0.000001407877    -0.000013847115
      24       -0.000034915961     0.000051099443     0.000027805898
      25       -0.000033495972    -0.000056499008     0.000057330464
      26        0.000000303316     0.000010745438    -0.000009537668
      27        0.000008253889    -0.000002153969    -0.000002329549
      28       -0.000002900441    -0.000007721045     0.000003522008
      29        0.000001428291    -0.000001747813     0.000000541799

  **** Optimization is complete! (in 6 steps) ****
    Final optimized geometry and variables:
    Molecular point group: c1

    Geometry (in Angstrom), charge = 0, multiplicity = 1:

    O            3.249199332853     0.771771328816    -0.518152126143
    C            2.724188138900    -0.129863635851     0.040832941025
    C            1.270621222379    -0.190626399036     0.435670672210
    O            3.364461873367    -1.231428537849     0.398302810383
    C            0.483253407671     1.053409800000     0.043230752337
    H            0.861516788253    -1.088859244783    -0.010714237834
    H            1.237850128037    -0.350919763615     1.508763528322
    C           -0.969364104715     1.043095894597     0.520681743348
    H            0.514657133678     1.172387975501    -1.034295292015
    H            0.984495056020     1.921477007434     0.453508306203
    C           -1.864573819390     0.000926466240    -0.147246143800
    H           -1.391907518784     2.026501100100     0.337121571856
    H           -0.996142762227     0.901624556306     1.599104593218
    C           -3.330148655370     0.055639725744     0.324600998135
    H           -1.822864303641     0.126643319764    -1.225714369626
    H           -1.471747782179    -0.993322862671     0.038405685610
    C           -4.343398479282     0.023644692177    -0.817199996794
    H           -3.492238276785     0.965273632117     0.896691005791
    H           -3.530870424456    -0.763700953646     1.007929862570
    C           -5.790363470813     0.059833620410    -0.337607978797
    H           -4.159017860348     0.867575851034    -1.476414637341
    H           -4.184263341071    -0.869497608333    -1.416102968303
    H           -6.481740601968     0.042748319813    -1.172353776537
    H           -5.989461469952     0.957812453755     0.238199071608
    H           -6.014711916021    -0.792788355670     0.294985610955
    C            4.741056593107    -1.311132073443     0.089094354360
    H            4.896767224321    -1.246994355838    -0.977626366490
    H            5.073788532551    -2.268238899361     0.456761574723
    H            5.287504132013    -0.515403843108     0.573325729312

  Mulliken Charges: (a.u.)
   Center  Symbol    Alpha    Beta     Spin     Total
       1     O     4.19699  4.19699  0.00000 -0.39398
       2     C     2.80484  2.80484  0.00000  0.39032
       3     C     3.10168  3.10168  0.00000 -0.20336
       4     O     4.14724  4.14724  0.00000 -0.29447
       5     C     3.09280  3.09280  0.00000 -0.18561
       6     H     0.43910  0.43910  0.00000  0.12180
       7     H     0.43994  0.43994  0.00000  0.12012
       8     C     3.10332  3.10332  0.00000 -0.20664
       9     H     0.44602  0.44602  0.00000  0.10796
      10     H     0.43957  0.43957  0.00000  0.12086
      11     C     3.09940  3.09940  0.00000 -0.19881
      12     H     0.44508  0.44508  0.00000  0.10984
      13     H     0.45238  0.45238  0.00000  0.09525
      14     C     3.09012  3.09012  0.00000 -0.18025
      15     H     0.45215  0.45215  0.00000  0.09570
      16     H     0.45071  0.45071  0.00000  0.09858
      17     C     3.08283  3.08283  0.00000 -0.16566
      18     H     0.45521  0.45521  0.00000  0.08958
      19     H     0.45138  0.45138  0.00000  0.09724
      20     C     3.15065  3.15065  0.00000 -0.30131
      21     H     0.45411  0.45411  0.00000  0.09178
      22     H     0.45391  0.45391  0.00000  0.09217
      23     H     0.44843  0.44843  0.00000  0.10314
      24     H     0.45493  0.45493  0.00000  0.09013
      25     H     0.45525  0.45525  0.00000  0.08950
      26     C     3.03809  3.03809  0.00000 -0.07618
      27     H     0.45434  0.45434  0.00000  0.09132
      28     H     0.44528  0.44528  0.00000  0.10945
      29     H     0.45424  0.45424  0.00000  0.09153

   Total alpha = 44.00000, Total beta = 44.00000, Total charge =  0.00000

*** Psi4 exiting successfully. Buy a developer a beer!
