  ==> Input File <==

--------------------------------------------------------------------------
set {
	reference rhf
	basis cc-pvtz
}

set_num_threads( 4 )
memory 2 gb

molecule MOL {
0 1

H	 -2.618062	 0.292963	 0.758926
O	 -2.041679	 -0.058866	 0.103463
C	 -0.959304	 0.780994	 -0.094939
C	 0.354905	 0.037902	 -0.006215
H	 -0.985899	 1.279578	 -1.057596
H	 -0.969809	 1.529522	 0.682889
F	 0.412060	 -0.931028	 -0.902708
F	 1.359641	 0.856111	 -0.239961
F	 0.545380	 -0.506387	 1.171682

	symmetry c1
}
set optking {
	frozen_dihedral = ("
		1 2 3 5
	")
}

ee = optimize('scf')
oeprop('DIPOLE', 'QUADRUPOLE', 'MULLIKEN_CHARGES')
f=open( 'psi4out.xyz', 'w' )
f.write( "9  " )
f.write( str(ee) + "\n" )
f.write( MOL.save_string_xyz() )
f.close()
--------------------------------------------------------------------------

    Molecular point group: c1
  Charge       = 0
  Multiplicity = 1
  Basis Set: CC-PVTZ
  Basis Set:
  @DF-RHF Final Energy:  -450.84318156307290
    Total Energy =                       -450.8431815630729034
    Molecular point group: c1
  Basis Set: CC-PVTZ
  Basis Set:
  Basis Set: CC-PVTZ
  Basis Set:
  @DF-RHF Final Energy:  -450.84432173409988
    Total Energy =                       -450.8443217340997649
  Basis Set: CC-PVTZ
  Basis Set:
  Basis Set: CC-PVTZ
  Basis Set:
  @DF-RHF Final Energy:  -450.84452958968097
    Total Energy =                       -450.8445295896809739
  Basis Set: CC-PVTZ
  Basis Set:
  Basis Set: CC-PVTZ
  Basis Set:
  @DF-RHF Final Energy:  -450.84453925844844
    Total Energy =                       -450.8445392584485489
  Basis Set: CC-PVTZ
  Basis Set:
  Basis Set: CC-PVTZ
  Basis Set:
  @DF-RHF Final Energy:  -450.84454072878771
    Total Energy =                       -450.8445407287880471
  Basis Set: CC-PVTZ
  Basis Set:
  Charge       = 0
  Multiplicity = 1
  Basis Set: CC-PVTZ
  Basis Set:

    Orbital Energies (a.u.)
    -----------------------

    Doubly Occupied:

       1A    -26.333908     2A    -26.331215     3A    -26.330267
       4A    -20.582442     5A    -11.489644     6A    -11.310275
       7A     -1.742022     8A     -1.638396     9A     -1.637020
      10A     -1.405839    11A     -1.050322    12A     -0.924337
      13A     -0.833031    14A     -0.831525    15A     -0.792060
      16A     -0.742130    17A     -0.713475    18A     -0.703857
      19A     -0.670177    20A     -0.658292    21A     -0.642837
      22A     -0.639326    23A     -0.600952    24A     -0.534392
      25A     -0.483028

  @DF-RHF Final Energy:  -450.84454085465717

   => Energetics <=

    Nuclear Repulsion Energy =            277.5729368008888400
    One-Electron Energy =               -1177.5934218479246738
    Two-Electron Energy =                 449.1759441923786653
    DFT Exchange-Correlation Energy =       0.0000000000000000
    Empirical Dispersion Energy =           0.0000000000000000
    PCM Polarization Energy =               0.0000000000000000
    EFP Energy =                            0.0000000000000000
    Total Energy =                       -450.8445408546572253
    Molecular point group: c1
  Basis Set: CC-PVTZ
  Basis Set:

  -Total Gradient:
     Atom            X                  Y                   Z
    ------   -----------------  -----------------  -----------------
       1       -0.000342984641     0.000304142501    -0.000480692767
       2        0.000329504547    -0.000266271980     0.000683424563
       3        0.000320425865    -0.000475195776    -0.000437370728
       4        0.000004729573    -0.000022445243    -0.000002741936
       5       -0.000302151654     0.000441942033     0.000225624076
       6        0.000001600475    -0.000013852100     0.000000076181
       7       -0.000014992496     0.000007184996     0.000004299928
       8        0.000002470062     0.000006232275     0.000015767631
       9        0.000001398265     0.000018263300    -0.000008386944

  **** Optimization is complete! (in 6 steps) ****
    Final optimized geometry and variables:
    Molecular point group: c1

    Geometry (in Angstrom), charge = 0, multiplicity = 1:

    H           -2.611129877678     0.251157107027     0.726742070186
    O           -2.011043515464    -0.083581935377     0.088176815798
    C           -0.948711112556     0.789639389464    -0.100015084819
    C            0.352088982227     0.024753053122    -0.026096292175
    H           -0.999518090867     1.261139239888    -1.073725199049
    H           -0.903807565712     1.563979571138     0.655417069516
    F            0.414096999576    -0.932437394876    -0.921259708179
    F            1.361890972113     0.845469131896    -0.245911523325
    F            0.533454335978    -0.520249676901     1.156228650706

  Mulliken Charges: (a.u.)
   Center  Symbol    Alpha    Beta     Spin     Total
       1     H     0.38619  0.38619  0.00000  0.22762
       2     O     4.19058  4.19058  0.00000 -0.38115
       3     C     2.98902  2.98902  0.00000  0.02196
       4     C     2.67673  2.67673  0.00000  0.64654
       5     H     0.46003  0.46003  0.00000  0.07995
       6     H     0.46344  0.46344  0.00000  0.07312
       7     F     4.60797  4.60797  0.00000 -0.21594
       8     F     4.61462  4.61462  0.00000 -0.22924
       9     F     4.61143  4.61143  0.00000 -0.22285

   Total alpha = 25.00000, Total beta = 25.00000, Total charge = -0.00000
