                              Psi4 1.0.54 Driver

  ==> Input File <==

--------------------------------------------------------------------------
set {
	reference rhf
	basis cc-pvtz
}

set_num_threads( 4 )
memory 2 gb

molecule MOL {
0 1

H	 3.889604	 0.356866	 -0.089510
N	 3.091268	 -0.241216	 -0.065538
C	 1.860978	 0.530248	 0.016256
H	 3.192566	 -0.835836	 0.730398
C	 0.644130	 -0.381765	 -0.031064
H	 1.835721	 1.204666	 -0.833114
H	 1.808789	 1.151975	 0.911067
C	 -0.678115	 0.376691	 0.025731
H	 0.693998	 -0.977147	 -0.936845
H	 0.693309	 -1.082142	 0.800523
C	 -0.901090	 1.293360	 -1.173937
H	 -0.714268	 0.968401	 0.937612
H	 -1.501001	 -0.331470	 0.090836
C	 -2.221000	 2.054580	 -1.110244
H	 -0.079776	 2.001338	 -1.241051
H	 -0.869228	 0.703932	 -2.086258
H	 -2.269237	 2.681017	 -0.225659
H	 -2.347585	 2.695081	 -1.975541
H	 -3.064851	 1.373291	 -1.077105

	symmetry c1
}
set optking {
	frozen_dihedral = ("
		12 8 5 9
	")
}

ee,wfn = optimize('scf', return_wfn=True)
oeprop( wfn, 'DIPOLE', 'QUADRUPOLE', 'MULLIKEN_CHARGES')
f=open( 'psi4out.xyz', 'w' )
f.write( "19  " )
f.write( str(ee) + "\n" )
f.write( MOL.save_string_xyz() )
f.close()
--------------------------------------------------------------------------

    Molecular point group: c1
  Charge       = 0
  Multiplicity = 1
  Basis Set: CC-PVTZ
  Basis Set:
  @DF-RHF Final Energy:  -251.44568165272656
    Total Energy =                       -251.4456816527266483
    Molecular point group: c1
  Basis Set: CC-PVTZ
  Basis Set:
  Basis Set: CC-PVTZ
  Basis Set:
  @DF-RHF Final Energy:  -251.44588351563573
    Total Energy =                       -251.4458835156358418
  Basis Set: CC-PVTZ
  Basis Set:
  Basis Set: CC-PVTZ
  Basis Set:
  @DF-RHF Final Energy:  -251.44641079629918
    Total Energy =                       -251.4464107962991761
  Basis Set: CC-PVTZ
  Basis Set:
  Basis Set: CC-PVTZ
  Basis Set:
  @DF-RHF Final Energy:  -251.44644180504147
    Total Energy =                       -251.4464418050415020
  Basis Set: CC-PVTZ
  Basis Set:
  Basis Set: CC-PVTZ
  Basis Set:
  @DF-RHF Final Energy:  -251.44644368215739
    Total Energy =                       -251.4464436821574509
  Basis Set: CC-PVTZ
  Basis Set:
  Charge       = 0
  Multiplicity = 1
  Basis Set: CC-PVTZ
  Basis Set:

    Orbital Energies (a.u.)
    -----------------------

    Doubly Occupied:

       1A    -15.526343     2A    -11.237522     3A    -11.211695
       4A    -11.210697     5A    -11.208055     6A    -11.205588
       7A     -1.178203     8A     -1.073575     9A     -0.997738
      10A     -0.899994    11A     -0.829327    12A     -0.776082
      13A     -0.665297    14A     -0.637562    15A     -0.616654
      16A     -0.594866    17A     -0.570918    18A     -0.549485
      19A     -0.526994    20A     -0.500273    21A     -0.489790
      22A     -0.462549    23A     -0.456807    24A     -0.447754
      25A     -0.383886

  @DF-RHF Final Energy:  -251.44644414658381

   => Energetics <=

    Nuclear Repulsion Energy =            249.2230607896362358
    One-Electron Energy =                -832.8237017077201472
    Two-Electron Energy =                 332.1541967715000965
    DFT Exchange-Correlation Energy =       0.0000000000000000
    Empirical Dispersion Energy =           0.0000000000000000
    PCM Polarization Energy =               0.0000000000000000
    EFP Energy =                            0.0000000000000000
    Total Energy =                       -251.4464441465837581
    Molecular point group: c1
  Basis Set: CC-PVTZ
  Basis Set:

  -Total Gradient:
     Atom            X                  Y                   Z
    ------   -----------------  -----------------  -----------------
       1       -0.000011729303     0.000004804153     0.000002630983
       2       -0.000007571298    -0.000004549342    -0.000001465092
       3       -0.000014496987     0.000004354719     0.000005536060
       4       -0.000007562413     0.000008223108    -0.000004284651
       5        0.000022834346     0.000018123676    -0.000026222369
       6        0.000002942867    -0.000003917765    -0.000003303598
       7        0.000007984063    -0.000001663190     0.000000473973
       8        0.000024948289     0.000044550586     0.000007496267
       9       -0.000009149282    -0.000025688507     0.000009109063
      10       -0.000007354855     0.000002447087     0.000000200640
      11       -0.000010542986    -0.000032628017    -0.000014622492
      12       -0.000018085696    -0.000023513659     0.000029346864
      13        0.000011287851     0.000001966478    -0.000003448756
      14        0.000009347380     0.000006550970     0.000006271176
      15       -0.000006883279    -0.000003817630     0.000003211119
      16        0.000000446309     0.000005247145    -0.000011309793
      17       -0.000001848884    -0.000001714939     0.000002627896
      18        0.000004061711     0.000001550971     0.000001059843
      19        0.000011372164    -0.000000325845    -0.000003307135

  **** Optimization is complete! (in 6 steps) ****
    Final optimized geometry and variables:
    Molecular point group: c1

    Geometry (in Angstrom), charge = 0, multiplicity = 1:

    H            3.605033598564    -0.386625089610     0.309611814042
    N            2.774485583868    -0.938951230504     0.334803854131
    C            1.586728318200    -0.100038078900     0.361784732343
    H            2.825526699144    -1.512124427099     1.150938111607
    C            0.328311940697    -0.956705675517     0.310945145394
    H            1.627975937225     0.550441362337    -0.503230418374
    H            1.542895409192     0.546444179902     1.240006780064
    C           -0.981901238207    -0.174485738105     0.404685862251
    H            0.346403390532    -1.546478585854    -0.599955801639
    H            0.365749018215    -1.666464059387     1.134058828470
    C           -1.271271171218     0.742542796165    -0.782712415851
    H           -0.989154571707     0.412495733151     1.320565872571
    H           -1.797905304485    -0.885560837912     0.498226898463
    C           -2.634678812161     1.419668821116    -0.686139234453
    H           -0.503566339847     1.505353605505    -0.860064729989
    H           -1.220459179931     0.163891094559    -1.701198963219
    H           -2.707241311485     2.026975300346     0.210174908616
    H           -2.814078989692     2.065756395807    -1.537881558927
    H           -3.434102030694     0.686967942668    -0.652373437392

  Mulliken Charges: (a.u.)
   Center  Symbol    Alpha    Beta     Spin     Total
       1     H     0.43002  0.43002  0.00000  0.13996
       2     N     3.68963  3.68963  0.00000 -0.37926
       3     C     3.02612  3.02612  0.00000 -0.05224
       4     H     0.43093  0.43093  0.00000  0.13814
       5     C     3.08959  3.08959  0.00000 -0.17918
       6     H     0.45538  0.45538  0.00000  0.08924
       7     H     0.46821  0.46821  0.00000  0.06359
       8     C     3.10141  3.10141  0.00000 -0.20281
       9     H     0.44921  0.44921  0.00000  0.10158
      10     H     0.45446  0.45446  0.00000  0.09109
      11     C     3.08531  3.08531  0.00000 -0.17062
      12     H     0.45549  0.45549  0.00000  0.08903
      13     H     0.44882  0.44882  0.00000  0.10236
      14     C     3.14939  3.14939  0.00000 -0.29877
      15     H     0.45424  0.45424  0.00000  0.09153
      16     H     0.45309  0.45309  0.00000  0.09381
      17     H     0.45552  0.45552  0.00000  0.08897
      18     H     0.44853  0.44853  0.00000  0.10295
      19     H     0.45468  0.45468  0.00000  0.09064

   Total alpha = 25.00000, Total beta = 25.00000, Total charge =  0.00000

*** Psi4 exiting successfully. Buy a developer a beer!
