  ==> Input File <==

--------------------------------------------------------------------------
set {
	reference rhf
	basis 6-31G*
}

set_num_threads( 4 )
memory 2 gb

molecule MOL {
0 1

O	 1.507392	 1.886737	 0.451817
C	 0.698130	 1.867817	 1.322366
C	 -0.605121	 1.107168	 1.293758
O	 0.844003	 2.528621	 2.463941
C	 -0.823008	 0.326187	 0.001381
H	 -0.615863	 0.448886	 2.158203
H	 -1.403767	 1.825119	 1.459378
C	 -2.149452	 -0.435131	 -0.000098
H	 0.000292	 -0.366742	 -0.140796
H	 -0.789563	 1.010936	 -0.840230
C	 -3.368779	 0.488503	 -0.000883
H	 -2.193746	 -1.087250	 -0.871175
H	 -2.195311	 -1.087803	 0.870418
C	 -4.693822	 -0.272754	 -0.001129
H	 -3.325798	 1.139422	 -0.871284
H	 -3.326423	 1.139959	 0.869145
H	 -4.781274	 -0.907928	 -0.878124
H	 -5.538651	 0.408946	 -0.001420
H	 -4.781694	 -0.907783	 0.875984
C	 2.030517	 3.285138	 2.621489
H	 2.899411	 2.645253	 2.565820
H	 1.963028	 3.740126	 3.597351
H	 2.100375	 4.046065	 1.857541

	symmetry c1
}
set optking {
	frozen_dihedral = ("
		9 5 8 12
	")
}

ee = optimize('scf')
oeprop('DIPOLE', 'QUADRUPOLE', 'MULLIKEN_CHARGES')
f=open( 'psi4out.xyz', 'w' )
f.write( "23  " )
f.write( str(ee) + "\n" )
f.write( MOL.save_string_xyz() )
f.close()
--------------------------------------------------------------------------

    Molecular point group: c1
  Charge       = 0
  Multiplicity = 1
  Basis Set: 6-31G*
  Basis Set:
  @DF-RHF Final Energy:  -422.97402697818131
    Total Energy =                       -422.9740269781804045
    Molecular point group: c1
  Basis Set: 6-31G*
  Basis Set:
  Basis Set: 6-31G*
  Basis Set:
  @DF-RHF Final Energy:  -422.97438842787869
    Total Energy =                       -422.9743884278782389
  Basis Set: 6-31G*
  Basis Set:
  Basis Set: 6-31G*
  Basis Set:
  @DF-RHF Final Energy:  -422.97422053134358
    Total Energy =                       -422.9742205313438035
  Basis Set: 6-31G*
  Basis Set:
  Basis Set: 6-31G*
  Basis Set:
  @DF-RHF Final Energy:  -422.97471126526494
    Total Energy =                       -422.9747112652654550
  Basis Set: 6-31G*
  Basis Set:
  Basis Set: 6-31G*
  Basis Set:
  @DF-RHF Final Energy:  -422.97471888428197
    Total Energy =                       -422.9747188842820833
  Basis Set: 6-31G*
  Basis Set:
  Charge       = 0
  Multiplicity = 1
  Basis Set: 6-31G*
  Basis Set:

    Orbital Energies (a.u.)
    -----------------------

    Doubly Occupied:

       1A    -20.603548     2A    -20.545385     3A    -11.372215
       4A    -11.280795     5A    -11.235067     6A    -11.219403
       7A    -11.218616     8A    -11.217828     9A    -11.210981
      10A     -1.469258    11A     -1.362704    12A     -1.093545
      13A     -1.042208    14A     -0.987167    15A     -0.933046
      16A     -0.850074    17A     -0.792544    18A     -0.764026
      19A     -0.701146    20A     -0.682423    21A     -0.672223
      22A     -0.637451    23A     -0.621077    24A     -0.599676
      25A     -0.576471    26A     -0.557089    27A     -0.555970
      28A     -0.527904    29A     -0.520575    30A     -0.507777
      31A     -0.491371    32A     -0.467797    33A     -0.465218
      34A     -0.458128    35A     -0.452734    36A     -0.437369

  @DF-RHF Final Energy:  -422.97471973616081

   => Energetics <=

    Nuclear Repulsion Energy =            457.1508048135166860
    One-Electron Energy =               -1481.9894294452847134
    Two-Electron Energy =                 601.8639048956081297
    DFT Exchange-Correlation Energy =       0.0000000000000000
    Empirical Dispersion Energy =           0.0000000000000000
    PCM Polarization Energy =               0.0000000000000000
    EFP Energy =                            0.0000000000000000
    Total Energy =                       -422.9747197361598410
    Molecular point group: c1
  Basis Set: 6-31G*
  Basis Set:

  -Total Gradient:
     Atom            X                  Y                   Z
    ------   -----------------  -----------------  -----------------
       1        0.000007907196     0.000008468948    -0.000008168418
       2       -0.000004605436     0.000008450993    -0.000013741576
       3       -0.000023519862    -0.000020359401     0.000015026520
       4        0.000001600988    -0.000019355075     0.000000590718
       5        0.000027878281    -0.000089571509     0.000239465302
       6       -0.000020515431     0.000000447316    -0.000009702734
       7       -0.000017288472     0.000028782678     0.000002142215
       8       -0.000102645361     0.000168075218    -0.000170627086
       9       -0.000033192780     0.000001100679    -0.000179133618
      10       -0.000010776744    -0.000000435702     0.000006688829
      11        0.000025622324     0.000019493350    -0.000003528932
      12        0.000090395908    -0.000107318983     0.000092308363
      13        0.000010782136     0.000010455855     0.000009571737
      14        0.000027563315    -0.000032079457     0.000005491884
      15        0.000025781030     0.000001066037    -0.000002468967
      16       -0.000002403357     0.000020195061     0.000023513046
      17       -0.000012985075    -0.000001225198    -0.000006768098
      18        0.000011350346     0.000006608735     0.000009229065
      19        0.000000585322    -0.000007485997    -0.000005640062
      20       -0.000001106598     0.000008305665    -0.000005572540
      21       -0.000001035879    -0.000001866350     0.000000069430
      22       -0.000000353558    -0.000001401036     0.000000512919
      23        0.000000961691    -0.000000351828     0.000000741999

  **** Optimization is complete! (in 6 steps) ****
    Final optimized geometry and variables:
    Molecular point group: c1

    Geometry (in Angstrom), charge = 0, multiplicity = 1:

    O            2.241227176035     0.606847139804    -0.456500185558
    C            1.424142927217     0.653082516013     0.405642836781
    C            0.081315708542    -0.036211041677     0.383355740340
    O            1.593531145078     1.337098927706     1.530316896832
    C           -0.161358094715    -0.835402285969    -0.895079094931
    H            0.031527466531    -0.676380069584     1.260401110204
    H           -0.672015861221     0.730317020050     0.532923528260
    C           -1.477446190754    -1.620087051654    -0.891029072465
    H            0.663681251640    -1.525471692127    -1.034739816404
    H           -0.136577241313    -0.163757279389    -1.747956159247
    C           -2.743039787381    -0.758367807563    -0.906831860978
    H           -1.487679047452    -2.267842015917    -1.764659711011
    H           -1.503216382901    -2.281707828360    -0.026184940518
    C           -4.020334901466    -1.592417154304    -1.003627565284
    H           -2.696732039389    -0.069951541734    -1.748254262118
    H           -2.790220776203    -0.144362672907    -0.011169181537
    H           -4.032251004799    -2.187060894665    -1.912569669270
    H           -4.903083016320    -0.960646567568    -1.009798870214
    H           -4.107683365500    -2.274368765160    -0.162435773640
    C            2.817019013261     2.033872197891     1.680549388462
    H            3.651163792671     1.347619439241     1.652552240247
    H            2.764115782603     2.519019188863     2.642741605045
    H            2.934877830980     2.768292802242     0.896811945723

  Mulliken Charges: (a.u.)
   Center  Symbol    Alpha    Beta     Spin     Total
       1     O     4.28592  4.28592  0.00000 -0.57184
       2     C     2.60489  2.60489  0.00000  0.79021
       3     C     3.20954  3.20954  0.00000 -0.41909
       4     O     4.30743  4.30743  0.00000 -0.61487
       5     C     3.15403  3.15403  0.00000 -0.30806
       6     H     0.40117  0.40117  0.00000  0.19766
       7     H     0.39893  0.39893  0.00000  0.20214
       8     C     3.15542  3.15542  0.00000 -0.31083
       9     H     0.40880  0.40880  0.00000  0.18240
      10     H     0.41293  0.41293  0.00000  0.17415
      11     C     3.15453  3.15453  0.00000 -0.30907
      12     H     0.41843  0.41843  0.00000  0.16314
      13     H     0.42418  0.42418  0.00000  0.15165
      14     C     3.23915  3.23915  0.00000 -0.47829
      15     H     0.42168  0.42168  0.00000  0.15663
      16     H     0.42282  0.42282  0.00000  0.15436
      17     H     0.42084  0.42084  0.00000  0.15832
      18     H     0.41870  0.41870  0.00000  0.16259
      19     H     0.42153  0.42153  0.00000  0.15695
      20     C     3.09243  3.09243  0.00000 -0.18485
      21     H     0.40909  0.40909  0.00000  0.18182
      22     H     0.40848  0.40848  0.00000  0.18304
      23     H     0.40907  0.40907  0.00000  0.18186

   Total alpha = 36.00000, Total beta = 36.00000, Total charge = -0.00000
