  ==> Input File <==

--------------------------------------------------------------------------
set {
	reference rhf
	basis 6-31G*
}

set_num_threads( 1 )
memory 2 gb

molecule MOL {
0 1

O	 -2.052363	 -2.015538	 0.649843
C	 -1.421264	 -1.843794	 -0.348482
C	 -0.889235	 -0.467034	 -0.705952
C	 -1.092736	 -2.984117	 -1.286089
C	 0.379448	 -0.143569	 0.099626
H	 -1.662292	 0.255915	 -0.469244
H	 -0.680017	 -0.402496	 -1.769948
C	 1.631333	 -0.777471	 -0.511575
H	 0.482768	 0.934507	 0.149241
H	 0.263088	 -0.495696	 1.123449
C	 2.915987	 -0.544314	 0.291766
H	 1.766672	 -0.399098	 -1.523130
H	 1.471257	 -1.849544	 -0.605828
C	 3.373361	 0.914346	 0.347591
H	 3.708709	 -1.142521	 -0.150311
H	 2.780642	 -0.921148	 1.303579
H	 3.506512	 1.320010	 -0.651625
H	 4.322697	 0.999599	 0.867103
H	 2.660624	 1.545032	 0.868198
H	 -1.599339	 -2.833639	 -2.235812
H	 -1.411570	 -3.922391	 -0.853918
H	 -0.027017	 -3.016467	 -1.493454

	symmetry c1
}
set optking {
	frozen_dihedral = ("
		6 3 2 1,
		3 5 8 12,
		12 8 11 15
	")
}

ee = energy('scf')
oeprop('DIPOLE', 'QUADRUPOLE', 'MULLIKEN_CHARGES')
f=open( 'psi4out.xyz', 'w' )
f.write( "22  " )
f.write( str(ee) + "\n" )
f.write( MOL.save_string_xyz() )
f.close()
--------------------------------------------------------------------------

    Molecular point group: c1

    Geometry (in Angstrom), charge = 0, multiplicity = 1:

       Center              X                  Y                   Z               Mass
    ------------   -----------------  -----------------  -----------------  -----------------
           O         -2.417291983409    -1.030515918871     0.829042632228    15.994914619560
           C         -1.786192983409    -0.858771918871    -0.169282367772    12.000000000000
           C         -1.254163983409     0.517988081129    -0.526752367772    12.000000000000
           C         -1.457664983409    -1.999094918871    -1.106889367772    12.000000000000
           C          0.014519016591     0.841453081129     0.278825632228    12.000000000000
           H         -2.027220983409     1.240937081129    -0.290044367772     1.007825032070
           H         -1.044945983409     0.582526081129    -1.590748367772     1.007825032070
           C          1.266404016591     0.207551081129    -0.332375367772    12.000000000000
           H          0.117839016591     1.919529081129     0.328440632228     1.007825032070
           H         -0.101840983409     0.489326081129     1.302648632228     1.007825032070
           C          2.551058016591     0.440708081129     0.470965632228    12.000000000000
           H          1.401743016591     0.585924081129    -1.343930367772     1.007825032070
           H          1.106328016591    -0.864521918871    -0.426628367772     1.007825032070
           C          3.008432016591     1.899368081129     0.526790632228    12.000000000000
           H          3.343780016591    -0.157498918871     0.028888632228     1.007825032070
           H          2.415713016591     0.063874081129     1.482778632228     1.007825032070
           H          3.141583016591     2.305032081129    -0.472425367772     1.007825032070
           H          3.957768016591     1.984621081129     1.046302632228     1.007825032070
           H          2.295695016591     2.530054081129     1.047397632228     1.007825032070
           H         -1.964267983409    -1.848616918871    -2.056612367772     1.007825032070
           H         -1.776498983409    -2.937368918871    -0.674718367772     1.007825032070
           H         -0.391945983409    -2.031444918871    -1.314254367772     1.007825032070

  Charge       = 0
  Multiplicity = 1
  Basis Set: 6-31G*
  Basis Set:

    Orbital Energies (a.u.)
    -----------------------

    Doubly Occupied:

       1A    -20.547141     2A    -11.324161     3A    -11.228985
       4A    -11.228375     5A    -11.227251     6A    -11.224303
       7A    -11.221825     8A    -11.213425     9A     -1.392963
      10A     -1.098026    11A     -1.043825    12A     -0.998907
      13A     -0.940258    14A     -0.858846    15A     -0.789519
      16A     -0.732785    17A     -0.663572    18A     -0.642485
      19A     -0.628062    20A     -0.616714    21A     -0.593667
      22A     -0.587188    23A     -0.563828    24A     -0.553286
      25A     -0.533066    26A     -0.518052    27A     -0.501011
      28A     -0.493671    29A     -0.471207    30A     -0.463662
      31A     -0.451647    32A     -0.397551

  @DF-RHF Final Energy:  -348.09421838926744

   => Energetics <=

    Nuclear Repulsion Energy =            379.6990029835279756
    One-Electron Energy =               -1224.0871900188103609
    Two-Electron Energy =                 496.2939686460155144
    DFT Exchange-Correlation Energy =       0.0000000000000000
    Empirical Dispersion Energy =           0.0000000000000000
    PCM Polarization Energy =               0.0000000000000000
    EFP Energy =                            0.0000000000000000
    Total Energy =                       -348.0942183892668709

  Mulliken Charges: (a.u.)
   Center  Symbol    Alpha    Beta     Spin     Total
       1     O     4.26280  4.26280  0.00000 -0.52561
       2     C     2.73805  2.73805  0.00000  0.52391
       3     C     3.20138  3.20138  0.00000 -0.40276
       4     C     3.29079  3.29079  0.00000 -0.58158
       5     C     3.16531  3.16531  0.00000 -0.33062
       6     H     0.39902  0.39902  0.00000  0.20195
       7     H     0.41620  0.41620  0.00000  0.16759
       8     C     3.15756  3.15756  0.00000 -0.31513
       9     H     0.41202  0.41202  0.00000  0.17596
      10     H     0.40633  0.40633  0.00000  0.18735
      11     C     3.15258  3.15258  0.00000 -0.30516
      12     H     0.42289  0.42289  0.00000  0.15422
      13     H     0.42201  0.42201  0.00000  0.15599
      14     C     3.24212  3.24212  0.00000 -0.48423
      15     H     0.41988  0.41988  0.00000  0.16024
      16     H     0.42024  0.42024  0.00000  0.15952
      17     H     0.42206  0.42206  0.00000  0.15589
      18     H     0.41733  0.41733  0.00000  0.16534
      19     H     0.41920  0.41920  0.00000  0.16161
      20     H     0.40708  0.40708  0.00000  0.18583
      21     H     0.39758  0.39758  0.00000  0.20484
      22     H     0.40758  0.40758  0.00000  0.18484

   Total alpha = 32.00000, Total beta = 32.00000, Total charge = -0.00000
