                              Psi4 1.0.54 Driver

  ==> Input File <==

--------------------------------------------------------------------------
set {
	reference rhf
	basis cc-pvtz
}

set_num_threads( 4 )
memory 2 gb

molecule MOL {
0 1

O	 1.847685	 1.294399	 -0.000190
C	 1.704209	 0.119472	 -0.000093
C	 0.380337	 -0.600947	 -0.000234
O	 2.715427	 -0.733672	 0.000025
C	 -0.824290	 0.329213	 -0.000115
H	 0.371455	 -1.255476	 -0.865660
H	 0.371410	 -1.255787	 0.864952
C	 -1.875896	 -0.082693	 -1.026018
H	 -0.493413	 1.342371	 -0.198372
H	 -1.263220	 0.345231	 0.991033
C	 -3.092348	 0.838452	 -1.040374
H	 -1.428620	 -0.099183	 -2.017443
H	 -2.201128	 -1.100745	 -0.823458
C	 -4.143181	 0.427112	 -2.066025
H	 -2.768786	 1.855400	 -1.243554
H	 -3.540850	 0.854419	 -0.051056
H	 -3.733934	 0.434865	 -3.070859
H	 -4.991885	 1.101044	 -2.050101
H	 -4.512395	 -0.573877	 -1.868706
C	 4.020999	 -0.192556	 0.000019
H	 4.182809	 0.412891	 -0.879449
H	 4.692590	 -1.035653	 0.000152
H	 4.182726	 0.413087	 0.879368

	symmetry c1
}
set optking {
	frozen_dihedral = ("
		9 5 3 6
	")
}

ee,wfn = optimize('scf', return_wfn=True)
oeprop( wfn, 'DIPOLE', 'QUADRUPOLE', 'MULLIKEN_CHARGES')
f=open( 'psi4out.xyz', 'w' )
f.write( "23  " )
f.write( str(ee) + "\n" )
f.write( MOL.save_string_xyz() )
f.close()
--------------------------------------------------------------------------

    Molecular point group: c1
  Charge       = 0
  Multiplicity = 1
  Basis Set: CC-PVTZ
  Basis Set:
  @DF-RHF Final Energy:  -423.12669803250407
    Total Energy =                       -423.1266980325042368
    Molecular point group: c1
  Basis Set: CC-PVTZ
  Basis Set:
  Basis Set: CC-PVTZ
  Basis Set:
  @DF-RHF Final Energy:  -423.12696446101353
    Total Energy =                       -423.1269644610138130
  Basis Set: CC-PVTZ
  Basis Set:
  Basis Set: CC-PVTZ
  Basis Set:
  @DF-RHF Final Energy:  -423.12696223865811
    Total Energy =                       -423.1269622386578249
  Basis Set: CC-PVTZ
  Basis Set:
  Basis Set: CC-PVTZ
  Basis Set:
  @DF-RHF Final Energy:  -423.12703739777368
    Total Energy =                       -423.1270373977738473
  Basis Set: CC-PVTZ
  Basis Set:
  Basis Set: CC-PVTZ
  Basis Set:
  @DF-RHF Final Energy:  -423.12706024464933
    Total Energy =                       -423.1270602446495559
  Basis Set: CC-PVTZ
  Basis Set:
  Basis Set: CC-PVTZ
  Basis Set:
  @DF-RHF Final Energy:  -423.12706173810614
    Total Energy =                       -423.1270617381063630
  Basis Set: CC-PVTZ
  Basis Set:
  Charge       = 0
  Multiplicity = 1
  Basis Set: CC-PVTZ
  Basis Set:

    Orbital Energies (a.u.)
    -----------------------

    Doubly Occupied:

       1A    -20.596548     2A    -20.534944     3A    -11.365559
       4A    -11.278691     5A    -11.233624     6A    -11.215785
       7A    -11.215167     8A    -11.213751     9A    -11.207219
      10A     -1.472834    11A     -1.366344    12A     -1.092399
      13A     -1.043930    14A     -0.987812    15A     -0.932414
      16A     -0.844681    17A     -0.795686    18A     -0.769263
      19A     -0.702780    20A     -0.684713    21A     -0.676146
      22A     -0.647030    23A     -0.610821    24A     -0.601308
      25A     -0.572170    26A     -0.559235    27A     -0.557104
      28A     -0.528409    29A     -0.524870    30A     -0.502616
      31A     -0.485225    32A     -0.468842    33A     -0.464104
      34A     -0.461752    35A     -0.458306    36A     -0.440863

  @DF-RHF Final Energy:  -423.12706189333323

   => Energetics <=

    Nuclear Repulsion Energy =            453.8230241054667431
    One-Electron Energy =               -1475.6742758577570385
    Two-Electron Energy =                 598.7241898589566063
    DFT Exchange-Correlation Energy =       0.0000000000000000
    Empirical Dispersion Energy =           0.0000000000000000
    PCM Polarization Energy =               0.0000000000000000
    EFP Energy =                            0.0000000000000000
    Total Energy =                       -423.1270618933336891
    Molecular point group: c1
  Basis Set: CC-PVTZ
  Basis Set:

  -Total Gradient:
     Atom            X                  Y                   Z
    ------   -----------------  -----------------  -----------------
       1        0.000006900119     0.000027857186     0.000038173956
       2        0.000028775076    -0.000020521620    -0.000063754926
       3        0.001647728705     0.002116580363    -0.001039718410
       4        0.000000027409    -0.000015795653     0.000009055288
       5       -0.000648202449    -0.000839456648    -0.002536015584
       6       -0.001228867983    -0.001623451465     0.001247279895
       7        0.000005652853    -0.000000266005     0.000006107760
       8       -0.000030942258    -0.000008230141     0.000027891237
       9        0.000240370547     0.000362435431     0.002323246943
      10       -0.000013499817     0.000006390393    -0.000008366383
      11       -0.000002742513     0.000000279243    -0.000010317519
      12        0.000007226799    -0.000001764995     0.000000248436
      13       -0.000013884800    -0.000010646007     0.000002441056
      14        0.000010357807    -0.000000329230    -0.000003055468
      15        0.000004211876     0.000009500493     0.000001153767
      16        0.000000712488    -0.000006345786     0.000003817926
      17        0.000000635219     0.000000056113    -0.000007823912
      18       -0.000000102814     0.000005152677     0.000002334631
      19       -0.000001807958    -0.000005389234     0.000002119680
      20       -0.000006203242     0.000006453743     0.000005771676
      21       -0.000003411616     0.000002277064    -0.000004843278
      22       -0.000002110128    -0.000006643972     0.000001010951
      23       -0.000000823317     0.000001858054     0.000003242280

  **** Optimization is complete! (in 7 steps) ****
    Final optimized geometry and variables:
    Molecular point group: c1

    Geometry (in Angstrom), charge = 0, multiplicity = 1:

    O            1.772744402287     1.148351844983     0.449028301428
    C            1.604009472897    -0.023072380088     0.460422056646
    C            0.270743882794    -0.728291407224     0.427321868019
    O            2.597954407818    -0.895169357986     0.504384415709
    C           -0.952380938871     0.195609324372     0.411166321607
    H            0.281527246528    -1.388362272447    -0.433286841253
    H            0.253513084126    -1.393927815292     1.282808702899
    C           -2.014735439082    -0.232689554776    -0.597190854883
    H           -0.631071044481     1.208742370918     0.212152315154
    H           -1.392778766190     0.217310738246     1.402779178463
    C           -3.249318121160     0.663044501467    -0.584528056067
    H           -1.581072610229    -0.231486248123    -1.594587312529
    H           -2.314955639614    -1.259125130921    -0.397179417642
    C           -4.305199589317     0.242242422981    -1.601202098707
    H           -2.948496827807     1.688437462999    -0.779653139619
    H           -3.685446275752     0.658181440061     0.410657805643
    H           -3.909765995961     0.271377664591    -2.611101898409
    H           -5.167573500754     0.897847676596    -1.565439425527
    H           -4.650618746779    -0.768783544030    -1.411815220421
    C            3.913340911195    -0.379547766268     0.536532245620
    H            4.114292103123     0.208469033392    -0.346697025726
    H            4.567592898414    -1.235534612381     0.570330119989
    H            4.060139943607     0.236645194632     1.411144855945

  Mulliken Charges: (a.u.)
   Center  Symbol    Alpha    Beta     Spin     Total
       1     O     4.19588  4.19588  0.00000 -0.39177
       2     C     2.80046  2.80046  0.00000  0.39908
       3     C     3.11032  3.11032  0.00000 -0.22064
       4     O     4.14720  4.14720  0.00000 -0.29441
       5     C     3.09497  3.09497  0.00000 -0.18994
       6     H     0.43864  0.43864  0.00000  0.12271
       7     H     0.43536  0.43536  0.00000  0.12928
       8     C     3.09026  3.09026  0.00000 -0.18051
       9     H     0.43473  0.43473  0.00000  0.13054
      10     H     0.45265  0.45265  0.00000  0.09470
      11     C     3.08501  3.08501  0.00000 -0.17002
      12     H     0.45408  0.45408  0.00000  0.09184
      13     H     0.45461  0.45461  0.00000  0.09077
      14     C     3.14987  3.14987  0.00000 -0.29973
      15     H     0.45194  0.45194  0.00000  0.09612
      16     H     0.45442  0.45442  0.00000  0.09115
      17     H     0.45494  0.45494  0.00000  0.09013
      18     H     0.44801  0.44801  0.00000  0.10397
      19     H     0.45570  0.45570  0.00000  0.08859
      20     C     3.03666  3.03666  0.00000 -0.07332
      21     H     0.45445  0.45445  0.00000  0.09110
      22     H     0.44551  0.44551  0.00000  0.10898
      23     H     0.45432  0.45432  0.00000  0.09136

   Total alpha = 36.00000, Total beta = 36.00000, Total charge =  0.00000

*** Psi4 exiting successfully. Buy a developer a beer!
