  ==> Input File <==

--------------------------------------------------------------------------
set {
	reference rhf
	basis 6-31G*
}

set_num_threads( 1 )
memory 2 gb

molecule MOL {
0 1

H	 1.202242	 4.050276	 -1.950926
N	 0.434283	 3.411052	 -2.022875
C	 0.523157	 2.380321	 -0.998561
H	 0.482422	 3.002601	 -2.937031
C	 -0.697059	 1.466921	 -1.048856
H	 0.559793	 2.876845	 -0.033688
H	 1.431098	 1.776792	 -1.074687
C	 -0.679275	 0.379305	 0.025956
H	 -1.588393	 2.079516	 -0.948432
H	 -0.752364	 1.000856	 -2.032249
C	 -1.903357	 -0.536963	 -0.023547
H	 -0.621010	 0.844381	 1.008890
H	 0.221994	 -0.222713	 -0.079562
C	 -3.225172	 0.228290	 0.028445
H	 -1.867824	 -1.134999	 -0.931459
H	 -1.860449	 -1.239604	 0.805977
H	 -3.313397	 0.915643	 -0.808262
H	 -4.073500	 -0.448134	 -0.008893
H	 -3.306061	 0.809945	 0.942516

	symmetry c1
}
set optking {
	frozen_dihedral = ("
		6 3 5 9,
		12 8 5 9,
		1 2 3 6
	")
}

ee = energy('scf')
oeprop('DIPOLE', 'QUADRUPOLE', 'MULLIKEN_CHARGES')
f=open( 'psi4out.xyz', 'w' )
f.write( "19  " )
f.write( str(ee) + "\n" )
f.write( MOL.save_string_xyz() )
f.close()
--------------------------------------------------------------------------

    Molecular point group: c1

    Geometry (in Angstrom), charge = 0, multiplicity = 1:

       Center              X                  Y                   Z               Mass
    ------------   -----------------  -----------------  -----------------  -----------------
           H          2.112526491892     2.796578218497    -1.254798977493     1.007825032070
           N          1.344567491892     2.157354218497    -1.326747977493    14.003074004780
           C          1.433441491892     1.126623218497    -0.302433977493    12.000000000000
           H          1.392706491892     1.748903218497    -2.240903977493     1.007825032070
           C          0.213225491892     0.213223218497    -0.352728977493    12.000000000000
           H          1.470077491892     1.623147218497     0.662439022507     1.007825032070
           H          2.341382491892     0.523094218497    -0.378559977493     1.007825032070
           C          0.231009491892    -0.874392781503     0.722083022507    12.000000000000
           H         -0.678108508108     0.825818218497    -0.252304977493     1.007825032070
           H          0.157920491892    -0.252841781503    -1.336121977493     1.007825032070
           C         -0.993072508108    -1.790660781503     0.672580022507    12.000000000000
           H          0.289274491892    -0.409316781503     1.705017022507     1.007825032070
           H          1.132278491892    -1.476410781503     0.616565022507     1.007825032070
           C         -2.314887508108    -1.025407781503     0.724572022507    12.000000000000
           H         -0.957539508108    -2.388696781503    -0.235331977493     1.007825032070
           H         -0.950164508108    -2.493301781503     1.502104022507     1.007825032070
           H         -2.403112508108    -0.338054781503    -0.112134977493     1.007825032070
           H         -3.163215508108    -1.701831781503     0.687234022507     1.007825032070
           H         -2.395776508108    -0.443752781503     1.638643022507     1.007825032070

  Charge       = 0
  Multiplicity = 1
  Basis Set: 6-31G*
  Basis Set:

    Orbital Energies (a.u.)
    -----------------------

    Doubly Occupied:

       1A    -15.532413     2A    -11.239535     3A    -11.213762
       4A    -11.212570     5A    -11.208584     6A    -11.205110
       7A     -1.176498     8A     -1.074690     9A     -0.992910
      10A     -0.903509    11A     -0.824301    12A     -0.775021
      13A     -0.663526    14A     -0.640884    15A     -0.605086
      16A     -0.597704    17A     -0.586161    18A     -0.535416
      19A     -0.523400    20A     -0.503979    21A     -0.485612
      22A     -0.458938    23A     -0.455810    24A     -0.450425
      25A     -0.380980

  @DF-RHF Final Energy:  -251.34864506013903

   => Energetics <=

    Nuclear Repulsion Energy =            250.3125709853122487
    One-Electron Energy =                -834.8287498159177176
    Two-Electron Energy =                 333.1675337704668323
    DFT Exchange-Correlation Energy =       0.0000000000000000
    Empirical Dispersion Energy =           0.0000000000000000
    PCM Polarization Energy =               0.0000000000000000
    EFP Energy =                            0.0000000000000000
    Total Energy =                       -251.3486450601386082

  Mulliken Charges: (a.u.)
   Center  Symbol    Alpha    Beta     Spin     Total
       1     H     0.33251  0.33251  0.00000  0.33498
       2     N     3.92189  3.92189  0.00000 -0.84378
       3     C     3.05904  3.05904  0.00000 -0.11809
       4     H     0.33543  0.33543  0.00000  0.32914
       5     C     3.15652  3.15652  0.00000 -0.31305
       6     H     0.42095  0.42095  0.00000  0.15811
       7     H     0.43498  0.43498  0.00000  0.13004
       8     C     3.15604  3.15604  0.00000 -0.31207
       9     H     0.40949  0.40949  0.00000  0.18101
      10     H     0.42816  0.42816  0.00000  0.14368
      11     C     3.15123  3.15123  0.00000 -0.30245
      12     H     0.42385  0.42385  0.00000  0.15230
      13     H     0.42274  0.42274  0.00000  0.15453
      14     C     3.24379  3.24379  0.00000 -0.48758
      15     H     0.42357  0.42357  0.00000  0.15287
      16     H     0.42105  0.42105  0.00000  0.15790
      17     H     0.41725  0.41725  0.00000  0.16551
      18     H     0.41952  0.41952  0.00000  0.16097
      19     H     0.42200  0.42200  0.00000  0.15600

   Total alpha = 25.00000, Total beta = 25.00000, Total charge =  0.00000
