  ==> Input File <==

--------------------------------------------------------------------------
set {
	reference rhf
	basis cc-pvtz
}

set_num_threads( 4 )
memory 2 gb

molecule MOL {
0 1

H	 2.614283	 2.028610	 0.296620
O	 3.358864	 1.662087	 -0.142800
C	 3.565468	 0.338079	 0.273842
C	 2.533667	 -0.637565	 -0.272227
H	 4.548038	 0.064914	 -0.086598
H	 3.593945	 0.282242	 1.360360
C	 1.114816	 -0.402372	 0.240993
H	 2.544552	 -0.580764	 -1.356576
H	 2.850574	 -1.642962	 -0.005497
C	 0.113298	 -1.420414	 -0.302504
H	 0.796373	 0.598427	 -0.031033
H	 1.113377	 -0.446476	 1.328807
C	 -1.275998	 -0.859124	 -0.610831
H	 0.522026	 -1.879335	 -1.199476
H	 0.006439	 -2.221031	 0.424175
C	 -1.329291	 0.134474	 -1.769997
H	 -1.936876	 -1.690971	 -0.838423
H	 -1.679732	 -0.390051	 0.283665
C	 -2.748220	 0.588977	 -2.102377
H	 -0.884004	 -0.320578	 -2.652106
H	 -0.726551	 1.008196	 -1.541266
C	 -2.804704	 1.583942	 -3.256824
H	 -3.355184	 -0.278850	 -2.345377
H	 -3.197532	 1.036215	 -1.219678
H	 -2.391642	 1.154927	 -4.163777
H	 -3.824892	 1.883427	 -3.468087
H	 -2.237664	 2.480638	 -3.029333

	symmetry c1
}
set optking {
	frozen_dihedral = ("
		14 10 7 4
	")
}

ee = optimize('scf')
oeprop('DIPOLE', 'QUADRUPOLE', 'MULLIKEN_CHARGES')
f=open( 'psi4out.xyz', 'w' )
f.write( "27  " )
f.write( str(ee) + "\n" )
f.write( MOL.save_string_xyz() )
f.close()
--------------------------------------------------------------------------

    Molecular point group: c1
  Charge       = 0
  Multiplicity = 1
  Basis Set: CC-PVTZ
  Basis Set:
  @DF-RHF Final Energy:  -388.42369833922533
    Total Energy =                       -388.4236983392257798
    Molecular point group: c1
  Basis Set: CC-PVTZ
  Basis Set:
  Basis Set: CC-PVTZ
  Basis Set:
  @DF-RHF Final Energy:  -388.42397956998849
    Total Energy =                       -388.4239795699884326
  Basis Set: CC-PVTZ
  Basis Set:
  Basis Set: CC-PVTZ
  Basis Set:
  @DF-RHF Final Energy:  -388.42420809082233
    Total Energy =                       -388.4242080908227308
  Basis Set: CC-PVTZ
  Basis Set:
  Basis Set: CC-PVTZ
  Basis Set:
  @DF-RHF Final Energy:  -388.42422242051776
    Total Energy =                       -388.4242224205179355
  Basis Set: CC-PVTZ
  Basis Set:
  Basis Set: CC-PVTZ
  Basis Set:
  @DF-RHF Final Energy:  -388.42422756812471
    Total Energy =                       -388.4242275681248202
  Basis Set: CC-PVTZ
  Basis Set:
  Basis Set: CC-PVTZ
  Basis Set:
  @DF-RHF Final Energy:  -388.42422996362319
    Total Energy =                       -388.4242299636237021
  Basis Set: CC-PVTZ
  Basis Set:
  Charge       = 0
  Multiplicity = 1
  Basis Set: CC-PVTZ
  Basis Set:

    Orbital Energies (a.u.)
    -----------------------

    Doubly Occupied:

       1A    -20.545437     2A    -11.264889     3A    -11.216671
       4A    -11.214310     5A    -11.213594     6A    -11.213143
       7A    -11.213058     8A    -11.210877     9A    -11.206187
      10A     -1.363291    11A     -1.094937    12A     -1.061381
      13A     -1.012080    14A     -0.948652    15A     -0.888153
      16A     -0.821438    17A     -0.798613    18A     -0.780918
      19A     -0.697329    20A     -0.646918    21A     -0.637642
      22A     -0.616370    23A     -0.607705    24A     -0.583547
      25A     -0.576643    26A     -0.554355    27A     -0.542124
      28A     -0.526766    29A     -0.506184    30A     -0.498855
      31A     -0.482399    32A     -0.473293    33A     -0.469825
      34A     -0.459979    35A     -0.451808    36A     -0.440841
      37A     -0.425561

  @DF-RHF Final Energy:  -388.42423006798225

   => Energetics <=

    Nuclear Repulsion Energy =            463.1196582324091082
    One-Electron Energy =               -1444.5562243573949672
    Two-Electron Energy =                 593.0123360570034947
    DFT Exchange-Correlation Energy =       0.0000000000000000
    Empirical Dispersion Energy =           0.0000000000000000
    PCM Polarization Energy =               0.0000000000000000
    EFP Energy =                            0.0000000000000000
    Total Energy =                       -388.4242300679823074
    Molecular point group: c1
  Basis Set: CC-PVTZ
  Basis Set:

  -Total Gradient:
     Atom            X                  Y                   Z
    ------   -----------------  -----------------  -----------------
       1        0.000002891321    -0.000002036658    -0.000001104550
       2       -0.000001996410    -0.000011363567     0.000004340824
       3        0.000026122879    -0.000005899519    -0.000001745283
       4       -0.000471586391     0.001679166851    -0.001971999208
       5        0.000008867162     0.000006600045     0.000003678450
       6       -0.000000845927     0.000006445160    -0.000001750800
       7        0.001076791642    -0.002890377825     0.003268163310
       8       -0.000009623289     0.000006600926     0.000009589349
       9       -0.000009482033    -0.000001460927    -0.000000254562
      10       -0.002105947539     0.003855402895    -0.003230278930
      11        0.000015144860     0.000003799731     0.000003196825
      12        0.000026514737     0.000040880460    -0.000020128860
      13       -0.000037060519    -0.000033447141     0.000021143654
      14        0.001494824329    -0.002665491587     0.001950185877
      15       -0.000010792371     0.000007884138    -0.000032865324
      16        0.000012390499    -0.000006243655     0.000007432767
      17       -0.000010393562     0.000016663605    -0.000016244516
      18       -0.000015218542    -0.000008519197     0.000011755008
      19       -0.000003423405    -0.000014181414    -0.000004802181
      20       -0.000006413663     0.000010039538    -0.000001652212
      21        0.000015530471     0.000000725149     0.000004855882
      22        0.000000852926     0.000006282314    -0.000000577724
      23       -0.000001175565    -0.000001232090     0.000001848015
      24        0.000004630947    -0.000002232287    -0.000002489379
      25       -0.000001873061    -0.000000246581     0.000001706529
      26        0.000000089481     0.000002604510     0.000000193548
      27        0.000001181027    -0.000000362876    -0.000002196508

  **** Optimization is complete! (in 7 steps) ****
    Final optimized geometry and variables:
    Molecular point group: c1

    Geometry (in Angstrom), charge = 0, multiplicity = 1:

    H            2.308414467511     1.851226699642     1.393818602206
    O            3.053645643674     1.528766805694     0.922318944099
    C            3.263067805269     0.172164528783     1.214510639465
    C            2.234967235917    -0.750300814693     0.577600302367
    H            4.247415539095    -0.063939828730     0.833270662122
    H            3.288558170529     0.015783453226     2.291155441500
    C            0.808670821050    -0.547172026241     1.084424379075
    H            2.257184944161    -0.607567683611    -0.498283650392
    H            2.545006033600    -1.775933051907     0.766140859468
    C           -0.195304122245    -1.557519330335     0.502227279540
    H            0.493858450724     0.459679622936     0.830865702645
    H            0.791477071048    -0.606361349281     2.169497884061
    C           -1.593773467451    -0.998365967660     0.237813458412
    H            0.208486321115    -1.992827175611    -0.407578960544
    H           -0.281212277468    -2.390457868828     1.193646089676
    C           -1.685804606307    -0.079059903706    -0.978657523632
    H           -2.281216393211    -1.827386914174     0.095920123127
    H           -1.940112165669    -0.467988571229     1.122268922438
    C           -3.086685104580     0.484448487762    -1.201826217731
    H           -1.378308447134    -0.632444634754    -1.862907279491
    H           -0.985698804818     0.745507176526    -0.880379753271
    C           -3.182921081246     1.384224902203    -2.429404263032
    H           -3.792162191775    -0.336081454212    -1.300980189284
    H           -3.392831804026     1.043146283642    -0.321463475393
    H           -2.917626098126     0.844094335515    -3.332166793867
    H           -4.188587960575     1.767962785822    -2.557654627253
    H           -2.513129683552     2.233670046535    -2.345845345977

  Mulliken Charges: (a.u.)
   Center  Symbol    Alpha    Beta     Spin     Total
       1     H     0.39216  0.39216  0.00000  0.21569
       2     O     4.20584  4.20584  0.00000 -0.41168
       3     C     2.97988  2.97988  0.00000  0.04024
       4     C     3.08826  3.08826  0.00000 -0.17652
       5     H     0.44891  0.44891  0.00000  0.10218
       6     H     0.46951  0.46951  0.00000  0.06098
       7     C     3.10941  3.10941  0.00000 -0.21881
       8     H     0.45075  0.45075  0.00000  0.09851
       9     H     0.45511  0.45511  0.00000  0.08979
      10     C     3.10256  3.10256  0.00000 -0.20511
      11     H     0.45610  0.45610  0.00000  0.08780
      12     H     0.44715  0.44715  0.00000  0.10570
      13     C     3.09729  3.09729  0.00000 -0.19459
      14     H     0.45261  0.45261  0.00000  0.09478
      15     H     0.44647  0.44647  0.00000  0.10706
      16     C     3.08810  3.08810  0.00000 -0.17620
      17     H     0.44753  0.44753  0.00000  0.10494
      18     H     0.45427  0.45427  0.00000  0.09146
      19     C     3.08463  3.08463  0.00000 -0.16925
      20     H     0.45406  0.45406  0.00000  0.09189
      21     H     0.45235  0.45235  0.00000  0.09531
      22     C     3.14964  3.14964  0.00000 -0.29927
      23     H     0.45411  0.45411  0.00000  0.09177
      24     H     0.45486  0.45486  0.00000  0.09028
      25     H     0.45501  0.45501  0.00000  0.08998
      26     H     0.44857  0.44857  0.00000  0.10285
      27     H     0.45488  0.45488  0.00000  0.09023

   Total alpha = 37.00000, Total beta = 37.00000, Total charge = -0.00000
