  ==> Input File <==

--------------------------------------------------------------------------
set {
	reference rhf
	basis 6-31G*
}

set_num_threads( 4 )
memory 2 gb

molecule MOL {
0 1

H	 0.978501	 2.531359	 -0.287209
O	 1.269868	 1.868913	 0.324447
C	 0.709265	 0.639550	 -0.033818
C	 -0.793441	 0.596080	 0.058728
H	 1.136916	 -0.095293	 0.638732
H	 1.013477	 0.354111	 -1.040299
C	 -1.530462	 -0.493172	 -0.025500
H	 -1.268471	 1.554324	 0.202247
H	 -1.092586	 -1.461565	 -0.186463
H	 -2.602122	 -0.450675	 0.050101

	symmetry c1
}
set optking {
	frozen_dihedral = ("
		5 3 4 7
	")
}

ee = optimize('scf')
oeprop('DIPOLE', 'QUADRUPOLE', 'MULLIKEN_CHARGES')
f=open( 'psi4out.xyz', 'w' )
f.write( "10  " )
f.write( str(ee) + "\n" )
f.write( MOL.save_string_xyz() )
f.close()
--------------------------------------------------------------------------

    Molecular point group: c1
  Charge       = 0
  Multiplicity = 1
  Basis Set: 6-31G*
  Basis Set:
  @DF-RHF Final Energy:  -191.91269075349211
    Total Energy =                       -191.9126907534920861
    Molecular point group: c1
  Basis Set: 6-31G*
  Basis Set:
  Basis Set: 6-31G*
  Basis Set:
  @DF-RHF Final Energy:  -191.91302490319492
    Total Energy =                       -191.9130249031948665
  Basis Set: 6-31G*
  Basis Set:
  Basis Set: 6-31G*
  Basis Set:
  @DF-RHF Final Energy:  -191.91306469930646
    Total Energy =                       -191.9130646993063749
  Basis Set: 6-31G*
  Basis Set:
  Basis Set: 6-31G*
  Basis Set:
  @DF-RHF Final Energy:  -191.91306808174787
    Total Energy =                       -191.9130680817478662
  Basis Set: 6-31G*
  Basis Set:
  Charge       = 0
  Multiplicity = 1
  Basis Set: 6-31G*
  Basis Set:

    Orbital Energies (a.u.)
    -----------------------

    Doubly Occupied:

       1A    -20.559719     2A    -11.277648     3A    -11.230995
       4A    -11.220646     5A     -1.367454     6A     -1.060559
       7A     -0.919640     8A     -0.776390     9A     -0.697686
      10A     -0.639695    11A     -0.621967    12A     -0.578299
      13A     -0.526192    14A     -0.503320    15A     -0.444682
      16A     -0.363692

  @DF-RHF Final Energy:  -191.91306858656941

   => Energetics <=

    Nuclear Repulsion Energy =            116.8519185416472936
    One-Electron Energy =                -491.9528056644888352
    Two-Electron Energy =                 183.1878185362721183
    DFT Exchange-Correlation Energy =       0.0000000000000000
    Empirical Dispersion Energy =           0.0000000000000000
    PCM Polarization Energy =               0.0000000000000000
    EFP Energy =                            0.0000000000000000
    Total Energy =                       -191.9130685865694090
    Molecular point group: c1
  Basis Set: 6-31G*
  Basis Set:

  -Total Gradient:
     Atom            X                  Y                   Z
    ------   -----------------  -----------------  -----------------
       1       -0.000004865162     0.000003204992    -0.000006673170
       2        0.000008330844     0.000000650067     0.000002542110
       3       -0.000025601580    -0.000313214183    -0.000488773155
       4        0.000033044056    -0.000022971670     0.000537908961
       5       -0.000000642890     0.000243517409     0.000258922018
       6       -0.000007936027     0.000019861296     0.000007239873
       7        0.000022496005     0.000066928175    -0.000299375139
       8       -0.000007638752     0.000002818241     0.000003933444
       9       -0.000012972941     0.000003803007    -0.000002567979
      10       -0.000004213555    -0.000004597335    -0.000013156964

  **** Optimization is complete! (in 5 steps) ****
    Final optimized geometry and variables:
    Molecular point group: c1

    Geometry (in Angstrom), charge = 0, multiplicity = 1:

    H            1.058626115762     1.815676214835    -0.389088991881
    O            1.265510692352     1.162917298434     0.264989498937
    C            0.733938540188    -0.075614824384    -0.123884399998
    C           -0.775307332057    -0.114973005239    -0.023765424597
    H            1.172464481710    -0.809171798969     0.539359128565
    H            1.049781252628    -0.324434821298    -1.135021658992
    C           -1.509025530709    -1.205916293855    -0.108974928958
    H           -1.253013130947     0.840789653901     0.122156786573
    H           -1.070735309667    -2.181182959310    -0.244229469350
    H           -2.581416864483    -1.170082369271    -0.043164464633

  Mulliken Charges: (a.u.)
   Center  Symbol    Alpha    Beta     Spin     Total
       1     H     0.28170  0.28170  0.00000  0.43659
       2     O     4.36977  4.36977  0.00000 -0.73953
       3     C     3.00467  3.00467  0.00000 -0.00935
       4     C     3.08822  3.08822  0.00000 -0.17645
       5     H     0.40608  0.40608  0.00000  0.18785
       6     H     0.42104  0.42104  0.00000  0.15792
       7     C     3.19846  3.19846  0.00000 -0.39693
       8     H     0.40673  0.40673  0.00000  0.18655
       9     H     0.41405  0.41405  0.00000  0.17190
      10     H     0.40928  0.40928  0.00000  0.18144

   Total alpha = 16.00000, Total beta = 16.00000, Total charge = -0.00000
