  ==> Input File <==

--------------------------------------------------------------------------
set {
	reference rhf
	basis 6-31G*
}

set_num_threads( 4 )
memory 2 gb

molecule MOL {
0 1

H	 -3.107251	 -0.784396	 -0.812581
O	 -2.310168	 -0.871793	 -0.309793
C	 -2.026376	 0.340750	 0.341611
C	 -0.673256	 0.843270	 -0.132153
H	 -2.792215	 1.080697	 0.115987
H	 -2.013526	 0.200402	 1.421792
C	 0.486613	 -0.083066	 0.235839
H	 -0.715586	 0.970948	 -1.210718
H	 -0.508072	 1.829858	 0.297090
C	 1.840406	 0.433480	 -0.254303
H	 0.300215	 -1.068318	 -0.178947
H	 0.519509	 -0.203625	 1.318070
C	 3.000220	 -0.489290	 0.118523
H	 1.809207	 0.553576	 -1.335192
H	 2.021860	 1.424500	 0.157276
H	 2.864959	 -1.479103	 -0.307933
H	 3.946603	 -0.099227	 -0.243630
H	 3.080049	 -0.602997	 1.196117

	symmetry c1
}
set optking {
	frozen_dihedral = ("
		1 2 3 4
	")
}

ee = optimize('scf')
oeprop('DIPOLE', 'QUADRUPOLE', 'MULLIKEN_CHARGES')
f=open( 'psi4out.xyz', 'w' )
f.write( "18  " )
f.write( str(ee) + "\n" )
f.write( MOL.save_string_xyz() )
f.close()
--------------------------------------------------------------------------

    Molecular point group: c1
  Charge       = 0
  Multiplicity = 1
  Basis Set: 6-31G*
  Basis Set:
  @DF-RHF Final Energy:  -271.17734721882374
    Total Energy =                       -271.1773472188238543
    Molecular point group: c1
  Basis Set: 6-31G*
  Basis Set:
  Basis Set: 6-31G*
  Basis Set:
  @DF-RHF Final Energy:  -271.17775166989475
    Total Energy =                       -271.1777516698945192
  Basis Set: 6-31G*
  Basis Set:
  Basis Set: 6-31G*
  Basis Set:
  @DF-RHF Final Energy:  -271.17784715159542
    Total Energy =                       -271.1778471515957563
  Basis Set: 6-31G*
  Basis Set:
  Charge       = 0
  Multiplicity = 1
  Basis Set: 6-31G*
  Basis Set:

    Orbital Energies (a.u.)
    -----------------------

    Doubly Occupied:

       1A    -20.551550     2A    -11.268412     3A    -11.211740
       4A    -11.210898     5A    -11.206206     6A    -11.204375
       7A     -1.357887     8A     -1.074628     9A     -1.008349
      10A     -0.913277    11A     -0.820398    12A     -0.786290
      13A     -0.697658    14A     -0.648906    15A     -0.613673
      16A     -0.586778    17A     -0.574369    18A     -0.550443
      19A     -0.523426    20A     -0.507254    21A     -0.489116
      22A     -0.467129    23A     -0.458272    24A     -0.446349
      25A     -0.425371

  @DF-RHF Final Energy:  -271.17784727455773

   => Energetics <=

    Nuclear Repulsion Energy =            248.7540254864610745
    One-Electron Energy =                -860.6582413993879754
    Two-Electron Energy =                 340.7263686383691947
    DFT Exchange-Correlation Energy =       0.0000000000000000
    Empirical Dispersion Energy =           0.0000000000000000
    PCM Polarization Energy =               0.0000000000000000
    EFP Energy =                            0.0000000000000000
    Total Energy =                       -271.1778472745577346
    Molecular point group: c1
  Basis Set: 6-31G*
  Basis Set:

  -Total Gradient:
     Atom            X                  Y                   Z
    ------   -----------------  -----------------  -----------------
       1       -0.000102428859    -0.000088924808     0.000131462676
       2        0.000042052004     0.000060979137    -0.000205656867
       3       -0.000014324403    -0.000013614654    -0.000042161666
       4        0.000061839437    -0.000022703588     0.000108524581
       5       -0.000008082094    -0.000017193337    -0.000018273750
       6        0.000021637376     0.000053162215     0.000008789940
       7       -0.000014794108    -0.000010434123     0.000006571429
       8       -0.000001690850    -0.000004669164     0.000002561477
       9        0.000018927549    -0.000004475107    -0.000005377693
      10        0.000013596501     0.000025375398     0.000011608763
      11        0.000015876632     0.000006753203     0.000022406254
      12       -0.000024957759     0.000027418271     0.000000646358
      13       -0.000010384694    -0.000017281023    -0.000032261032
      14       -0.000004234910     0.000017443620     0.000003773447
      15        0.000008102393    -0.000003612778     0.000016524586
      16        0.000005385448    -0.000014339426     0.000005553026
      17       -0.000003710136    -0.000004311894    -0.000009636360
      18       -0.000002809519     0.000010428058    -0.000005055169

  **** Optimization is complete! (in 4 steps) ****
    Final optimized geometry and variables:
    Molecular point group: c1

    Geometry (in Angstrom), charge = 0, multiplicity = 1:

    H           -3.112715030819    -0.835359310993    -0.780770673007
    O           -2.320722391496    -0.900731547733    -0.270556886153
    C           -2.024645684997     0.339327945824     0.331068342581
    C           -0.667808219494     0.855070460633    -0.126686130639
    H           -2.793800977939     1.070635073164     0.096363190086
    H           -2.027514317035     0.205661303775     1.409100642582
    C            0.487638437881    -0.076874112474     0.239860426341
    H           -0.696134319587     0.998145896289    -1.204619241482
    H           -0.505116468022     1.835728118133     0.318428307004
    C            1.845572747849     0.434335730905    -0.244446771682
    H            0.296892769587    -1.059690017480    -0.179445556257
    H            0.516323082991    -0.202470781754     1.321490129970
    C            2.998333623031    -0.500267453608     0.120695209321
    H            1.816358679569     0.564613311706    -1.324287727935
    H            2.033764497091     1.420258824874     0.176306323042
    H            2.855072843290    -1.485888842078    -0.312869410320
    H            3.947540104910    -0.114891243765    -0.239080807430
    H            3.077674317909    -0.622611615851     1.197286609647

  Mulliken Charges: (a.u.)
   Center  Symbol    Alpha    Beta     Spin     Total
       1     H     0.27922  0.27922  0.00000  0.44155
       2     O     4.37239  4.37239  0.00000 -0.74479
       3     C     3.00027  3.00027  0.00000 -0.00054
       4     C     3.15652  3.15652  0.00000 -0.31305
       5     H     0.42928  0.42928  0.00000  0.14144
       6     H     0.42342  0.42342  0.00000  0.15316
       7     C     3.15382  3.15382  0.00000 -0.30764
       8     H     0.42238  0.42238  0.00000  0.15524
       9     H     0.42615  0.42615  0.00000  0.14770
      10     C     3.15139  3.15139  0.00000 -0.30279
      11     H     0.40798  0.40798  0.00000  0.18404
      12     H     0.42596  0.42596  0.00000  0.14808
      13     C     3.23891  3.23891  0.00000 -0.47781
      14     H     0.42348  0.42348  0.00000  0.15304
      15     H     0.42525  0.42525  0.00000  0.14951
      16     H     0.42081  0.42081  0.00000  0.15839
      17     H     0.42057  0.42057  0.00000  0.15886
      18     H     0.42220  0.42220  0.00000  0.15560

   Total alpha = 25.00000, Total beta = 25.00000, Total charge = -0.00000
