  ==> Input File <==

--------------------------------------------------------------------------
set {
	reference rhf
	basis 6-31G*
}

set_num_threads( 1 )
memory 2 gb

molecule MOL {
0 1

H	 -3.261111	 -0.295142	 1.469456
C	 -3.306842	 -0.277400	 0.373456
C	 -2.660244	 0.921717	 -0.272021
O	 -3.838538	 -1.161155	 -0.216482
C	 -1.220012	 1.144545	 0.209990
H	 -2.705793	 0.797307	 -1.347733
H	 -3.263782	 1.790044	 -0.010477
C	 -0.252658	 0.041456	 -0.226725
H	 -0.873521	 2.100229	 -0.171974
H	 -1.211708	 1.231594	 1.295398
C	 1.180775	 0.282413	 0.250794
H	 -0.266029	 -0.034465	 -1.312038
H	 -0.597733	 -0.921000	 0.146291
C	 2.148627	 -0.814315	 -0.201312
H	 1.516199	 1.249228	 -0.115937
H	 1.192670	 0.346017	 1.338083
C	 3.580890	 -0.659131	 0.322722
H	 2.166869	 -0.852443	 -1.289387
H	 1.762857	 -1.776509	 0.128956
C	 4.622957	 -0.356852	 -0.755398
H	 3.861957	 -1.578661	 0.830082
H	 3.605127	 0.123225	 1.078535
H	 4.610150	 -1.115117	 -1.533947
H	 4.452331	 0.604956	 -1.227401
H	 5.621988	 -0.337455	 -0.330478

	symmetry c1
}
set optking {
	frozen_dihedral = ("
		6 3 5 8,
		6 3 2 4,
		3 5 8 12,
		12 8 11 14,
		8 11 14 18
	")
}

ee = energy('scf')
oeprop('DIPOLE', 'QUADRUPOLE', 'MULLIKEN_CHARGES')
f=open( 'psi4out.xyz', 'w' )
f.write( "25  " )
f.write( str(ee) + "\n" )
f.write( MOL.save_string_xyz() )
f.close()
--------------------------------------------------------------------------

    Molecular point group: c1

    Geometry (in Angstrom), charge = 0, multiplicity = 1:

       Center              X                  Y                   Z               Mass
    ------------   -----------------  -----------------  -----------------  -----------------
           H         -3.295963270385    -0.187109396139     1.532719653019     1.007825032070
           C         -3.341694270385    -0.169367396139     0.436719653019    12.000000000000
           C         -2.695096270385     1.029749603861    -0.208757346981    12.000000000000
           O         -3.873390270385    -1.053122396139    -0.153218346981    15.994914619560
           C         -1.254864270385     1.252577603861     0.273253653019    12.000000000000
           H         -2.740645270385     0.905339603861    -1.284469346981     1.007825032070
           H         -3.298634270385     1.898076603861     0.052786653019     1.007825032070
           C         -0.287510270385     0.149488603861    -0.163461346981    12.000000000000
           H         -0.908373270385     2.208261603861    -0.108710346981     1.007825032070
           H         -1.246560270385     1.339626603861     1.358661653019     1.007825032070
           C          1.145922729615     0.390445603861     0.314057653019    12.000000000000
           H         -0.300881270385     0.073567603861    -1.248774346981     1.007825032070
           H         -0.632585270385    -0.812967396139     0.209554653019     1.007825032070
           C          2.113774729615    -0.706282396139    -0.138048346981    12.000000000000
           H          1.481346729615     1.357260603861    -0.052673346981     1.007825032070
           H          1.157817729615     0.454049603861     1.401346653019     1.007825032070
           C          3.546037729615    -0.551098396139     0.385985653019    12.000000000000
           H          2.132016729615    -0.744410396139    -1.226123346981     1.007825032070
           H          1.728004729615    -1.668476396139     0.192219653019     1.007825032070
           C          4.588104729615    -0.248819396139    -0.692134346981    12.000000000000
           H          3.827104729615    -1.470628396139     0.893345653019     1.007825032070
           H          3.570274729615     0.231257603861     1.141798653019     1.007825032070
           H          4.575297729615    -1.007084396139    -1.470683346981     1.007825032070
           H          4.417478729615     0.712988603861    -1.164137346981     1.007825032070
           H          5.587135729615    -0.229422396139    -0.267214346981     1.007825032070

  Charge       = 0
  Multiplicity = 1
  Basis Set: 6-31G*
  Basis Set:

    Orbital Energies (a.u.)
    -----------------------

    Doubly Occupied:

       1A    -20.561984     2A    -11.326132     3A    -11.235340
       4A    -11.234628     5A    -11.223650     6A    -11.220712
       7A    -11.216436     8A    -11.215496     9A    -11.210766
      10A     -1.401968    11A     -1.103718    12A     -1.069063
      13A     -1.014619    14A     -0.943214    15A     -0.870829
      16A     -0.817068    17A     -0.790986    18A     -0.786447
      19A     -0.664412    20A     -0.661710    21A     -0.633623
      22A     -0.620445    23A     -0.606720    24A     -0.591946
      25A     -0.573008    26A     -0.553104    27A     -0.532701
      28A     -0.523242    29A     -0.510894    30A     -0.498484
      31A     -0.485634    32A     -0.481098    33A     -0.466432
      34A     -0.456164    35A     -0.439785    36A     -0.409529

  @DF-RHF Final Energy:  -387.11762541965885

   => Energetics <=

    Nuclear Repulsion Energy =            436.4081987840340275
    One-Electron Energy =               -1389.1475644853328504
    Two-Electron Energy =                 565.6217402816406548
    DFT Exchange-Correlation Energy =       0.0000000000000000
    Empirical Dispersion Energy =           0.0000000000000000
    PCM Polarization Energy =               0.0000000000000000
    EFP Energy =                            0.0000000000000000
    Total Energy =                       -387.1176254196581112

  Mulliken Charges: (a.u.)
   Center  Symbol    Alpha    Beta     Spin     Total
       1     H     0.43261  0.43261  0.00000  0.13478
       2     C     2.83084  2.83084  0.00000  0.33832
       3     C     3.20806  3.20806  0.00000 -0.41612
       4     O     4.23776  4.23776  0.00000 -0.47552
       5     C     3.16660  3.16660  0.00000 -0.33320
       6     H     0.39969  0.39969  0.00000  0.20062
       7     H     0.40671  0.40671  0.00000  0.18658
       8     C     3.15580  3.15580  0.00000 -0.31159
       9     H     0.41287  0.41287  0.00000  0.17425
      10     H     0.41964  0.41964  0.00000  0.16072
      11     C     3.15409  3.15409  0.00000 -0.30818
      12     H     0.41789  0.41789  0.00000  0.16421
      13     H     0.41829  0.41829  0.00000  0.16343
      14     C     3.15520  3.15520  0.00000 -0.31039
      15     H     0.42246  0.42246  0.00000  0.15507
      16     H     0.42289  0.42289  0.00000  0.15422
      17     C     3.15525  3.15525  0.00000 -0.31050
      18     H     0.42007  0.42007  0.00000  0.15985
      19     H     0.41992  0.41992  0.00000  0.16016
      20     C     3.23993  3.23993  0.00000 -0.47986
      21     H     0.41984  0.41984  0.00000  0.16033
      22     H     0.42078  0.42078  0.00000  0.15843
      23     H     0.42097  0.42097  0.00000  0.15806
      24     H     0.42184  0.42184  0.00000  0.15633
      25     H     0.42000  0.42000  0.00000  0.16000

   Total alpha = 36.00000, Total beta = 36.00000, Total charge = -0.00000
