                              Psi4 1.0.54 Driver

  ==> Input File <==

--------------------------------------------------------------------------
set {
	reference rhf
	basis cc-pvtz
}

set_num_threads( 4 )
memory 2 gb

molecule MOL {
0 1

O	 3.219313	 0.959291	 -0.614106
C	 2.698710	 0.058177	 -0.050237
C	 1.246364	 -0.005813	 0.348416
O	 3.344101	 -1.038700	 0.312317
C	 0.453207	 1.232821	 -0.049003
H	 0.839270	 -0.907818	 -0.092281
H	 1.216683	 -0.160521	 1.422434
C	 -0.998367	 1.217982	 0.432195
H	 0.481498	 1.345443	 -1.127236
H	 0.951413	 2.105557	 0.354893
C	 -1.882951	 0.151251	 -0.211235
H	 -1.429490	 2.193659	 0.228843
H	 -1.019755	 1.099323	 1.513279
C	 -3.342450	 0.243269	 0.226009
H	 -1.826223	 0.246578	 -1.293162
H	 -1.508033	 -0.839650	 0.027695
C	 -4.234517	 -0.821434	 -0.405970
H	 -3.730149	 1.228245	 -0.022691
H	 -3.398860	 0.159952	 1.308941
C	 -3.489712	 -1.725367	 -1.382672
H	 -4.679217	 -1.428204	 0.378117
H	 -5.060177	 -0.338278	 -0.921434
H	 -4.151044	 -2.468689	 -1.812900
H	 -2.678750	 -2.250584	 -0.889116
H	 -3.061906	 -1.151880	 -2.198333
C	 4.720529	 -1.114346	 0.001449
H	 4.874321	 -1.055557	 -1.065852
H	 5.057824	 -2.067950	 0.373977
H	 5.264321	 -0.313596	 0.480350

	symmetry c1
}
set optking {
	frozen_dihedral = ("
		21 17 14 11
	")
}

ee,wfn = optimize('scf', return_wfn=True)
oeprop( wfn, 'DIPOLE', 'QUADRUPOLE', 'MULLIKEN_CHARGES')
f=open( 'psi4out.xyz', 'w' )
f.write( "29  " )
f.write( str(ee) + "\n" )
f.write( MOL.save_string_xyz() )
f.close()
--------------------------------------------------------------------------

    Molecular point group: c1
  Charge       = 0
  Multiplicity = 1
  Basis Set: CC-PVTZ
  Basis Set:
  @DF-RHF Final Energy:  -501.21027219145185
    Total Energy =                       -501.2102721914523045
    Molecular point group: c1
  Basis Set: CC-PVTZ
  Basis Set:
  Basis Set: CC-PVTZ
  Basis Set:
  @DF-RHF Final Energy:  -500.25461009535468
    Total Energy =                       -500.2546100953545647
  Basis Set: CC-PVTZ
  Basis Set:
  Basis Set: CC-PVTZ
  Basis Set:
  @DF-RHF Final Energy:  -500.51921972010791
    Total Energy =                       -500.5192197201075714
  Basis Set: CC-PVTZ
  Basis Set:
  Basis Set: CC-PVTZ
  Basis Set:
  @DF-RHF Final Energy:  -499.47656939926901
    Total Energy =                       -499.4765693992694651
  Basis Set: CC-PVTZ
  Basis Set:
  @DF-RHF Final Energy:  -499.97207936236509
    Total Energy =                       -499.9720793623648660
  @DF-RHF Final Energy:  -499.17820918404976
    Total Energy =                       -499.1782091840492512
  @DF-RHF Final Energy:  -499.70046690821800
    Total Energy =                       -499.7004669082174360
  @DF-RHF Final Energy:  -500.16620130454908
    Total Energy =                       -500.1662013045487356
  @DF-RHF Final Energy:  -500.60099423376528
    Total Energy =                       -500.6009942337645953
  @DF-RHF Final Energy:  -500.94208345045661
    Total Energy =                       -500.9420834504568347
  @DF-RHF Final Energy:  -501.13704876724330
    Total Energy =                       -501.1370487672429590
  @DF-RHF Final Energy:  -501.20274139781804
    Total Energy =                       -501.2027413978178174
  @DF-RHF Final Energy:  -501.21287385812047
    Total Energy =                       -501.2128738581202470
  @DF-RHF Final Energy:  -501.21451780508278
    Total Energy =                       -501.2145178050831191
  @DF-RHF Final Energy:  -501.21375529505258
    Total Energy =                       -501.2137552950531472
  @DF-RHF Final Energy:  -501.21472041335505
    Total Energy =                       -501.2147204133549394
  Basis Set: CC-PVTZ
  Basis Set:
  @DF-RHF Final Energy:  -501.21472929492757
    Total Energy =                       -501.2147292949274515
  Basis Set: CC-PVTZ
  Basis Set:
  Basis Set: CC-PVTZ
  Basis Set:
  @DF-RHF Final Energy:  -501.21477580537294
    Total Energy =                       -501.2147758053718007
  Basis Set: CC-PVTZ
  Basis Set:
  Basis Set: CC-PVTZ
  Basis Set:
  @DF-RHF Final Energy:  -501.21477989730670
    Total Energy =                       -501.2147798973070394
  Basis Set: CC-PVTZ
  Basis Set:
  Charge       = 0
  Multiplicity = 1
  Basis Set: CC-PVTZ
  Basis Set:

    Orbital Energies (a.u.)
    -----------------------

    Doubly Occupied:

       1A    -20.595930     2A    -20.533761     3A    -11.364191
       4A    -11.278206     5A    -11.232881     6A    -11.216864
       7A    -11.215123     8A    -11.214492     9A    -11.213242
      10A    -11.212598    11A    -11.207261    12A     -1.471827
      13A     -1.365340    14A     -1.098168    15A     -1.064305
      16A     -1.018296    17A     -0.976555    18A     -0.928604
      19A     -0.874303    20A     -0.805161    21A     -0.774016
      22A     -0.764634    23A     -0.702734    24A     -0.685324
      25A     -0.675989    26A     -0.649593    27A     -0.628691
      28A     -0.603154    29A     -0.599759    30A     -0.589702
      31A     -0.558236    32A     -0.549134    33A     -0.543205
      34A     -0.525832    35A     -0.522485    36A     -0.507319
      37A     -0.503965    38A     -0.477868    39A     -0.473394
      40A     -0.460375    41A     -0.454766    42A     -0.445670
      43A     -0.444838    44A     -0.437789

  @DF-RHF Final Energy:  -501.21477946300081

   => Energetics <=

    Nuclear Repulsion Energy =            618.7750664596729848
    One-Electron Energy =               -1909.0485313158799272
    Two-Electron Energy =                 789.0586853932065878
    DFT Exchange-Correlation Energy =       0.0000000000000000
    Empirical Dispersion Energy =           0.0000000000000000
    PCM Polarization Energy =               0.0000000000000000
    EFP Energy =                            0.0000000000000000
    Total Energy =                       -501.2147794630002409
    Molecular point group: c1
  Basis Set: CC-PVTZ
  Basis Set:

  -Total Gradient:
     Atom            X                  Y                   Z
    ------   -----------------  -----------------  -----------------
       1        0.000115771506    -0.000045026797    -0.000109413257
       2       -0.000078032798     0.000056109965     0.000114208703
       3       -0.000177089653     0.000017218638    -0.000083705918
       4       -0.000015480751    -0.000088038427    -0.000001367786
       5        0.000093206283     0.000027619007     0.000029459022
       6       -0.000013800118    -0.000036802955     0.000137726303
       7        0.000020210881    -0.000012029422     0.000027691679
       8        0.000065403952    -0.000058156278     0.000080910586
       9       -0.000026481203    -0.000008586558    -0.000028263212
      10        0.000043524470     0.000049592563    -0.000084847901
      11       -0.000224979593    -0.000856330004    -0.000191212231
      12        0.000057160350     0.000003073277     0.000042407648
      13       -0.000035449724    -0.000008962744     0.000017178271
      14       -0.000010618629     0.001109176105     0.000371566618
      15        0.000021007436    -0.000008019652    -0.000030964578
      16        0.000043718526     0.000006632743    -0.000017263485
      17        0.001334071662     0.000024027723    -0.000080604706
      18        0.000045259425     0.000010434128     0.000041942762
      19       -0.000040866960     0.000016406537     0.000046958601
      20       -0.000102924669     0.000055539442    -0.000267641186
      21       -0.001160157704    -0.000305240418     0.000032705611
      22       -0.000000273277     0.000060714629    -0.000051998555
      23       -0.000050439913    -0.000002381474     0.000129013893
      24        0.000032494060     0.000034724531    -0.000029708644
      25        0.000072615001    -0.000079662040    -0.000042079409
      26       -0.000034302103     0.000041569201    -0.000001611636
      27       -0.000025889617    -0.000035898374     0.000031755739
      28        0.000034613313     0.000017199251    -0.000005302113
      29        0.000017729854     0.000015097405    -0.000077540815

  **** Optimization is complete! (in 20 steps) ****
    Final optimized geometry and variables:
    Molecular point group: c1

    Geometry (in Angstrom), charge = 0, multiplicity = 1:

    O            1.682943362670    -0.162897507497    -2.789898765716
    C            1.618508642944     0.573895790715    -1.865692975589
    C            0.491432065677     0.632082023974    -0.866280709467
    O            2.555787836939     1.464529195463    -1.583994994147
    C           -0.623139177525    -0.366767090621    -1.150370281334
    H            0.932129554036     0.480981633596     0.111997534853
    H            0.114318826370     1.649866201895    -0.867872183416
    C           -1.812669010561    -0.253767331642    -0.195689186775
    H           -0.219584059543    -1.372765443631    -1.117363921974
    H           -0.968663977095    -0.217769637255    -2.166163995215
    C           -1.514143170447    -0.625764896611     1.256302851657
    H           -2.601727374393    -0.902054009021    -0.564679476018
    H           -2.212191831043     0.757283452749    -0.233999485493
    C           -2.770953398117    -0.583017779232     2.126856649702
    H           -1.077837408519    -1.619654600471     1.280329475466
    H           -0.767118202353     0.047956132358     1.661523599449
    C           -2.609884500916    -0.938436569908     3.629359291669
    H           -3.501283034285    -1.254465215889     1.686977096262
    H           -3.203520573884     0.409171724014     2.047140597768
    C           -1.226605512894    -1.381987943015     4.103096169366
    H           -2.918420342690    -0.086542558355     4.225839118198
    H           -3.314056076887    -1.726379419604     3.873386124712
    H           -1.256258480879    -1.603088755308     5.164198529650
    H           -0.477534193446    -0.613889389232     3.952538546235
    H           -0.890484732600    -2.277694874406     3.594165312628
    C            3.677181885263     1.519496808297    -2.442180264063
    H            4.199707638694     0.574380495546    -2.447294509295
    H            4.314836809748     2.295054512306    -2.049854010240
    H            3.374760930606     1.760273318297    -3.450659259129

  Mulliken Charges: (a.u.)
   Center  Symbol    Alpha    Beta     Spin     Total
       1     O     4.19704  4.19704  0.00000 -0.39409
       2     C     2.80490  2.80490  0.00000  0.39019
       3     C     3.10178  3.10178  0.00000 -0.20356
       4     O     4.14722  4.14722  0.00000 -0.29444
       5     C     3.09215  3.09215  0.00000 -0.18430
       6     H     0.43948  0.43948  0.00000  0.12104
       7     H     0.43974  0.43974  0.00000  0.12052
       8     C     3.10373  3.10373  0.00000 -0.20747
       9     H     0.44630  0.44630  0.00000  0.10741
      10     H     0.43993  0.43993  0.00000  0.12014
      11     C     3.09350  3.09350  0.00000 -0.18700
      12     H     0.44540  0.44540  0.00000  0.10919
      13     H     0.45397  0.45397  0.00000  0.09205
      14     C     3.10018  3.10018  0.00000 -0.20036
      15     H     0.45103  0.45103  0.00000  0.09793
      16     H     0.45171  0.45171  0.00000  0.09658
      17     C     3.08752  3.08752  0.00000 -0.17505
      18     H     0.45049  0.45049  0.00000  0.09902
      19     H     0.45120  0.45120  0.00000  0.09760
      20     C     3.15684  3.15684  0.00000 -0.31369
      21     H     0.45163  0.45163  0.00000  0.09673
      22     H     0.45130  0.45130  0.00000  0.09739
      23     H     0.44391  0.44391  0.00000  0.11217
      24     H     0.45417  0.45417  0.00000  0.09167
      25     H     0.45283  0.45283  0.00000  0.09433
      26     C     3.03816  3.03816  0.00000 -0.07632
      27     H     0.45435  0.45435  0.00000  0.09131
      28     H     0.44529  0.44529  0.00000  0.10942
      29     H     0.45423  0.45423  0.00000  0.09155

   Total alpha = 44.00000, Total beta = 44.00000, Total charge = -0.00000

*** Psi4 exiting successfully. Buy a developer a beer!
