  ==> Input File <==

--------------------------------------------------------------------------
set {
	reference rhf
	basis 6-31G*
}

set_num_threads( 4 )
memory 2 gb

molecule MOL {
0 1

H	 -1.370056	 1.308700	 -4.559038
C	 -0.840100	 1.111490	 -3.644140
C	 -0.954531	 1.988659	 -2.576138
C	 -0.045035	 -0.018668	 -3.536680
H	 -1.571471	 2.864777	 -2.660798
C	 -0.272809	 1.734413	 -1.400087
H	 0.042457	 -0.697491	 -4.365626
C	 0.638299	 -0.275200	 -2.360406
H	 -0.349574	 2.402106	 -0.563448
C	 0.525694	 0.601984	 -1.288198
H	 1.254673	 -1.148549	 -2.272849
C	 1.239129	 0.373821	 0.000060
O	 1.970282	 -0.730723	 0.000018
O	 1.166538	 1.102862	 0.939256
C	 3.377318	 -0.566646	 -0.000065
H	 3.695437	 -0.028981	 -0.881264
H	 3.789299	 -1.563704	 0.000236
H	 3.695516	 -0.028316	 0.880770

	symmetry c1
}
set optking {
	frozen_dihedral = ("
		10 12 13 15
	")
}

ee = optimize('scf')
oeprop('DIPOLE', 'QUADRUPOLE', 'MULLIKEN_CHARGES')
f=open( 'psi4out.xyz', 'w' )
f.write( "18  " )
f.write( str(ee) + "\n" )
f.write( MOL.save_string_xyz() )
f.close()
--------------------------------------------------------------------------

    Molecular point group: c1
  Charge       = 0
  Multiplicity = 1
  Basis Set: 6-31G*
  Basis Set:
  @DF-RHF Final Energy:  -457.33372470365674
    Total Energy =                       -457.3337247036567987
    Molecular point group: c1
  Basis Set: 6-31G*
  Basis Set:
  Basis Set: 6-31G*
  Basis Set:
  @DF-RHF Final Energy:  -457.33327578296507
    Total Energy =                       -457.3332757829654156
  Basis Set: 6-31G*
  Basis Set:
  Basis Set: 6-31G*
  Basis Set:
  @DF-RHF Final Energy:  -457.33428664434911
    Total Energy =                       -457.3342866443487083
  Basis Set: 6-31G*
  Basis Set:
  Basis Set: 6-31G*
  Basis Set:
  @DF-RHF Final Energy:  -457.33460257385451
    Total Energy =                       -457.3346025738543403
  Basis Set: 6-31G*
  Basis Set:
  @DF-RHF Final Energy:  -457.33460740869282
    Total Energy =                       -457.3346074086930457
  Basis Set: 6-31G*
  Basis Set:
  @DF-RHF Final Energy:  -457.32807151545842
    Total Energy =                       -457.3280715154580776
  Basis Set: 6-31G*
  Basis Set:
  Basis Set: 6-31G*
  Basis Set:
  @DF-RHF Final Energy:  -457.33438745389310
    Total Energy =                       -457.3343874538931004
  Basis Set: 6-31G*
  Basis Set:
  Basis Set: 6-31G*
  Basis Set:
  @DF-RHF Final Energy:  -457.33460791275934
    Total Energy =                       -457.3346079127594521
  Basis Set: 6-31G*
  Basis Set:
  Charge       = 0
  Multiplicity = 1
  Basis Set: 6-31G*
  Basis Set:

    Orbital Energies (a.u.)
    -----------------------

    Doubly Occupied:

       1A    -20.589514     2A    -20.553679     3A    -11.379482
       4A    -11.288831     5A    -11.248931     6A    -11.248529
       7A    -11.247228     8A    -11.244993     9A    -11.240656
      10A    -11.239842    11A     -1.461952    12A     -1.366005
      13A     -1.167963    14A     -1.046282    15A     -1.027998
      16A     -0.973958    17A     -0.868166    18A     -0.837920
      19A     -0.777770    20A     -0.737805    21A     -0.684322
      22A     -0.674854    23A     -0.662629    24A     -0.637142
      25A     -0.626692    26A     -0.606200    27A     -0.597085
      28A     -0.558046    29A     -0.527074    30A     -0.520131
      31A     -0.503157    32A     -0.496437    33A     -0.459127
      34A     -0.442764    35A     -0.348052    36A     -0.344197

  @DF-RHF Final Energy:  -457.33460800213356

   => Energetics <=

    Nuclear Repulsion Energy =            494.6791520818251229
    One-Electron Energy =               -1603.5566966455216971
    Two-Electron Energy =                 651.5429365615632378
    DFT Exchange-Correlation Energy =       0.0000000000000000
    Empirical Dispersion Energy =           0.0000000000000000
    PCM Polarization Energy =               0.0000000000000000
    EFP Energy =                            0.0000000000000000
    Total Energy =                       -457.3346080021333364
    Molecular point group: c1
  Basis Set: 6-31G*
  Basis Set:

  -Total Gradient:
     Atom            X                  Y                   Z
    ------   -----------------  -----------------  -----------------
       1        0.000004545436     0.000001038297    -0.000002652750
       2       -0.000012390875    -0.000000176296     0.000007725478
       3        0.000005943518     0.000001604700    -0.000013662120
       4       -0.000000357152    -0.000011238721     0.000008463482
       5        0.000000374326    -0.000000961389     0.000001208549
       6        0.000002804719    -0.000006582722     0.000010222627
       7        0.000001122919     0.000001647188    -0.000002256204
       8        0.000001697317     0.000011656684    -0.000027042158
       9        0.000000606210    -0.000000490882    -0.000001886466
      10        0.003717511564     0.002645808641    -0.001566340291
      11       -0.000001381915    -0.000002074066     0.000003064082
      12       -0.005387559469    -0.003827792034    -0.000071827955
      13        0.001595504918     0.001124964514     0.006795697690
      14        0.000005407975    -0.000003398141     0.000005209274
      15        0.000069920302     0.000065098661    -0.005144772914
      16       -0.000000231212    -0.000001344048     0.000003703529
      17       -0.000000850881    -0.000003590238    -0.000002813014
      18       -0.000002667699     0.000005829853    -0.000002040848

  **** Optimization is complete! (in 9 steps) ****
    Final optimized geometry and variables:
    Molecular point group: c1

    Geometry (in Angstrom), charge = 0, multiplicity = 1:

    H           -2.109471189572     0.854499038292    -3.264143430880
    C           -1.591755160018     0.639737398642    -2.346270373900
    C           -1.695246417450     1.514525941254    -1.273514379732
    C           -0.826179626511    -0.509523891354    -2.238708538403
    H           -2.291504430961     2.404758424416    -1.359148815593
    C           -1.031197967978     1.238359684712    -0.093781591418
    H           -0.750991767666    -1.187812113953    -3.069223877533
    C           -0.158085213512    -0.787018669855    -1.057425355871
    H           -1.101111419903     1.902902266160     0.745997063997
    C           -0.255134498145     0.088080183886     0.017628716823
    H            0.429874868976    -1.679302796424    -0.965204171701
    C            0.463348655725    -0.161827485441     1.298725912889
    O            1.241903649213    -1.261324385559     1.295809981423
    O            0.402235733140     0.560520576605     2.237146777241
    C            2.638277500763    -1.031478169987     1.316353042246
    H            2.950866283234    -0.526817872068     0.408949274408
    H            3.106580364155    -2.001880860274     1.368849897631
    H            2.914918684959    -0.442021715650     2.179437145548

  Mulliken Charges: (a.u.)
   Center  Symbol    Alpha    Beta     Spin     Total
       1     H     0.39458  0.39458  0.00000  0.21084
       2     C     3.08966  3.08966  0.00000 -0.17931
       3     C     3.10688  3.10688  0.00000 -0.21376
       4     C     3.10647  3.10647  0.00000 -0.21294
       5     H     0.39459  0.39459  0.00000  0.21082
       6     C     3.08537  3.08537  0.00000 -0.17074
       7     H     0.39560  0.39560  0.00000  0.20881
       8     C     3.09068  3.09068  0.00000 -0.18136
       9     H     0.37593  0.37593  0.00000  0.24815
      10     C     3.07775  3.07775  0.00000 -0.15551
      11     H     0.38197  0.38197  0.00000  0.23607
      12     C     2.58917  2.58917  0.00000  0.82166
      13     O     4.32339  4.32339  0.00000 -0.64678
      14     O     4.26631  4.26631  0.00000 -0.53262
      15     C     3.09460  3.09460  0.00000 -0.18921
      16     H     0.41847  0.41847  0.00000  0.16306
      17     H     0.40473  0.40473  0.00000  0.19054
      18     H     0.40387  0.40387  0.00000  0.19227

   Total alpha = 36.00000, Total beta = 36.00000, Total charge =  0.00000
