  ==> Input File <==

--------------------------------------------------------------------------
set {
	reference rhf
	basis 6-31G*
}

set_num_threads( 4 )
memory 2 gb

molecule MOL {
0 1

O	 0.749854	 1.307668	 -0.000040
C	 0.576249	 0.131685	 -0.000108
C	 -0.766779	 -0.556801	 -0.000461
O	 1.568443	 -0.749345	 -0.000005
C	 -1.945214	 0.412366	 0.000161
H	 -0.796911	 -1.211249	 -0.867467
H	 -0.796854	 -1.212390	 0.865687
C	 -3.287791	 -0.317055	 0.000105
H	 -1.876087	 1.060580	 -0.866812
H	 -1.875822	 1.059691	 0.867761
H	 -3.394745	 -0.949193	 -0.877058
H	 -4.111778	 0.388953	 0.000015
H	 -3.394954	 -0.949187	 0.877259
C	 2.468062	 -0.704260	 -1.092644
H	 1.946533	 -0.883514	 -2.021847
H	 3.190316	 -1.485135	 -0.912503
H	 2.959609	 0.256766	 -1.140817

	symmetry c1
}
set optking {
	frozen_dihedral = ("
		14 4 2 1
	")
}

ee = optimize('scf')
oeprop('DIPOLE', 'QUADRUPOLE', 'MULLIKEN_CHARGES')
f=open( 'psi4out.xyz', 'w' )
f.write( "17  " )
f.write( str(ee) + "\n" )
f.write( MOL.save_string_xyz() )
f.close()
--------------------------------------------------------------------------

    Molecular point group: c1
  Charge       = 0
  Multiplicity = 1
  Basis Set: 6-31G*
  Basis Set:
  @DF-RHF Final Energy:  -344.89175253151126
    Total Energy =                       -344.8917525315114290
    Molecular point group: c1
  Basis Set: 6-31G*
  Basis Set:
  Basis Set: 6-31G*
  Basis Set:
  @DF-RHF Final Energy:  -344.88948599686529
    Total Energy =                       -344.8894859968654600
  Basis Set: 6-31G*
  Basis Set:
  Basis Set: 6-31G*
  Basis Set:
  @DF-RHF Final Energy:  -344.89266241525945
    Total Energy =                       -344.8926624152594513
  Basis Set: 6-31G*
  Basis Set:
  Basis Set: 6-31G*
  Basis Set:
  @DF-RHF Final Energy:  -344.89276167825540
    Total Energy =                       -344.8927616782554537
  Basis Set: 6-31G*
  Basis Set:
  Basis Set: 6-31G*
  Basis Set:
  @DF-RHF Final Energy:  -344.89276709879448
    Total Energy =                       -344.8927670987943657
  Basis Set: 6-31G*
  Basis Set:
  Charge       = 0
  Multiplicity = 1
  Basis Set: 6-31G*
  Basis Set:

    Orbital Energies (a.u.)
    -----------------------

    Doubly Occupied:

       1A    -20.589924     2A    -20.554263     3A    -11.374892
       4A    -11.287548     5A    -11.237896     6A    -11.223220
       7A    -11.215747     8A     -1.461211     9A     -1.365821
      10A     -1.080714    11A     -0.996021    12A     -0.945411
      13A     -0.831051    14A     -0.765207    15A     -0.699360
      16A     -0.677916    17A     -0.672856    18A     -0.634558
      19A     -0.610574    20A     -0.577518    21A     -0.566189
      22A     -0.533748    23A     -0.519774    24A     -0.497101
      25A     -0.489958    26A     -0.480058    27A     -0.453303
      28A     -0.435401

  @DF-RHF Final Energy:  -344.89276773632400

   => Energetics <=

    Nuclear Repulsion Energy =            311.8569355411038941
    One-Electron Energy =               -1087.9449214361518443
    Two-Electron Energy =                 431.1952181587242876
    DFT Exchange-Correlation Energy =       0.0000000000000000
    Empirical Dispersion Energy =           0.0000000000000000
    PCM Polarization Energy =               0.0000000000000000
    EFP Energy =                            0.0000000000000000
    Total Energy =                       -344.8927677363236626
    Molecular point group: c1
  Basis Set: 6-31G*
  Basis Set:

  -Total Gradient:
     Atom            X                  Y                   Z
    ------   -----------------  -----------------  -----------------
       1       -0.000561758454    -0.000077389593     0.008727057425
       2       -0.000947629817    -0.002034917027    -0.014627994543
       3        0.000031942227     0.000020703379    -0.000050071810
       4        0.005191874272     0.006550782166     0.009664764111
       5       -0.000009363644    -0.000008454617     0.000025310373
       6        0.000002864784    -0.000002856541     0.000023816885
       7        0.000007015587     0.000003703267     0.000015652653
       8       -0.000012084424     0.000008982358    -0.000008801396
       9       -0.000004955765     0.000002545960    -0.000003190259
      10        0.000003678358    -0.000004071664    -0.000004599798
      11        0.000000532469    -0.000002086557    -0.000000325834
      12       -0.000004336431    -0.000003479437    -0.000001636819
      13        0.000000685423     0.000003025591     0.000002970507
      14       -0.003709577550    -0.004435139825    -0.003767630821
      15        0.000003725645    -0.000012998702    -0.000000471287
      16       -0.000001047685     0.000005825302    -0.000000547468
      17        0.000008435007    -0.000014174062     0.000005698082

  **** Optimization is complete! (in 6 steps) ****
    Final optimized geometry and variables:
    Molecular point group: c1

    Geometry (in Angstrom), charge = 0, multiplicity = 1:

    O            0.805885464992     1.369254384098     0.124195314217
    C            0.626098780574     0.199162591721     0.103727682924
    C           -0.722429743351    -0.474436864056     0.130193352734
    O            1.635290144251    -0.690618304755     0.159856443783
    C           -1.896950653038     0.495987059414     0.202740550310
    H           -0.786428363235    -1.104859092064    -0.754469767712
    H           -0.720649732101    -1.158956573799     0.974402857897
    C           -3.241858118189    -0.228761180825     0.226703970824
    H           -1.856084829715     1.172321231301    -0.644502434567
    H           -1.793927165451     1.114274463745     1.088127472718
    H           -3.382759305621    -0.831611975662    -0.666219327739
    H           -4.062330707986     0.479322429188     0.278961319212
    H           -3.320242656691    -0.888791919964     1.086067768201
    C            2.600430575414    -0.634142877639    -0.872433156126
    H            2.154755444359    -0.916652779742    -1.819826164387
    H            3.368974269919    -1.345427992946    -0.612939916242
    H            3.026495193034     0.356396607236    -0.948377249540

  Mulliken Charges: (a.u.)
   Center  Symbol    Alpha    Beta     Spin     Total
       1     O     4.26407  4.26407  0.00000 -0.52814
       2     C     2.60856  2.60856  0.00000  0.78287
       3     C     3.20931  3.20931  0.00000 -0.41863
       4     O     4.31503  4.31503  0.00000 -0.63005
       5     C     3.15261  3.15261  0.00000 -0.30522
       6     H     0.40620  0.40620  0.00000  0.18760
       7     H     0.39824  0.39824  0.00000  0.20352
       8     C     3.24263  3.24263  0.00000 -0.48525
       9     H     0.41157  0.41157  0.00000  0.17685
      10     H     0.41006  0.41006  0.00000  0.17989
      11     H     0.42186  0.42186  0.00000  0.15628
      12     H     0.41487  0.41487  0.00000  0.17025
      13     H     0.42076  0.42076  0.00000  0.15847
      14     C     3.09476  3.09476  0.00000 -0.18953
      15     H     0.42054  0.42054  0.00000  0.15893
      16     H     0.40502  0.40502  0.00000  0.18995
      17     H     0.40390  0.40390  0.00000  0.19220

   Total alpha = 28.00000, Total beta = 28.00000, Total charge = -0.00000
