  ==> Input File <==

--------------------------------------------------------------------------
set {
	reference rhf
	basis cc-pvtz
}

set_num_threads( 4 )
memory 2 gb

molecule MOL {
0 1

H	 -3.941973	 0.934228	 -0.390224
C	 -3.240162	 0.342701	 0.161016
C	 -2.105997	 -0.000418	 -0.398703
H	 -3.485368	 0.047206	 1.162193
O	 -1.189946	 -0.765863	 0.237511
H	 -1.846458	 0.297311	 -1.398265
C	 0.026572	 -0.995256	 -0.379403
C	 1.057223	 0.049888	 -0.004615
H	 -0.054361	 -1.010670	 -1.459674
H	 0.397526	 -1.952058	 -0.044198
F	 1.927657	 -0.473548	 0.835290
F	 1.724076	 0.480400	 -1.054126
F	 0.513839	 1.091836	 0.576363

	symmetry c1
}
set optking {
	frozen_dihedral = ("
		11 8 7 9
	")
}

ee = optimize('scf')
oeprop('DIPOLE', 'QUADRUPOLE', 'MULLIKEN_CHARGES')
f=open( 'psi4out.xyz', 'w' )
f.write( "13  " )
f.write( str(ee) + "\n" )
f.write( MOL.save_string_xyz() )
f.close()
--------------------------------------------------------------------------

    Molecular point group: c1
  Charge       = 0
  Multiplicity = 1
  Basis Set: CC-PVTZ
  Basis Set:
  @DF-RHF Final Energy:  -527.73523934417756
    Total Energy =                       -527.7352393441776712
    Molecular point group: c1
  Basis Set: CC-PVTZ
  Basis Set:
  Basis Set: CC-PVTZ
  Basis Set:
  @DF-RHF Final Energy:  -527.73600269745543
    Total Energy =                       -527.7360026974554330
  Basis Set: CC-PVTZ
  Basis Set:
  Basis Set: CC-PVTZ
  Basis Set:
  @DF-RHF Final Energy:  -527.73623533469913
    Total Energy =                       -527.7362353346985628
  Basis Set: CC-PVTZ
  Basis Set:
  Basis Set: CC-PVTZ
  Basis Set:
  @DF-RHF Final Energy:  -527.73625714656578
    Total Energy =                       -527.7362571465655492
  Basis Set: CC-PVTZ
  Basis Set:
  Basis Set: CC-PVTZ
  Basis Set:
  @DF-RHF Final Energy:  -527.73626319728942
    Total Energy =                       -527.7362631972894178
  Basis Set: CC-PVTZ
  Basis Set:
  Basis Set: CC-PVTZ
  Basis Set:
  @DF-RHF Final Energy:  -527.73626680070356
    Total Energy =                       -527.7362668007039019
  Basis Set: CC-PVTZ
  Basis Set:
  Basis Set: CC-PVTZ
  Basis Set:
  @DF-RHF Final Energy:  -527.73626833534695
    Total Energy =                       -527.7362683353467219
  Basis Set: CC-PVTZ
  Basis Set:
  Charge       = 0
  Multiplicity = 1
  Basis Set: CC-PVTZ
  Basis Set:

    Orbital Energies (a.u.)
    -----------------------

    Doubly Occupied:

       1A    -26.341654     2A    -26.338923     3A    -26.338358
       4A    -20.603800     5A    -11.499578     6A    -11.319673
       7A    -11.298624     8A    -11.214400     9A     -1.750700
      10A     -1.647871    11A     -1.643393    12A     -1.444631
      13A     -1.084782    14A     -1.019355    15A     -0.932682
      16A     -0.843630    17A     -0.838791    18A     -0.827917
      19A     -0.795900    20A     -0.732408    21A     -0.722476
      22A     -0.702212    23A     -0.680086    24A     -0.668434
      25A     -0.661648    26A     -0.650004    27A     -0.635304
      28A     -0.587296    29A     -0.564922    30A     -0.529675
      31A     -0.516254    32A     -0.357147

  @DF-RHF Final Energy:  -527.73626886356055

   => Energetics <=

    Nuclear Repulsion Energy =            412.6677187113602940
    One-Electron Energy =               -1549.2229163088295536
    Two-Electron Energy =                 608.8189287339084785
    DFT Exchange-Correlation Energy =       0.0000000000000000
    Empirical Dispersion Energy =           0.0000000000000000
    PCM Polarization Energy =               0.0000000000000000
    EFP Energy =                            0.0000000000000000
    Total Energy =                       -527.7362688635607810
    Molecular point group: c1
  Basis Set: CC-PVTZ
  Basis Set:

  -Total Gradient:
     Atom            X                  Y                   Z
    ------   -----------------  -----------------  -----------------
       1        0.000003428648     0.000006713228     0.000004791389
       2        0.000011441170     0.000003133357     0.000005607827
       3        0.000030663246    -0.000012130238    -0.000011817668
       4        0.000003699539     0.000001486794     0.000001437932
       5       -0.000056850848    -0.000030212543     0.000029941187
       6        0.000005717604     0.000003671441    -0.000002529422
       7       -0.002387351793     0.002674639291    -0.000693819354
       8       -0.001612794830     0.000655158420     0.002930529910
       9        0.002419791865    -0.002413199057    -0.000051997860
      10       -0.000024141257     0.000014289532     0.000007038683
      11        0.001693236017    -0.000946132588    -0.002161847982
      12       -0.000034613371     0.000003427902    -0.000009035455
      13       -0.000052225991     0.000039154461    -0.000048299190

  **** Optimization is complete! (in 8 steps) ****
    Final optimized geometry and variables:
    Molecular point group: c1

    Geometry (in Angstrom), charge = 0, multiplicity = 1:

    H           -3.933054337284     0.970471363787    -0.360316489615
    C           -3.266861682036     0.315075007994     0.162130062979
    C           -2.094908014052     0.039601625788    -0.355325678514
    H           -3.577041706613    -0.096883055973     1.102330481225
    O           -1.215213027970    -0.790870658144     0.249369064620
    H           -1.772199723534     0.453037603910    -1.293985307599
    C            0.005080350851    -1.005439477110    -0.360608780749
    C            1.059822902353     0.054027875753    -0.010052658545
    H           -0.069176102970    -1.060413140417    -1.439053969725
    H            0.378055023398    -1.953688912661    -0.006725006205
    F            1.938909854576    -0.407514760702     0.854187007596
    F            1.738649408619     0.395476732679    -1.090738275254
    F            0.535597975306     1.144312604244     0.488731961800

  Mulliken Charges: (a.u.)
   Center  Symbol    Alpha    Beta     Spin     Total
       1     H     0.42540  0.42540  0.00000  0.14919
       2     C     3.19633  3.19633  0.00000 -0.39266
       3     C     2.95660  2.95660  0.00000  0.08679
       4     H     0.42504  0.42504  0.00000  0.14992
       5     O     4.13991  4.13991  0.00000 -0.27981
       6     H     0.43472  0.43472  0.00000  0.13056
       7     C     3.03490  3.03490  0.00000 -0.06979
       8     C     2.67127  2.67127  0.00000  0.65745
       9     H     0.45430  0.45430  0.00000  0.09140
      10     H     0.43588  0.43588  0.00000  0.12823
      11     F     4.60947  4.60947  0.00000 -0.21893
      12     F     4.61357  4.61357  0.00000 -0.22713
      13     F     4.60261  4.60261  0.00000 -0.20522

   Total alpha = 32.00000, Total beta = 32.00000, Total charge = -0.00000
