  ==> Input File <==

--------------------------------------------------------------------------
set {
	reference rhf
	basis cc-pvtz
}

set_num_threads( 4 )
memory 2 gb

molecule MOL {
0 1

H	 -0.000342	 -0.223902	 -3.352295
C	 -0.027146	 0.371068	 -2.446756
C	 0.024493	 -0.518541	 -1.216015
H	 -0.932586	 0.964979	 -2.449855
H	 0.819708	 1.049865	 -2.473332
N	 -0.042516	 0.263377	 -0.000000
H	 -0.822211	 -1.197105	 -1.225584
H	 0.921114	 -1.142847	 -1.255206
C	 0.024493	 -0.518541	 1.216015
H	 0.682568	 0.950412	 -0.000000
C	 -0.967316	 -1.669298	 1.186575
H	 1.031521	 -0.912443	 1.306475
H	 -0.150261	 0.090226	 2.107131
H	 -0.780808	 -2.311329	 0.334770
H	 -0.893793	 -2.263112	 2.090282
H	 -1.987038	 -1.303759	 1.114579

	symmetry c1
}
set optking {
	frozen_dihedral = ("
		12 9 6 3
	")
}

ee = optimize('scf')
oeprop('DIPOLE', 'QUADRUPOLE', 'MULLIKEN_CHARGES')
f=open( 'psi4out.xyz', 'w' )
f.write( "16  " )
f.write( str(ee) + "\n" )
f.write( MOL.save_string_xyz() )
f.close()
--------------------------------------------------------------------------

    Molecular point group: c1
  Charge       = 0
  Multiplicity = 1
  Basis Set: CC-PVTZ
  Basis Set:
  @DF-RHF Final Energy:  -212.38650047027045
    Total Energy =                       -212.3865004702704482
    Molecular point group: c1
  Basis Set: CC-PVTZ
  Basis Set:
  Basis Set: CC-PVTZ
  Basis Set:
  @DF-RHF Final Energy:  -212.38891464764157
    Total Energy =                       -212.3889146476415704
  Basis Set: CC-PVTZ
  Basis Set:
  Basis Set: CC-PVTZ
  Basis Set:
  @DF-RHF Final Energy:  -212.39090237772567
    Total Energy =                       -212.3909023777253537
  Basis Set: CC-PVTZ
  Basis Set:
  Basis Set: CC-PVTZ
  Basis Set:
  @DF-RHF Final Energy:  -212.39111849723480
    Total Energy =                       -212.3911184972349133
  Basis Set: CC-PVTZ
  Basis Set:
  Basis Set: CC-PVTZ
  Basis Set:
  @DF-RHF Final Energy:  -212.39113631803505
    Total Energy =                       -212.3911363180351373
  Basis Set: CC-PVTZ
  Basis Set:
  Basis Set: CC-PVTZ
  Basis Set:
  @DF-RHF Final Energy:  -212.39113736850732
    Total Energy =                       -212.3911373685075432
  Basis Set: CC-PVTZ
  Basis Set:
  Charge       = 0
  Multiplicity = 1
  Basis Set: CC-PVTZ
  Basis Set:

    Orbital Energies (a.u.)
    -----------------------

    Doubly Occupied:

       1A    -15.527316     2A    -11.239445     3A    -11.237976
       4A    -11.206990     5A    -11.205720     6A     -1.204123
       7A     -1.025648     8A     -0.969057     9A     -0.851413
      10A     -0.796185    11A     -0.661927    12A     -0.627183
      13A     -0.617563    14A     -0.589702    15A     -0.538214
      16A     -0.520307    17A     -0.512720    18A     -0.493798
      19A     -0.484408    20A     -0.470761    21A     -0.357469

  @DF-RHF Final Energy:  -212.39113743190393

   => Energetics <=

    Nuclear Repulsion Energy =            191.9119823436560068
    One-Electron Energy =                -666.3303918443489238
    Two-Electron Energy =                 262.0272720687889318
    DFT Exchange-Correlation Energy =       0.0000000000000000
    Empirical Dispersion Energy =           0.0000000000000000
    PCM Polarization Energy =               0.0000000000000000
    EFP Energy =                            0.0000000000000000
    Total Energy =                       -212.3911374319039851
    Molecular point group: c1
  Basis Set: CC-PVTZ
  Basis Set:

  -Total Gradient:
     Atom            X                  Y                   Z
    ------   -----------------  -----------------  -----------------
       1        0.000001565158    -0.000002818312    -0.000000409177
       2        0.000004807387     0.000001286987     0.000006522897
       3       -0.003161888596    -0.000447475324     0.000041927985
       4        0.000002243845    -0.000003017736     0.000003432462
       5        0.000000072802     0.000003083283    -0.000001603837
       6        0.004809451831     0.001629277210     0.000518269361
       7        0.000002424174    -0.000005048189     0.000002642351
       8        0.000002457506     0.000006115710    -0.000001920580
       9       -0.002640887533    -0.004538903647    -0.002608280904
      10        0.000019032849    -0.000011914765    -0.000008722222
      11        0.000008610378    -0.000004014529     0.000000152971
      12        0.000948012440     0.003371710609     0.002051274082
      13       -0.000001338095     0.000001549322    -0.000002601063
      14       -0.000000010215    -0.000001893076    -0.000002770323
      15       -0.000000702896    -0.000003235439     0.000001363059
      16        0.000006148963     0.000005297896     0.000000722940

  **** Optimization is complete! (in 7 steps) ****
    Final optimized geometry and variables:
    Molecular point group: c1

    Geometry (in Angstrom), charge = 0, multiplicity = 1:

    H            0.242779305055     0.325357520942    -3.132874600844
    C            0.210445370002     0.870274639100    -2.196710197906
    C            0.192924346750    -0.087445824671    -1.016604650565
    H           -0.673936731887     1.495540099918    -2.192148675704
    H            1.080829473966     1.518343968360    -2.162207830223
    N            0.105655602897     0.641179968376     0.231513353410
    H           -0.668218654900    -0.737334440955    -1.103935167920
    H            1.076513896470    -0.731142065886    -1.061435663102
    C            0.231173464729    -0.133908245510     1.452117094286
    H            0.770665360921     1.383918482174     0.239468938269
    C           -0.764182952219    -1.278711523445     1.555143851804
    H            1.247608962259    -0.509196346207     1.599177879838
    H            0.050095755382     0.548219982266     2.276117790944
    H           -0.563223946107    -2.064096489625     0.837441171241
    H           -0.713553084278    -1.719738096896     2.543781848109
    H           -1.773977750582    -0.919838677666     1.393335200574

  Mulliken Charges: (a.u.)
   Center  Symbol    Alpha    Beta     Spin     Total
       1     H     0.45324  0.45324  0.00000  0.09352
       2     C     3.14479  3.14479  0.00000 -0.28958
       3     C     3.02142  3.02142  0.00000 -0.04285
       4     H     0.44933  0.44933  0.00000  0.10135
       5     H     0.45928  0.45928  0.00000  0.08144
       6     N     3.63880  3.63880  0.00000 -0.27759
       7     H     0.45703  0.45703  0.00000  0.08593
       8     H     0.47448  0.47448  0.00000  0.05103
       9     C     3.03050  3.03050  0.00000 -0.06100
      10     H     0.44213  0.44213  0.00000  0.11573
      11     C     3.15280  3.15280  0.00000 -0.30561
      12     H     0.46958  0.46958  0.00000  0.06083
      13     H     0.45567  0.45567  0.00000  0.08865
      14     H     0.45360  0.45360  0.00000  0.09279
      15     H     0.44791  0.44791  0.00000  0.10418
      16     H     0.44942  0.44942  0.00000  0.10116

   Total alpha = 21.00000, Total beta = 21.00000, Total charge = -0.00000
