                              Psi4 1.0.54 Driver

  ==> Input File <==

--------------------------------------------------------------------------
set {
	reference rhf
	basis cc-pvtz
}

set_num_threads( 4 )
memory 2 gb

molecule MOL {
0 1

O	 3.219313	 0.959291	 -0.614106
C	 2.698710	 0.058177	 -0.050237
C	 1.246364	 -0.005813	 0.348416
O	 3.344101	 -1.038700	 0.312317
C	 0.453207	 1.232821	 -0.049003
H	 0.839270	 -0.907818	 -0.092281
H	 1.216683	 -0.160521	 1.422434
C	 -0.998367	 1.217982	 0.432195
H	 0.481498	 1.345443	 -1.127236
H	 0.951413	 2.105557	 0.354893
C	 -1.882951	 0.151251	 -0.211235
H	 -1.429490	 2.193659	 0.228843
H	 -1.019755	 1.099323	 1.513279
C	 -3.342450	 0.243269	 0.226009
H	 -1.826223	 0.246578	 -1.293162
H	 -1.508033	 -0.839650	 0.027695
C	 -4.234517	 -0.821434	 -0.405970
H	 -3.730149	 1.228245	 -0.022691
H	 -3.398860	 0.159952	 1.308941
C	 -4.303364	 -0.721048	 -1.926154
H	 -3.870295	 -1.806344	 -0.126657
H	 -5.237022	 -0.740271	 0.005433
H	 -4.944043	 -1.490025	 -2.342314
H	 -3.320101	 -0.833822	 -2.370658
H	 -4.696669	 0.241038	 -2.237457
C	 4.720529	 -1.114346	 0.001449
H	 4.874321	 -1.055557	 -1.065852
H	 5.057824	 -2.067950	 0.373977
H	 5.264321	 -0.313596	 0.480350

	symmetry c1
}
set optking {
	frozen_dihedral = ("
		21 17 14 11
	")
}

ee,wfn = optimize('scf', return_wfn=True)
oeprop( wfn, 'DIPOLE', 'QUADRUPOLE', 'MULLIKEN_CHARGES')
f=open( 'psi4out.xyz', 'w' )
f.write( "29  " )
f.write( str(ee) + "\n" )
f.write( MOL.save_string_xyz() )
f.close()
--------------------------------------------------------------------------

    Molecular point group: c1
  Charge       = 0
  Multiplicity = 1
  Basis Set: CC-PVTZ
  Basis Set:
  @DF-RHF Final Energy:  -501.22251987951881
    Total Energy =                       -501.2225198795183587
    Molecular point group: c1
  Basis Set: CC-PVTZ
  Basis Set:
  Basis Set: CC-PVTZ
  Basis Set:
  @DF-RHF Final Energy:  -501.22193282366584
    Total Energy =                       -501.2219328236664069
  Basis Set: CC-PVTZ
  Basis Set:
  Basis Set: CC-PVTZ
  Basis Set:
  @DF-RHF Final Energy:  -501.22315309350745
    Total Energy =                       -501.2231530935061983
  Basis Set: CC-PVTZ
  Basis Set:
  Basis Set: CC-PVTZ
  Basis Set:
  @DF-RHF Final Energy:  -501.22320551696760
    Total Energy =                       -501.2232055169670275
  Basis Set: CC-PVTZ
  Basis Set:
  @DF-RHF Final Energy:  -501.22279116980644
    Total Energy =                       -501.2227911698071239
  Basis Set: CC-PVTZ
  Basis Set:
  @DF-RHF Final Energy:  -501.22322255671531
    Total Energy =                       -501.2232225567149726
  Basis Set: CC-PVTZ
  Basis Set:
  Basis Set: CC-PVTZ
  Basis Set:
  @DF-RHF Final Energy:  -501.22322425066602
    Total Energy =                       -501.2232242506662487
  Basis Set: CC-PVTZ
  Basis Set:
  Basis Set: CC-PVTZ
  Basis Set:
  @DF-RHF Final Energy:  -501.22322530466602
    Total Energy =                       -501.2232253046660162
  Basis Set: CC-PVTZ
  Basis Set:
  Charge       = 0
  Multiplicity = 1
  Basis Set: CC-PVTZ
  Basis Set:

    Orbital Energies (a.u.)
    -----------------------

    Doubly Occupied:

       1A    -20.595993     2A    -20.533843     3A    -11.364253
       4A    -11.278251     5A    -11.232944     6A    -11.216988
       7A    -11.215458     8A    -11.214328     9A    -11.213304
      10A    -11.212544    11A    -11.206870    12A     -1.471887
      13A     -1.365472    14A     -1.099305    15A     -1.067468
      16A     -1.019208    17A     -0.976702    18A     -0.928968
      19A     -0.870920    20A     -0.803570    21A     -0.780018
      22A     -0.765632    23A     -0.702643    24A     -0.685492
      25A     -0.676009    26A     -0.645879    27A     -0.626524
      28A     -0.610651    29A     -0.602608    30A     -0.585210
      31A     -0.559561    32A     -0.555273    33A     -0.539573
      34A     -0.526856    35A     -0.518619    36A     -0.505687
      37A     -0.502917    38A     -0.477698    39A     -0.473101
      40A     -0.460713    41A     -0.459794    42A     -0.453415
      43A     -0.444217    44A     -0.437685

  @DF-RHF Final Energy:  -501.22322629949986

   => Energetics <=

    Nuclear Repulsion Energy =            616.9228392077789067
    One-Electron Energy =               -1905.3240323688364697
    Two-Electron Energy =                 787.1779668615589571
    DFT Exchange-Correlation Energy =       0.0000000000000000
    Empirical Dispersion Energy =           0.0000000000000000
    PCM Polarization Energy =               0.0000000000000000
    EFP Energy =                            0.0000000000000000
    Total Energy =                       -501.2232262994986058
    Molecular point group: c1
  Basis Set: CC-PVTZ
  Basis Set:

  -Total Gradient:
     Atom            X                  Y                   Z
    ------   -----------------  -----------------  -----------------
       1        0.000005165261    -0.000019622311     0.000010082277
       2       -0.000008846861     0.000015749964    -0.000014025087
       3       -0.000003090833     0.000001950426    -0.000002168994
       4        0.000004415293    -0.000001936156     0.000001242458
       5       -0.000000960877     0.000002146250     0.000000245353
       6        0.000002788252     0.000001883367     0.000002282667
       7        0.000000267483     0.000002491984     0.000000744658
       8       -0.000000631242    -0.000000052789    -0.000013303685
       9        0.000003565861     0.000000273422    -0.000002115334
      10        0.000001599593    -0.000002668716    -0.000000842235
      11       -0.000069987019     0.000253520502    -0.000264061245
      12       -0.000006891840    -0.000002453155     0.000000740139
      13       -0.000003232715    -0.000005345480    -0.000004771831
      14        0.000027451993    -0.000362758886     0.000505232839
      15        0.000010095523     0.000004284316     0.000012615128
      16        0.000003670652    -0.000000488666    -0.000001302134
      17        0.000357679579     0.000126967696    -0.000654423494
      18       -0.000003692335     0.000001202511     0.000003242460
      19        0.000000875772     0.000003656342    -0.000001557022
      20       -0.000010834679     0.000000380383     0.000000748717
      21       -0.000308953916    -0.000015777028     0.000431933384
      22       -0.000002115842    -0.000004725053    -0.000003959423
      23       -0.000001206500     0.000001941076    -0.000004428051
      24       -0.000004758357    -0.000003084874     0.000001404766
      25        0.000002031425     0.000000666522    -0.000002501370
      26        0.000002840402     0.000002169044    -0.000000684536
      27       -0.000000283913     0.000000367962     0.000000072329
      28        0.000003004574    -0.000000685607    -0.000000262450
      29        0.000000035267    -0.000000053045    -0.000000180285

  **** Optimization is complete! (in 9 steps) ****
    Final optimized geometry and variables:
    Molecular point group: c1

    Geometry (in Angstrom), charge = 0, multiplicity = 1:

    O            3.100595890673     1.038249252639    -0.262489532385
    C            2.576643123839     0.068173502038     0.168088888602
    C            1.118538102251    -0.054126408815     0.530582265001
    O            3.223072196760    -1.064595101293     0.392018281623
    C            0.324387498559     1.223701567145     0.290244669093
    H            0.723712809101    -0.890090844089    -0.034139022485
    H            1.072586923264    -0.352182698676     1.573347960593
    C           -1.134546909259     1.138198672498     0.740638113199
    H            0.369510322622     1.480698648697    -0.762367856153
    H            0.810575655290     2.036064284028     0.816325376304
    C           -2.001608256506     0.162036248103    -0.053744542107
    H           -1.569213529082     2.130202804504     0.660915319253
    H           -1.172585876302     0.877394355087     1.795938972168
    C           -3.469425832323     0.204762587684     0.368459570311
    H           -1.912670273899     0.395336677000    -1.110280655428
    H           -1.631722910289    -0.852202937812     0.069342656937
    C           -4.369503110264    -0.822541685007    -0.320123756758
    H           -3.863452971785     1.202099320315     0.186809390164
    H           -3.528275501479     0.047836381483     1.442103970093
    C           -4.497118704441    -0.652206892856    -1.831779012724
    H           -4.008046395242    -1.823089336485    -0.097059620257
    H           -5.359391562368    -0.757400476183     0.121340587247
    H           -5.210266091705    -1.359905356928    -2.238743248839
    H           -3.554051836013    -0.813130429764    -2.339851258419
    H           -4.842662059659     0.345459755966    -2.083518179973
    C            4.604637121251    -1.092559631019     0.096287150403
    H            4.774668322566    -0.891548600693    -0.951057640057
    H            4.942105913908    -2.085866921008     0.344040982167
    H            5.135904251890    -0.360456620195     0.686239696554

  Mulliken Charges: (a.u.)
   Center  Symbol    Alpha    Beta     Spin     Total
       1     O     4.19697  4.19697  0.00000 -0.39393
       2     C     2.80488  2.80488  0.00000  0.39023
       3     C     3.10156  3.10156  0.00000 -0.20312
       4     O     4.14723  4.14723  0.00000 -0.29445
       5     C     3.09245  3.09245  0.00000 -0.18489
       6     H     0.43910  0.43910  0.00000  0.12179
       7     H     0.43988  0.43988  0.00000  0.12023
       8     C     3.10294  3.10294  0.00000 -0.20589
       9     H     0.44632  0.44632  0.00000  0.10736
      10     H     0.43963  0.43963  0.00000  0.12074
      11     C     3.09686  3.09686  0.00000 -0.19373
      12     H     0.44534  0.44534  0.00000  0.10931
      13     H     0.45303  0.45303  0.00000  0.09395
      14     C     3.09504  3.09504  0.00000 -0.19008
      15     H     0.45052  0.45052  0.00000  0.09896
      16     H     0.45383  0.45383  0.00000  0.09234
      17     C     3.08974  3.08974  0.00000 -0.17949
      18     H     0.45239  0.45239  0.00000  0.09523
      19     H     0.44966  0.44966  0.00000  0.10069
      20     C     3.15306  3.15306  0.00000 -0.30611
      21     H     0.45491  0.45491  0.00000  0.09019
      22     H     0.44856  0.44856  0.00000  0.10288
      23     H     0.44613  0.44613  0.00000  0.10775
      24     H     0.45362  0.45362  0.00000  0.09277
      25     H     0.45438  0.45438  0.00000  0.09125
      26     C     3.03813  3.03813  0.00000 -0.07626
      27     H     0.45435  0.45435  0.00000  0.09129
      28     H     0.44528  0.44528  0.00000  0.10945
      29     H     0.45423  0.45423  0.00000  0.09155

   Total alpha = 44.00000, Total beta = 44.00000, Total charge = -0.00000

*** Psi4 exiting successfully. Buy a developer a beer!
