                              Psi4 1.0.54 Driver

  ==> Input File <==

--------------------------------------------------------------------------
set {
	reference rhf
	basis cc-pvtz
}

set_num_threads( 4 )
memory 2 gb

molecule MOL {
0 1

H	 -3.941973	 0.934228	 -0.390224
C	 -3.240162	 0.342701	 0.161016
C	 -2.105997	 -0.000418	 -0.398703
H	 -3.485368	 0.047206	 1.162193
O	 -1.189946	 -0.765863	 0.237511
H	 -1.846458	 0.297311	 -1.398265
C	 0.026572	 -0.995256	 -0.379403
C	 1.057223	 0.049888	 -0.004615
H	 -0.054361	 -1.010670	 -1.459674
H	 0.397526	 -1.952058	 -0.044198
F	 2.255681	 -0.368813	 -0.358829
F	 0.838400	 1.195751	 -0.613402
F	 1.077068	 0.282160	 1.285390

	symmetry c1
}
set optking {
	frozen_dihedral = ("
		11 8 7 9
	")
}

ee,wfn = optimize('scf', return_wfn=True)
oeprop( wfn, 'DIPOLE', 'QUADRUPOLE', 'MULLIKEN_CHARGES')
f=open( 'psi4out.xyz', 'w' )
f.write( "13  " )
f.write( str(ee) + "\n" )
f.write( MOL.save_string_xyz() )
f.close()
--------------------------------------------------------------------------

    Molecular point group: c1
  Charge       = 0
  Multiplicity = 1
  Basis Set: CC-PVTZ
  Basis Set:
  @DF-RHF Final Energy:  -527.74131601840691
    Total Energy =                       -527.7413160184069056
    Molecular point group: c1
  Basis Set: CC-PVTZ
  Basis Set:
  Basis Set: CC-PVTZ
  Basis Set:
  @DF-RHF Final Energy:  -527.74137403914665
    Total Energy =                       -527.7413740391466490
  Basis Set: CC-PVTZ
  Basis Set:
  Basis Set: CC-PVTZ
  Basis Set:
  @DF-RHF Final Energy:  -527.74139637542373
    Total Energy =                       -527.7413963754238466
  Basis Set: CC-PVTZ
  Basis Set:
  Basis Set: CC-PVTZ
  Basis Set:
  @DF-RHF Final Energy:  -527.74140165705433
    Total Energy =                       -527.7414016570538706
  Basis Set: CC-PVTZ
  Basis Set:
  Basis Set: CC-PVTZ
  Basis Set:
  @DF-RHF Final Energy:  -527.74140578113793
    Total Energy =                       -527.7414057811380417
  Basis Set: CC-PVTZ
  Basis Set:
  Basis Set: CC-PVTZ
  Basis Set:
  @DF-RHF Final Energy:  -527.74140746698822
    Total Energy =                       -527.7414074669887896
  Basis Set: CC-PVTZ
  Basis Set:
  Basis Set: CC-PVTZ
  Basis Set:
  @DF-RHF Final Energy:  -527.74140857773352
    Total Energy =                       -527.7414085777337505
  Basis Set: CC-PVTZ
  Basis Set:
  Charge       = 0
  Multiplicity = 1
  Basis Set: CC-PVTZ
  Basis Set:

    Orbital Energies (a.u.)
    -----------------------

    Doubly Occupied:

       1A    -26.341483     2A    -26.341178     3A    -26.337139
       4A    -20.603492     5A    -11.497893     6A    -11.320194
       7A    -11.298430     8A    -11.214159     9A     -1.750351
      10A     -1.647135    11A     -1.644788    12A     -1.444126
      13A     -1.087419    14A     -1.020577    15A     -0.932150
      16A     -0.843288    17A     -0.839491    18A     -0.827104
      19A     -0.798885    20A     -0.727539    21A     -0.719177
      22A     -0.702885    23A     -0.682039    24A     -0.667965
      25A     -0.661943    26A     -0.650676    27A     -0.640983
      28A     -0.587910    29A     -0.566583    30A     -0.527973
      31A     -0.518176    32A     -0.356990

  @DF-RHF Final Energy:  -527.74140888598913

   => Energetics <=

    Nuclear Repulsion Energy =            413.9396370654122279
    One-Electron Energy =               -1551.7618462030930004
    Two-Electron Energy =                 610.0808002516910165
    DFT Exchange-Correlation Energy =       0.0000000000000000
    Empirical Dispersion Energy =           0.0000000000000000
    PCM Polarization Energy =               0.0000000000000000
    EFP Energy =                            0.0000000000000000
    Total Energy =                       -527.7414088859898129
    Molecular point group: c1
  Basis Set: CC-PVTZ
  Basis Set:

  -Total Gradient:
     Atom            X                  Y                   Z
    ------   -----------------  -----------------  -----------------
       1        0.000000500147     0.000000587643    -0.000000019538
       2        0.000011850271    -0.000015220618     0.000003778232
       3       -0.000020837493     0.000045412130    -0.000030819476
       4       -0.000004493998     0.000001155915    -0.000001276652
       5        0.000070067112    -0.000036615291    -0.000020403475
       6        0.000002196351    -0.000002185802     0.000010109464
       7        0.002749442165    -0.002750492069     0.000545633616
       8       -0.000883147968     0.001786967203    -0.002873992711
       9       -0.002226845114     0.002030594206     0.000138819653
      10        0.000010452409    -0.000010435232    -0.000003765230
      11        0.000326872300    -0.001103081127     0.002233896024
      12       -0.000027230170     0.000050716910    -0.000016421589
      13       -0.000008826014     0.000002596133     0.000014461690

  **** Optimization is complete! (in 8 steps) ****
    Final optimized geometry and variables:
    Molecular point group: c1

    Geometry (in Angstrom), charge = 0, multiplicity = 1:

    H           -3.895515838339     0.972670231258    -0.381175422733
    C           -3.201663320152     0.367257304443     0.165112722487
    C           -2.088322065447    -0.016455087301    -0.409959255181
    H           -3.438540731127     0.089308849750     1.173295893906
    O           -1.187647976201    -0.808012670491     0.215982780784
    H           -1.837059529602     0.263779943065    -1.416957150667
    C            0.042378023853    -1.014141110944    -0.384671130204
    C            1.047606148722     0.056537678884    -0.002891988524
    H           -0.040108161667    -1.019717395682    -1.465124411522
    H            0.425095263903    -1.963421824694    -0.044356111270
    F            2.256107712845    -0.325187465229    -0.364328788921
    F            0.794067445892     1.204977354866    -0.594442063730
    F            1.068656426691     0.271678328329     1.289604339437

  Mulliken Charges: (a.u.)
   Center  Symbol    Alpha    Beta     Spin     Total
       1     H     0.42512  0.42512  0.00000  0.14976
       2     C     3.19640  3.19640  0.00000 -0.39280
       3     C     2.96069  2.96069  0.00000  0.07862
       4     H     0.42448  0.42448  0.00000  0.15104
       5     O     4.14371  4.14371  0.00000 -0.28742
       6     H     0.43443  0.43443  0.00000  0.13113
       7     C     3.01921  3.01921  0.00000 -0.03842
       8     C     2.67647  2.67647  0.00000  0.64706
       9     H     0.45555  0.45555  0.00000  0.08890
      10     H     0.43434  0.43434  0.00000  0.13132
      11     F     4.61211  4.61211  0.00000 -0.22422
      12     F     4.61134  4.61134  0.00000 -0.22268
      13     F     4.60614  4.60614  0.00000 -0.21229

   Total alpha = 32.00000, Total beta = 32.00000, Total charge = -0.00000

*** Psi4 exiting successfully. Buy a developer a beer!
