  ==> Input File <==

--------------------------------------------------------------------------
set {
	reference rhf
	basis 6-31G*
}

set_num_threads( 4 )
memory 2 gb

molecule MOL {
0 1

H	 -2.646374	 -0.642757	 1.268656
C	 -2.083525	 -0.384536	 0.393091
O	 -0.807605	 -0.127164	 0.768327
F	 -2.118945	 -1.383102	 -0.486752
F	 -2.621877	 0.670592	 -0.209486
C	 0.084052	 0.273579	 -0.209957
C	 -0.692676	 0.342248	 -1.518444
Cl	 1.430706	 -0.869228	 -0.343107
H	 0.499624	 1.246104	 -0.011792
F	 0.093234	 0.732263	 -2.499449
F	 -1.659821	 1.228826	 -1.391766
F	 -1.226310	 -0.811441	 -1.838147

	symmetry c1
}
set optking {
	frozen_dihedral = ("
		9 6 3 2
	")
}

ee = optimize('scf')
oeprop('DIPOLE', 'QUADRUPOLE', 'MULLIKEN_CHARGES')
f=open( 'psi4out.xyz', 'w' )
f.write( "12  " )
f.write( str(ee) + "\n" )
f.write( MOL.save_string_xyz() )
f.close()
--------------------------------------------------------------------------

    Molecular point group: c1
  Charge       = 0
  Multiplicity = 1
  Basis Set: 6-31G*
  Basis Set:
  @DF-RHF Final Energy: -1146.07169576697743
    Total Energy =                      -1146.0716957669774274
    Molecular point group: c1
  Basis Set: 6-31G*
  Basis Set:
  Basis Set: 6-31G*
  Basis Set:
  @DF-RHF Final Energy: -1146.17006387560605
    Total Energy =                      -1146.1700638756067292
  Basis Set: 6-31G*
  Basis Set:
  Basis Set: 6-31G*
  Basis Set:
  @DF-RHF Final Energy: -1146.22647097503454
    Total Energy =                      -1146.2264709750345446
  Basis Set: 6-31G*
  Basis Set:
  Basis Set: 6-31G*
  Basis Set:
  @DF-RHF Final Energy: -1146.25922749588472
    Total Energy =                      -1146.2592274958847156
  Basis Set: 6-31G*
  Basis Set:
  @DF-RHF Final Energy: -1146.27579226607077
    Total Energy =                      -1146.2757922660712211
  @DF-RHF Final Energy: -1146.28630544202656
    Total Energy =                      -1146.2863054420267872
  @DF-RHF Final Energy: -1146.29256169886003
    Total Energy =                      -1146.2925616988593447
  @DF-RHF Final Energy: -1146.29560693688609
    Total Energy =                      -1146.2956069368865428
  @DF-RHF Final Energy: -1146.29679370420877
    Total Energy =                      -1146.2967937042080848
  @DF-RHF Final Energy: -1146.29711719715169
    Total Energy =                      -1146.2971171971514650
  @DF-RHF Final Energy: -1146.29717714375602
    Total Energy =                      -1146.2971771437555617
  @DF-RHF Final Energy: -1146.29719709284245
    Total Energy =                      -1146.2971970928424525
  @DF-RHF Final Energy: -1146.29724226786720
    Total Energy =                      -1146.2972422678669773
  @DF-RHF Final Energy: -1146.29743139883385
    Total Energy =                      -1146.2974313988338508
  @DF-RHF Final Energy: -1146.29763918259596
    Total Energy =                      -1146.2976391825959581
  @DF-RHF Final Energy: -1146.29791032992898
    Total Energy =                      -1146.2979103299276176
  @DF-RHF Final Energy: -1146.29817400712273
    Total Energy =                      -1146.2981740071222703
  @DF-RHF Final Energy: -1146.29825901138747
    Total Energy =                      -1146.2982590113874721
  @DF-RHF Final Energy: -1146.29830010410342
    Total Energy =                      -1146.2983001041029638
  @DF-RHF Final Energy: -1146.29833230361783
    Total Energy =                      -1146.2983323036173715
  @DF-RHF Final Energy: -1146.29836234563481
    Total Energy =                      -1146.2983623456352689
  Basis Set: 6-31G*
  Basis Set:
  @DF-RHF Final Energy: -1146.29839442958223
    Total Energy =                      -1146.2983944295822312
  Basis Set: 6-31G*
  Basis Set:
  Basis Set: 6-31G*
  Basis Set:
  @DF-RHF Final Energy: -1146.29841247251125
    Total Energy =                      -1146.2984124725116999
  Basis Set: 6-31G*
  Basis Set:
  Basis Set: 6-31G*
  Basis Set:
  @DF-RHF Final Energy: -1146.29841416118575
    Total Energy =                      -1146.2984141611864288
  Basis Set: 6-31G*
  Basis Set:
  Charge       = 0
  Multiplicity = 1
  Basis Set: 6-31G*
  Basis Set:

    Orbital Energies (a.u.)
    -----------------------

    Doubly Occupied:

       1A   -104.843391     2A    -26.363654     3A    -26.360975
       4A    -26.359497     5A    -26.343550     6A    -26.335835
       7A    -20.642576     8A    -11.533681     9A    -11.487603
      10A    -11.406189    11A    -10.578269    12A     -8.047622
      13A     -8.044063    14A     -8.043959    15A     -1.765181
      16A     -1.711448    17A     -1.661357    18A     -1.658538
      19A     -1.633521    20A     -1.474841    21A     -1.180848
      22A     -1.044796    23A     -0.998491    24A     -0.917607
      25A     -0.860859    26A     -0.854456    27A     -0.849981
      28A     -0.826217    29A     -0.810322    30A     -0.757236
      31A     -0.732896    32A     -0.729476    33A     -0.708023
      34A     -0.687756    35A     -0.679880    36A     -0.674970
      37A     -0.664050    38A     -0.658828    39A     -0.650861
      40A     -0.643167    41A     -0.584920    42A     -0.554576
      43A     -0.521580    44A     -0.477542    45A     -0.467607

  @DF-RHF Final Energy: -1146.29841439742972

   => Energetics <=

    Nuclear Repulsion Energy =            753.9791650816080164
    One-Electron Energy =               -3090.8897672816892737
    Two-Electron Energy =                1190.6121878026510785
    DFT Exchange-Correlation Energy =       0.0000000000000000
    Empirical Dispersion Energy =           0.0000000000000000
    PCM Polarization Energy =               0.0000000000000000
    EFP Energy =                            0.0000000000000000
    Total Energy =                      -1146.2984143974304061
    Molecular point group: c1
  Basis Set: 6-31G*
  Basis Set:

  -Total Gradient:
     Atom            X                  Y                   Z
    ------   -----------------  -----------------  -----------------
       1       -0.000009691724     0.000000049840    -0.000002906537
       2        0.000092302931    -0.000332374780    -0.000033517058
       3       -0.000081064542     0.000487936764     0.000155235558
       4       -0.000003357877     0.000000282015    -0.000000309014
       5       -0.000008812195    -0.000006916451    -0.000002486417
       6       -0.000233011316    -0.000016136698    -0.000288895132
       7       -0.000100650514    -0.000003579236     0.000040751117
       8       -0.000018004742     0.000003486026     0.000000791707
       9        0.000274347720    -0.000155235570     0.000165548891
      10        0.000039013301     0.000040604829    -0.000015661963
      11        0.000036640103    -0.000004324824    -0.000026157283
      12        0.000012288741    -0.000013791952     0.000007606133

  **** Optimization is complete! (in 25 steps) ****
    Final optimized geometry and variables:
    Molecular point group: c1

    Geometry (in Angstrom), charge = 0, multiplicity = 1:

    H           -1.707121146182    -0.778601844958     2.305924060544
    C           -1.438144813744    -0.311836889345     1.377975919353
    O           -0.114807574611    -0.024240862581     1.451081803796
    F           -1.714683721563    -1.123709450366     0.367190989833
    F           -2.161342266748     0.789480626113     1.214071576790
    C            0.759795390934     0.334105910703     0.435737553591
    C            0.247125231274     0.431113276708    -1.009125857051
    CL           2.136644452684    -0.787301745819     0.477941435534
    H            1.150528188776     1.306617697865     0.677725188546
    F            1.179986370972     1.043156842694    -1.714079636257
    F           -0.841069931879     1.168594700969    -1.059873929534
    F            0.002916262504    -0.722371212009    -1.575175351407

  Mulliken Charges: (a.u.)
   Center  Symbol    Alpha    Beta     Spin     Total
       1     H     0.40393  0.40393  0.00000  0.19213
       2     C     2.55846  2.55846  0.00000  0.88309
       3     O     4.32112  4.32112  0.00000 -0.64225
       4     F     4.68409  4.68409  0.00000 -0.36819
       5     F     4.68419  4.68419  0.00000 -0.36838
       6     C     3.00339  3.00339  0.00000 -0.00677
       7     C     2.45813  2.45813  0.00000  1.08374
       8    CL     8.50376  8.50376  0.00000 -0.00752
       9     H     0.37016  0.37016  0.00000  0.25967
      10     F     4.67513  4.67513  0.00000 -0.35026
      11     F     4.67343  4.67343  0.00000 -0.34686
      12     F     4.66421  4.66421  0.00000 -0.32841

   Total alpha = 45.00000, Total beta = 45.00000, Total charge =  0.00000
