                              Psi4 1.0.54 Driver

  ==> Input File <==

--------------------------------------------------------------------------
set {
	reference rhf
	basis cc-pvtz
}

set_num_threads( 4 )
memory 2 gb

molecule MOL {
0 1

O	 2.186095	 -0.313337	 -0.275907
C	 1.121787	 0.124983	 0.000110
C	 -0.170912	 -0.649867	 -0.000147
O	 0.926839	 1.384925	 0.353546
C	 -1.413045	 0.229353	 0.001137
H	 -0.152877	 -1.303435	 -0.866175
H	 -0.152278	 -1.305116	 0.864586
C	 -2.702562	 -0.586401	 0.000228
H	 -1.390744	 0.882001	 -0.864365
H	 -1.390549	 0.879837	 0.868264
C	 -3.953810	 0.284959	 -0.000782
H	 -2.717793	 -1.238567	 -0.869075
H	 -2.719108	 -1.238472	 0.869576
H	 -3.983727	 0.924403	 -0.876454
H	 -4.852989	 -0.320147	 -0.001515
H	 -3.985140	 0.924399	 0.874841
C	 2.059170	 2.229502	 0.396379
H	 2.782724	 1.861425	 1.108571
H	 1.696782	 3.197934	 0.700814
H	 2.523685	 2.294173	 -0.576384

	symmetry c1
}
set optking {
	frozen_dihedral = ("
		1 2 3 6
	")
}

ee,wfn = optimize('scf', return_wfn=True)
oeprop( wfn, 'DIPOLE', 'QUADRUPOLE', 'MULLIKEN_CHARGES')
f=open( 'psi4out.xyz', 'w' )
f.write( "20  " )
f.write( str(ee) + "\n" )
f.write( MOL.save_string_xyz() )
f.close()
--------------------------------------------------------------------------

    Molecular point group: c1
  Charge       = 0
  Multiplicity = 1
  Basis Set: CC-PVTZ
  Basis Set:
  @DF-RHF Final Energy:  -384.07957771874760
    Total Energy =                       -384.0795777187474869
    Molecular point group: c1
  Basis Set: CC-PVTZ
  Basis Set:
  Basis Set: CC-PVTZ
  Basis Set:
  @DF-RHF Final Energy:  -384.02239052270824
    Total Energy =                       -384.0223905227082355
  Basis Set: CC-PVTZ
  Basis Set:
  Basis Set: CC-PVTZ
  Basis Set:
  @DF-RHF Final Energy:  -384.07758622529303
    Total Energy =                       -384.0775862252926345
  Basis Set: CC-PVTZ
  Basis Set:
  Basis Set: CC-PVTZ
  Basis Set:
  @DF-RHF Final Energy:  -384.08075488732055
    Total Energy =                       -384.0807548873210635
  Basis Set: CC-PVTZ
  Basis Set:
  Basis Set: CC-PVTZ
  Basis Set:
  @DF-RHF Final Energy:  -384.08081905893584
    Total Energy =                       -384.0808190589361857
  Basis Set: CC-PVTZ
  Basis Set:
  Basis Set: CC-PVTZ
  Basis Set:
  @DF-RHF Final Energy:  -384.08079061182872
    Total Energy =                       -384.0807906118287747
  Basis Set: CC-PVTZ
  Basis Set:
  Basis Set: CC-PVTZ
  Basis Set:
  @DF-RHF Final Energy:  -384.08084894719997
    Total Energy =                       -384.0808489472001384
  Basis Set: CC-PVTZ
  Basis Set:
  Charge       = 0
  Multiplicity = 1
  Basis Set: CC-PVTZ
  Basis Set:

    Orbital Energies (a.u.)
    -----------------------

    Doubly Occupied:

       1A    -20.599170     2A    -20.529841     3A    -11.364885
       4A    -11.279422     5A    -11.234081     6A    -11.222111
       7A    -11.220712     8A    -11.211642     9A     -1.473365
      10A     -1.364210    11A     -1.092718    12A     -1.024960
      13A     -0.967860    14A     -0.893231    15A     -0.806811
      16A     -0.776942    17A     -0.695170    18A     -0.687061
      19A     -0.675037    20A     -0.648939    21A     -0.594924
      22A     -0.593454    23A     -0.582117    24A     -0.544311
      25A     -0.532468    26A     -0.524440    27A     -0.504546
      28A     -0.495286    29A     -0.479879    30A     -0.475338
      31A     -0.456163    32A     -0.430913

  @DF-RHF Final Energy:  -384.08084950362223

   => Energetics <=

    Nuclear Repulsion Energy =            384.2662329798505993
    One-Electron Energy =               -1284.7301407813120022
    Two-Electron Energy =                 516.3830582978391703
    DFT Exchange-Correlation Energy =       0.0000000000000000
    Empirical Dispersion Energy =           0.0000000000000000
    PCM Polarization Energy =               0.0000000000000000
    EFP Energy =                            0.0000000000000000
    Total Energy =                       -384.0808495036221757
    Molecular point group: c1
  Basis Set: CC-PVTZ
  Basis Set:

  -Total Gradient:
     Atom            X                  Y                   Z
    ------   -----------------  -----------------  -----------------
       1       -0.000073943512     0.000148785530     0.000672889936
       2        0.000049875064    -0.000259975267    -0.001069790888
       3        0.000326244792    -0.000287146013     0.000939226238
       4        0.000001145717     0.000147622491    -0.000008682450
       5        0.000006170881     0.000015966425    -0.000012981946
       6       -0.000272603304     0.000294468148    -0.000511088732
       7       -0.000001706443    -0.000001291368    -0.000009423741
       8       -0.000016104376    -0.000018846366    -0.000008916874
       9       -0.000006849120    -0.000007115721     0.000013968761
      10        0.000002638992    -0.000021986031    -0.000013159599
      11        0.000006611234     0.000010704956    -0.000000625754
      12       -0.000000421156     0.000013846799     0.000003924105
      13        0.000011434428     0.000006885409    -0.000014071908
      14       -0.000001111327    -0.000006916471     0.000013825835
      15        0.000001647927     0.000005588483     0.000003618259
      16       -0.000001059558    -0.000007649934    -0.000007179410
      17       -0.000040423616    -0.000034097848     0.000013023470
      18        0.000002717855     0.000006893642    -0.000007251684
      19        0.000005574483    -0.000011646564    -0.000000496538
      20        0.000000161041     0.000005909696     0.000003192921

  **** Optimization is complete! (in 8 steps) ****
    Final optimized geometry and variables:
    Molecular point group: c1

    Geometry (in Angstrom), charge = 0, multiplicity = 1:

    O            2.434219230466    -0.522673451159     0.106771056001
    C            1.341526017560    -0.065188662419     0.108392574167
    C            0.095056708820    -0.901321736938     0.281934216482
    O            1.101871356322     1.227653101185    -0.010213396845
    C           -1.230949440675    -0.252863930575    -0.101006147111
    H            0.261530407251    -1.806616892726    -0.287943221454
    H            0.082971101725    -1.199479288836     1.326073804921
    C           -2.408667918285    -1.206272923216     0.081937284452
    H           -1.189489854474     0.075779346245    -1.134655409106
    H           -1.388255875574     0.637954536684     0.495208629169
    C           -3.745111542020    -0.576373268156    -0.294887554457
    H           -2.248814084068    -2.097946646011    -0.517908441675
    H           -2.445842231851    -1.538148656113     1.116052235418
    H           -3.751667272144    -0.265497154364    -1.334158166580
    H           -4.561254903232    -1.275241956173    -0.153711824014
    H           -3.949916168637     0.298974178611     0.312190686315
    C            2.219293059911     2.083248080428    -0.144890636332
    H            2.861670275356     2.008885840799     0.719768458087
    H            1.820763305846     3.081178997928    -0.229343009778
    H            2.786796833025     1.831285109725    -1.028154831782

  Mulliken Charges: (a.u.)
   Center  Symbol    Alpha    Beta     Spin     Total
       1     O     4.20362  4.20362  0.00000 -0.40723
       2     C     2.81390  2.81390  0.00000  0.37221
       3     C     3.08924  3.08924  0.00000 -0.17847
       4     O     4.14124  4.14124  0.00000 -0.28248
       5     C     3.08408  3.08408  0.00000 -0.16816
       6     H     0.43653  0.43653  0.00000  0.12693
       7     H     0.44183  0.44183  0.00000  0.11633
       8     C     3.08872  3.08872  0.00000 -0.17744
       9     H     0.45032  0.45032  0.00000  0.09937
      10     H     0.44672  0.44672  0.00000  0.10656
      11     C     3.14953  3.14953  0.00000 -0.29906
      12     H     0.45341  0.45341  0.00000  0.09318
      13     H     0.45403  0.45403  0.00000  0.09194
      14     H     0.45437  0.45437  0.00000  0.09126
      15     H     0.44737  0.44737  0.00000  0.10526
      16     H     0.45445  0.45445  0.00000  0.09111
      17     C     3.03701  3.03701  0.00000 -0.07401
      18     H     0.45340  0.45340  0.00000  0.09321
      19     H     0.44693  0.44693  0.00000  0.10613
      20     H     0.45331  0.45331  0.00000  0.09337

   Total alpha = 32.00000, Total beta = 32.00000, Total charge = -0.00000

*** Psi4 exiting successfully. Buy a developer a beer!
