  ==> Input File <==

--------------------------------------------------------------------------
set {
	reference rhf
	basis cc-pvtz
}

set_num_threads( 4 )
memory 2 gb

molecule MOL {
0 1

H	 1.055693	 0.500052	 0.505155
C	 0.788096	 -0.429819	 0.000000
N	 -0.537714	 -0.645117	 0.000000
O	 1.611994	 -1.141128	 -0.481611
C	 -1.522613	 0.412524	 0.000000
H	 -0.845894	 -1.585866	 0.000000
H	 -2.150256	 0.356137	 -0.880771
H	 -1.005621	 1.357208	 0.000000
H	 -2.150256	 0.356137	 0.880771

	symmetry c1
}
set optking {
	frozen_dihedral = ("
		1 2 3 6
	")
}

ee = optimize('scf')
oeprop('DIPOLE', 'QUADRUPOLE', 'MULLIKEN_CHARGES')
f=open( 'psi4out.xyz', 'w' )
f.write( "9  " )
f.write( str(ee) + "\n" )
f.write( MOL.save_string_xyz() )
f.close()
--------------------------------------------------------------------------

    Molecular point group: c1
  Charge       = 0
  Multiplicity = 1
  Basis Set: CC-PVTZ
  Basis Set:
  @DF-RHF Final Energy:  -208.03266733094753
    Total Energy =                       -208.0326673309474188
    Molecular point group: c1
  Basis Set: CC-PVTZ
  Basis Set:
  Basis Set: CC-PVTZ
  Basis Set:
  @DF-RHF Final Energy:  -208.03350907239587
    Total Energy =                       -208.0335090723959297
  Basis Set: CC-PVTZ
  Basis Set:
  Basis Set: CC-PVTZ
  Basis Set:
  @DF-RHF Final Energy:  -208.03688617264660
    Total Energy =                       -208.0368861726465184
  Basis Set: CC-PVTZ
  Basis Set:
  Basis Set: CC-PVTZ
  Basis Set:
  @DF-RHF Final Energy:  -208.03806343170763
    Total Energy =                       -208.0380634317077408
  Basis Set: CC-PVTZ
  Basis Set:
  @DF-RHF Final Energy:  -208.03819405588976
    Total Energy =                       -208.0381940558897327
  Basis Set: CC-PVTZ
  Basis Set:
  @DF-RHF Final Energy:  -208.03828534584920
    Total Energy =                       -208.0382853458491468
  Basis Set: CC-PVTZ
  Basis Set:
  Basis Set: CC-PVTZ
  Basis Set:
  @DF-RHF Final Energy:  -208.03840714979697
    Total Energy =                       -208.0384071497969103
  Basis Set: CC-PVTZ
  Basis Set:
  Basis Set: CC-PVTZ
  Basis Set:
  @DF-RHF Final Energy:  -208.03845955555477
    Total Energy =                       -208.0384595555546809
  Basis Set: CC-PVTZ
  Basis Set:
  Charge       = 0
  Multiplicity = 1
  Basis Set: CC-PVTZ
  Basis Set:

    Orbital Energies (a.u.)
    -----------------------

    Doubly Occupied:

       1A    -20.524425     2A    -15.582188     3A    -11.340815
       4A    -11.271638     5A     -1.400203     6A     -1.241857
       7A     -0.961750     8A     -0.844519     9A     -0.694153
      10A     -0.680208    11A     -0.637766    12A     -0.593062
      13A     -0.568836    14A     -0.548153    15A     -0.434228
      16A     -0.399768

  @DF-RHF Final Energy:  -208.03846462875671

   => Energetics <=

    Nuclear Repulsion Energy =            120.6611709953708953
    One-Electron Energy =                -521.9521341996913861
    Two-Electron Energy =                 193.2524985755638909
    DFT Exchange-Correlation Energy =       0.0000000000000000
    Empirical Dispersion Energy =           0.0000000000000000
    PCM Polarization Energy =               0.0000000000000000
    EFP Energy =                            0.0000000000000000
    Total Energy =                       -208.0384646287566284
    Molecular point group: c1
  Basis Set: CC-PVTZ
  Basis Set:

  -Total Gradient:
     Atom            X                  Y                   Z
    ------   -----------------  -----------------  -----------------
       1       -0.001517826442    -0.002704794748     0.007026089751
       2        0.001489212019     0.003958025958    -0.007021928986
       3        0.002345857189    -0.002823990949    -0.007926865694
       4       -0.000072520282     0.000038193881     0.000051431064
       5       -0.000143564721     0.000202107034     0.000015319090
       6       -0.002196276834     0.001321046684     0.007918814614
       7        0.000012501878    -0.000006936169     0.000000661817
       8       -0.000008182229     0.000072822101     0.000009261616
       9        0.000090799420    -0.000056473792    -0.000072783270

  **** Optimization is complete! (in 9 steps) ****
    Final optimized geometry and variables:
    Molecular point group: c1

    Geometry (in Angstrom), charge = 0, multiplicity = 1:

    H            0.924018589029     1.019691402760     0.529065703781
    C            0.703852116170     0.038084594526     0.102904735559
    N           -0.600998276697    -0.123528666298    -0.234579199079
    O            1.536579648759    -0.801551374493     0.007838513550
    C           -1.586515197887     0.886014723728     0.089748565732
    H           -0.915978715281    -1.064784784774    -0.166944043867
    H           -2.417506405060     0.815055170965    -0.597724860276
    H           -1.149947706006     1.868188442774    -0.025781584586
    H           -1.967021190344     0.796310041520     1.102417590490

  Mulliken Charges: (a.u.)
   Center  Symbol    Alpha    Beta     Spin     Total
       1     H     0.47225  0.47225  0.00000  0.05550
       2     C     2.87612  2.87612  0.00000  0.24776
       3     N     3.59982  3.59982  0.00000 -0.19963
       4     O     4.19959  4.19959  0.00000 -0.39919
       5     C     3.07924  3.07924  0.00000 -0.15848
       6     H     0.41605  0.41605  0.00000  0.16790
       7     H     0.44643  0.44643  0.00000  0.10713
       8     H     0.45295  0.45295  0.00000  0.09411
       9     H     0.45755  0.45755  0.00000  0.08489

   Total alpha = 16.00000, Total beta = 16.00000, Total charge = -0.00000
