                              Psi4 1.0.54 Driver

  ==> Input File <==

--------------------------------------------------------------------------
set {
	reference rhf
	basis cc-pvtz
}

set_num_threads( 4 )
memory 2 gb

molecule MOL {
0 1

H	 -2.698799	 -0.000846	 0.036018
C	 -1.694291	 -0.000483	 0.434279
O	 -0.828718	 -0.000608	 -0.655022
H	 -1.576855	 0.881100	 1.056504
H	 -1.576401	 -0.881658	 1.057001
C	 0.557892	 0.000078	 -0.420099
C	 0.901478	 -0.143663	 1.058264
C	 1.299379	 -1.010724	 -1.287697
H	 0.861677	 0.990711	 -0.734708
H	 0.330196	 0.562325	 1.648414
H	 1.955168	 0.058474	 1.211964
H	 0.703240	 -1.142218	 1.429982
H	 1.004108	 -0.905995	 -2.324466
H	 2.367555	 -0.840194	 -1.219205
H	 1.111610	 -2.032270	 -0.978295

	symmetry c1
}
set optking {
	frozen_dihedral = ("
		9 6 3 2
	")
}

ee,wfn = optimize('scf', return_wfn=True)
oeprop( wfn, 'DIPOLE', 'QUADRUPOLE', 'MULLIKEN_CHARGES')
f=open( 'psi4out.xyz', 'w' )
f.write( "15  " )
f.write( str(ee) + "\n" )
f.write( MOL.save_string_xyz() )
f.close()
--------------------------------------------------------------------------

    Molecular point group: c1
  Charge       = 0
  Multiplicity = 1
  Basis Set: CC-PVTZ
  Basis Set:
  @DF-RHF Final Energy:  -232.21782502511860
    Total Energy =                       -232.2178250251185432
    Molecular point group: c1
  Basis Set: CC-PVTZ
  Basis Set:
  Basis Set: CC-PVTZ
  Basis Set:
  @DF-RHF Final Energy:  -231.15438205903129
    Total Energy =                       -231.1543820590313203
  Basis Set: CC-PVTZ
  Basis Set:
  Basis Set: CC-PVTZ
  Basis Set:
  @DF-RHF Final Energy:  -231.34921311370459
    Total Energy =                       -231.3492131137046783
  Basis Set: CC-PVTZ
  Basis Set:
  Basis Set: CC-PVTZ
  Basis Set:
  @DF-RHF Final Energy:  -231.69583110855174
    Total Energy =                       -231.6958311085517721
  Basis Set: CC-PVTZ
  Basis Set:
  @DF-RHF Final Energy:  -231.98307334027331
    Total Energy =                       -231.9830733402733358
  @DF-RHF Final Energy:  -232.16750425684617
    Total Energy =                       -232.1675042568460299
  @DF-RHF Final Energy:  -232.21648893754295
    Total Energy =                       -232.2164889375431471
  @DF-RHF Final Energy:  -232.22200692516037
    Total Energy =                       -232.2220069251603718
  @DF-RHF Final Energy:  -232.22242214556931
    Total Energy =                       -232.2224221455695101
  Basis Set: CC-PVTZ
  Basis Set:
  @DF-RHF Final Energy:  -232.22245990480337
    Total Energy =                       -232.2224599048032587
  Basis Set: CC-PVTZ
  Basis Set:
  Basis Set: CC-PVTZ
  Basis Set:
  @DF-RHF Final Energy:  -232.22246969855325
    Total Energy =                       -232.2224696985533114
  Basis Set: CC-PVTZ
  Basis Set:
  Basis Set: CC-PVTZ
  Basis Set:
  @DF-RHF Final Energy:  -232.22247153027496
    Total Energy =                       -232.2224715302751861
  Basis Set: CC-PVTZ
  Basis Set:
  Charge       = 0
  Multiplicity = 1
  Basis Set: CC-PVTZ
  Basis Set:

    Orbital Energies (a.u.)
    -----------------------

    Doubly Occupied:

       1A    -20.539379     2A    -11.273320     3A    -11.259873
       4A    -11.213572     5A    -11.203174     6A     -1.370243
       7A     -1.054293     8A     -0.950104     9A     -0.915462
      10A     -0.783334    11A     -0.677398    12A     -0.643498
      13A     -0.631723    14A     -0.588866    15A     -0.553093
      16A     -0.541781    17A     -0.530364    18A     -0.506765
      19A     -0.493930    20A     -0.449850    21A     -0.401453

  @DF-RHF Final Energy:  -232.22247176456867

   => Energetics <=

    Nuclear Repulsion Energy =            198.0675327740171099
    One-Electron Energy =                -707.4170642651017715
    Two-Electron Energy =                 277.1270597265158813
    DFT Exchange-Correlation Energy =       0.0000000000000000
    Empirical Dispersion Energy =           0.0000000000000000
    PCM Polarization Energy =               0.0000000000000000
    EFP Energy =                            0.0000000000000000
    Total Energy =                       -232.2224717645688088
    Molecular point group: c1
  Basis Set: CC-PVTZ
  Basis Set:

  -Total Gradient:
     Atom            X                  Y                   Z
    ------   -----------------  -----------------  -----------------
       1       -0.000003148867     0.000001003683    -0.000004323264
       2        0.002021027622    -0.001511185448     0.000834804241
       3       -0.002732740996     0.002044495099    -0.001764798656
       4       -0.000002449656    -0.000008167347    -0.000006512320
       5       -0.000002315844     0.000001634073    -0.000002906778
       6       -0.001017115049     0.000246340123     0.003275382373
       7        0.000020772273     0.000010409374     0.000056496439
       8        0.000027884197     0.000020690465    -0.000015929061
       9        0.001698938484    -0.000833443124    -0.002353926839
      10       -0.000004942709     0.000015716423     0.000009686609
      11       -0.000001748507    -0.000003033962    -0.000003888590
      12       -0.000012957343     0.000014235201    -0.000018147987
      13       -0.000004651542    -0.000002019005    -0.000012366570
      14        0.000015228289     0.000006221684     0.000006428944
      15       -0.000001780355    -0.000002897242     0.000000001459

  **** Optimization is complete! (in 13 steps) ****
    Final optimized geometry and variables:
    Molecular point group: c1

    Geometry (in Angstrom), charge = 0, multiplicity = 1:

    H           -1.875021285479    -2.001197910160     0.182097903241
    C           -1.392933658238    -1.109033132719     0.555959644642
    O           -0.606831493329    -0.619807482727    -0.480241708650
    H           -2.167266269762    -0.408452158471     0.857226250556
    H           -0.811652757825    -1.379561679710     1.430833124152
    C            0.188669863586     0.535461257004    -0.319486632809
    C            0.327288525659     1.048916033493     1.107585067167
    C            1.546783852211     0.222343820642    -0.929493403729
    H           -0.267454474462     1.316546062396    -0.923574564393
    H           -0.627887646895     1.298395576033     1.550509583820
    H            0.926462004649     1.951154807512     1.093056412962
    H            0.827189932109     0.330425579668     1.746467403639
    H            1.422970827525    -0.146640042103    -1.939306453378
    H            2.170879200464     1.108747801834    -0.960461507036
    H            2.057340584316    -0.539874736642    -0.351214301228

  Mulliken Charges: (a.u.)
   Center  Symbol    Alpha    Beta     Spin     Total
       1     H     0.44238  0.44238  0.00000  0.11523
       2     C     3.03759  3.03759  0.00000 -0.07518
       3     O     4.18798  4.18798  0.00000 -0.37595
       4     H     0.47018  0.47018  0.00000  0.05963
       5     H     0.47017  0.47017  0.00000  0.05965
       6     C     2.92083  2.92083  0.00000  0.15833
       7     C     3.17161  3.17161  0.00000 -0.34323
       8     C     3.13879  3.13879  0.00000 -0.27758
       9     H     0.45812  0.45812  0.00000  0.08376
      10     H     0.44476  0.44476  0.00000  0.11048
      11     H     0.44341  0.44341  0.00000  0.11318
      12     H     0.45057  0.45057  0.00000  0.09885
      13     H     0.44598  0.44598  0.00000  0.10805
      14     H     0.45995  0.45995  0.00000  0.08009
      15     H     0.45767  0.45767  0.00000  0.08466

   Total alpha = 21.00000, Total beta = 21.00000, Total charge = -0.00000

*** Psi4 exiting successfully. Buy a developer a beer!
