  ==> Input File <==

--------------------------------------------------------------------------
set {
	reference rhf
	basis cc-pvtz
}

set_num_threads( 4 )
memory 2 gb

molecule MOL {
0 1

H	 -2.171709	 0.882708	 0.500286
C	 -2.016894	 0.001719	 -0.114152
O	 -0.775228	 0.000056	 -0.739966
H	 -2.760846	 0.003757	 -0.898169
H	 -2.174774	 -0.879864	 0.498643
C	 0.145008	 1.042582	 -0.483870
C	 1.355012	 0.683253	 -1.339239
C	 -0.418452	 2.395736	 -0.922193
C	 0.543538	 1.076784	 0.992815
H	 1.072465	 0.633062	 -2.383150
H	 1.743365	 -0.284634	 -1.048583
H	 2.141706	 1.419960	 -1.228136
H	 -0.759282	 2.346159	 -1.949348
H	 0.347858	 3.158612	 -0.853789
H	 -1.247419	 2.712284	 -0.301571
H	 0.880035	 0.098455	 1.314271
H	 1.351876	 1.782069	 1.144605
H	 -0.277339	 1.382483	 1.629429

	symmetry c1
}
set optking {
	frozen_dihedral = ("
		6 3 2 5
	")
}

ee = optimize('scf')
oeprop('DIPOLE', 'QUADRUPOLE', 'MULLIKEN_CHARGES')
f=open( 'psi4out.xyz', 'w' )
f.write( "18  " )
f.write( str(ee) + "\n" )
f.write( MOL.save_string_xyz() )
f.close()
--------------------------------------------------------------------------

    Molecular point group: c1
  Charge       = 0
  Multiplicity = 1
  Basis Set: CC-PVTZ
  Basis Set:
  @DF-RHF Final Energy:  -271.27369344290952
    Total Energy =                       -271.2736934429096891
    Molecular point group: c1
  Basis Set: CC-PVTZ
  Basis Set:
  Basis Set: CC-PVTZ
  Basis Set:
  @DF-RHF Final Energy:  -271.27424100779979
    Total Energy =                       -271.2742410077998443
  Basis Set: CC-PVTZ
  Basis Set:
  Basis Set: CC-PVTZ
  Basis Set:
  @DF-RHF Final Energy:  -271.27398302042059
    Total Energy =                       -271.2739830204207010
  Basis Set: CC-PVTZ
  Basis Set:
  Basis Set: CC-PVTZ
  Basis Set:
  @DF-RHF Final Energy:  -271.27441304070004
    Total Energy =                       -271.2744130407000398
  Basis Set: CC-PVTZ
  Basis Set:
  Basis Set: CC-PVTZ
  Basis Set:
  @DF-RHF Final Energy:  -271.27440636760474
    Total Energy =                       -271.2744063676047972
  Basis Set: CC-PVTZ
  Basis Set:
  Basis Set: CC-PVTZ
  Basis Set:
  @DF-RHF Final Energy:  -271.27441951144834
    Total Energy =                       -271.2744195114481727
  Basis Set: CC-PVTZ
  Basis Set:
  Charge       = 0
  Multiplicity = 1
  Basis Set: CC-PVTZ
  Basis Set:

    Orbital Energies (a.u.)
    -----------------------

    Doubly Occupied:

       1A    -20.538033     2A    -11.280835     3A    -11.258443
       4A    -11.207062     5A    -11.207039     6A    -11.201764
       7A     -1.371070     8A     -1.074129     9A     -0.946456
      10A     -0.941000    11A     -0.913528    12A     -0.753842
      13A     -0.656382    14A     -0.645497    15A     -0.640522
      16A     -0.590756    17A     -0.572041    18A     -0.552292
      19A     -0.539209    20A     -0.524717    21A     -0.515369
      22A     -0.491486    23A     -0.488330    24A     -0.439496
      25A     -0.404044

  @DF-RHF Final Energy:  -271.27442000513003

   => Energetics <=

    Nuclear Repulsion Energy =            272.4688937225612904
    One-Electron Energy =                -907.9799401864220272
    Two-Electron Energy =                 364.2366264587309388
    DFT Exchange-Correlation Energy =       0.0000000000000000
    Empirical Dispersion Energy =           0.0000000000000000
    PCM Polarization Energy =               0.0000000000000000
    EFP Energy =                            0.0000000000000000
    Total Energy =                       -271.2744200051298549
    Molecular point group: c1
  Basis Set: CC-PVTZ
  Basis Set:

  -Total Gradient:
     Atom            X                  Y                   Z
    ------   -----------------  -----------------  -----------------
       1       -0.000028626908    -0.000036879795    -0.000033409192
       2        0.000018199598     0.000053450247     0.000071785866
       3        0.000013310792    -0.000099422599     0.000041597870
       4        0.000002380289     0.000027250257    -0.000015226597
       5       -0.000017135520    -0.000036905527    -0.000045228531
       6       -0.000073066505     0.000037439877    -0.000024591266
       7       -0.000024342474     0.000003853684     0.000029763193
       8        0.000044590217     0.000017637859    -0.000018421632
       9        0.000062969925     0.000019778559    -0.000018099945
      10       -0.000009427258     0.000015885184     0.000005585571
      11       -0.000003025812     0.000001921826    -0.000006713747
      12        0.000006464808     0.000001377129     0.000015194895
      13       -0.000006472751    -0.000004845284     0.000003625028
      14       -0.000007735699     0.000012678636    -0.000011759391
      15       -0.000007138563    -0.000006778450     0.000000217674
      16       -0.000021480071    -0.000001818384     0.000014945470
      17        0.000021517537    -0.000007586439     0.000018602267
      18        0.000029018393     0.000002963216    -0.000027867533

  **** Optimization is complete! (in 7 steps) ****
    Final optimized geometry and variables:
    Molecular point group: c1

    Geometry (in Angstrom), charge = 0, multiplicity = 1:

    H           -1.968467501619    -0.002458518077     0.965752961407
    C           -1.813068877404    -0.853335578280     0.316288682843
    O           -0.564843096781    -0.852382316525    -0.306477062920
    H           -2.592529721347    -0.845583231186    -0.437040109345
    H           -1.921112267360    -1.753085252568     0.911347332810
    C            0.363031395199     0.183686691052    -0.054503308160
    C            1.571495326621    -0.185257003561    -0.907743980267
    C           -0.193086398467     1.536799321176    -0.502203199428
    C            0.761748233729     0.214032676456     1.422213330580
    H            1.290631620580    -0.234052803671    -1.952062493974
    H            1.953053756690    -1.155269247163    -0.615612130699
    H            2.362786035896     0.546540926238    -0.795516891341
    H           -0.497021708500     1.489721475115    -1.540825551554
    H            0.562505436743     2.307054385226    -0.402048650303
    H           -1.048434761855     1.841357041647     0.088075346314
    H            1.123700477893    -0.759146190689     1.730874389143
    H            1.550311161578     0.939149698849     1.585354623743
    H           -0.068089483420     0.486058970700     2.062630001815

  Mulliken Charges: (a.u.)
   Center  Symbol    Alpha    Beta     Spin     Total
       1     H     0.46837  0.46837  0.00000  0.06327
       2     C     3.04248  3.04248  0.00000 -0.08495
       3     O     4.19389  4.19389  0.00000 -0.38779
       4     H     0.45356  0.45356  0.00000  0.09288
       5     H     0.45395  0.45395  0.00000  0.09211
       6     C     2.87904  2.87904  0.00000  0.24192
       7     C     3.14297  3.14297  0.00000 -0.28595
       8     C     3.16062  3.16062  0.00000 -0.32123
       9     C     3.16064  3.16064  0.00000 -0.32128
      10     H     0.44903  0.44903  0.00000  0.10193
      11     H     0.44900  0.44900  0.00000  0.10199
      12     H     0.45924  0.45924  0.00000  0.08153
      13     H     0.44658  0.44658  0.00000  0.10684
      14     H     0.44871  0.44871  0.00000  0.10259
      15     H     0.44834  0.44834  0.00000  0.10332
      16     H     0.44656  0.44656  0.00000  0.10688
      17     H     0.44866  0.44866  0.00000  0.10268
      18     H     0.44836  0.44836  0.00000  0.10327

   Total alpha = 25.00000, Total beta = 25.00000, Total charge = -0.00000
