                              Psi4 1.0.54 Driver

  ==> Input File <==

--------------------------------------------------------------------------
set {
	reference rhf
	basis cc-pvtz
}

set_num_threads( 4 )
memory 2 gb

molecule MOL {
0 1

H	 -2.698799	 -0.000846	 0.036018
C	 -1.694291	 -0.000483	 0.434279
O	 -0.828718	 -0.000608	 -0.655022
H	 -1.576855	 0.881100	 1.056504
H	 -1.576401	 -0.881658	 1.057001
C	 0.557892	 0.000078	 -0.420099
C	 1.363481	 -0.343191	 -1.668083
C	 1.038747	 1.285405	 0.243951
H	 0.689006	 -0.807132	 0.289717
H	 0.972070	 -1.238688	 -2.134925
H	 2.397908	 -0.523762	 -1.399566
H	 1.350901	 0.458342	 -2.397445
H	 0.422195	 1.519297	 1.103138
H	 2.061418	 1.164097	 0.581889
H	 1.017443	 2.130154	 -0.434640

	symmetry c1
}
set optking {
	frozen_dihedral = ("
		9 6 3 2
	")
}

ee,wfn = optimize('scf', return_wfn=True)
oeprop( wfn, 'DIPOLE', 'QUADRUPOLE', 'MULLIKEN_CHARGES')
f=open( 'psi4out.xyz', 'w' )
f.write( "15  " )
f.write( str(ee) + "\n" )
f.write( MOL.save_string_xyz() )
f.close()
--------------------------------------------------------------------------

    Molecular point group: c1
  Charge       = 0
  Multiplicity = 1
  Basis Set: CC-PVTZ
  Basis Set:
  @DF-RHF Final Energy:  -232.22540250654492
    Total Energy =                       -232.2254025065449241
    Molecular point group: c1
  Basis Set: CC-PVTZ
  Basis Set:
  Basis Set: CC-PVTZ
  Basis Set:
  @DF-RHF Final Energy:  -231.42752105224955
    Total Energy =                       -231.4275210522496309
  Basis Set: CC-PVTZ
  Basis Set:
  Basis Set: CC-PVTZ
  Basis Set:
  @DF-RHF Final Energy:  -231.60752055006839
    Total Energy =                       -231.6075205500684433
  Basis Set: CC-PVTZ
  Basis Set:
  Basis Set: CC-PVTZ
  Basis Set:
  @DF-RHF Final Energy:  -231.92202781254898
    Total Energy =                       -231.9220278125491177
  Basis Set: CC-PVTZ
  Basis Set:
  @DF-RHF Final Energy:  -232.13833837486871
    Total Energy =                       -232.1383383748688516
  @DF-RHF Final Energy:  -232.22136763170244
    Total Energy =                       -232.2213676317025488
  @DF-RHF Final Energy:  -232.22943996411394
    Total Energy =                       -232.2294399641137943
  @DF-RHF Final Energy:  -232.22989071421878
    Total Energy =                       -232.2298907142187545
  Basis Set: CC-PVTZ
  Basis Set:
  @DF-RHF Final Energy:  -232.22994925938900
    Total Energy =                       -232.2299492593889454
  Basis Set: CC-PVTZ
  Basis Set:
  Basis Set: CC-PVTZ
  Basis Set:
  @DF-RHF Final Energy:  -232.22995545984136
    Total Energy =                       -232.2299554598414488
  Basis Set: CC-PVTZ
  Basis Set:
  Basis Set: CC-PVTZ
  Basis Set:
  @DF-RHF Final Energy:  -232.22995667661587
    Total Energy =                       -232.2299566766158136
  Basis Set: CC-PVTZ
  Basis Set:
  Charge       = 0
  Multiplicity = 1
  Basis Set: CC-PVTZ
  Basis Set:

    Orbital Energies (a.u.)
    -----------------------

    Doubly Occupied:

       1A    -20.544378     2A    -11.272886     3A    -11.260492
       4A    -11.208055     5A    -11.204366     6A     -1.378412
       7A     -1.053770     8A     -0.943490     9A     -0.915458
      10A     -0.792991    11A     -0.675400    12A     -0.639784
      13A     -0.638355    14A     -0.590581    15A     -0.550653
      16A     -0.542431    17A     -0.528909    18A     -0.498619
      19A     -0.492085    20A     -0.455121    21A     -0.411685

  @DF-RHF Final Energy:  -232.22995675504040

   => Energetics <=

    Nuclear Repulsion Energy =            197.7821731347582386
    One-Electron Energy =                -706.8284108144482616
    Two-Electron Energy =                 276.8162809246496181
    DFT Exchange-Correlation Energy =       0.0000000000000000
    Empirical Dispersion Energy =           0.0000000000000000
    PCM Polarization Energy =               0.0000000000000000
    EFP Energy =                            0.0000000000000000
    Total Energy =                       -232.2299567550404049
    Molecular point group: c1
  Basis Set: CC-PVTZ
  Basis Set:

  -Total Gradient:
     Atom            X                  Y                   Z
    ------   -----------------  -----------------  -----------------
       1       -0.000000589413    -0.000006180606    -0.000000434948
       2       -0.000332949259     0.000332418801    -0.000201044982
       3        0.000572787206    -0.000556850855     0.000257598417
       4        0.000005846032     0.000014028949    -0.000006351611
       5        0.000007301494     0.000006514574    -0.000009360602
       6       -0.000723771487     0.000540340415     0.000191676283
       7       -0.000005683190    -0.000009591345    -0.000009230651
       8       -0.000016230207    -0.000022778724    -0.000000025597
       9        0.000497339607    -0.000301950030    -0.000208166114
      10        0.000003593656    -0.000006264735    -0.000000114857
      11       -0.000003246373     0.000005878042     0.000002790755
      12        0.000003422132     0.000001486314    -0.000010898741
      13       -0.000020343334    -0.000006075449     0.000011943212
      14        0.000015330769     0.000002535747     0.000002025555
      15       -0.000002807632     0.000006488901    -0.000020406120

  **** Optimization is complete! (in 12 steps) ****
    Final optimized geometry and variables:
    Molecular point group: c1

    Geometry (in Angstrom), charge = 0, multiplicity = 1:

    H           -1.867865187638    -2.074835793418     0.064649780794
    C           -1.444782207026    -1.181875960820     0.502283146084
    O           -0.370278706626    -0.797761046444    -0.290468349217
    H           -2.219823768912    -0.423072414716     0.545973602811
    H           -1.128507810099    -1.410680020250     1.518025632905
    C            0.450946056827     0.223236460827     0.209797843673
    C            1.704633079127     0.229937505812    -0.646239480629
    C           -0.244243347939     1.579534452813     0.205184990155
    H            0.731361339680    -0.025753760048     1.233518961853
    H            2.180234179796    -0.741967192481    -0.623162347960
    H            2.410495484917     0.969925900887    -0.287409436029
    H            1.456115868618     0.461533875594    -1.675402283187
    H           -1.110308535397     1.593825849591     0.854595405535
    H            0.436225144810     2.349169796277     0.550825130540
    H           -0.566508497591     1.832184163084    -0.798737053208

  Mulliken Charges: (a.u.)
   Center  Symbol    Alpha    Beta     Spin     Total
       1     H     0.44443  0.44443  0.00000  0.11114
       2     C     3.03838  3.03838  0.00000 -0.07675
       3     O     4.18197  4.18197  0.00000 -0.36394
       4     H     0.46912  0.46912  0.00000  0.06176
       5     H     0.47212  0.47212  0.00000  0.05576
       6     C     2.92151  2.92151  0.00000  0.15698
       7     C     3.14083  3.14083  0.00000 -0.28166
       8     C     3.15310  3.15310  0.00000 -0.30621
       9     H     0.46662  0.46662  0.00000  0.06676
      10     H     0.44720  0.44720  0.00000  0.10560
      11     H     0.45868  0.45868  0.00000  0.08265
      12     H     0.45285  0.45285  0.00000  0.09429
      13     H     0.45153  0.45153  0.00000  0.09695
      14     H     0.45081  0.45081  0.00000  0.09839
      15     H     0.45086  0.45086  0.00000  0.09828

   Total alpha = 21.00000, Total beta = 21.00000, Total charge = -0.00000

*** Psi4 exiting successfully. Buy a developer a beer!
