  ==> Input File <==

--------------------------------------------------------------------------
set {
	reference rhf
	basis 6-31G*
}

set_num_threads( 1 )
memory 2 gb

molecule MOL {
0 1

O	 2.862325	 1.357334	 0.000267
C	 2.843464	 0.164689	 -0.000222
C	 1.546494	 -0.624492	 -0.000609
C	 4.124123	 -0.644674	 -0.000428
C	 0.291004	 0.242674	 0.000989
H	 1.557904	 -1.283758	 -0.867573
H	 1.558622	 -1.285963	 0.864672
C	 -0.411561	 0.254619	 1.359673
H	 -0.390321	 -0.116408	 -0.763855
H	 0.557504	 1.255035	 -0.285807
C	 -1.672769	 1.120017	 1.372752
H	 -0.672895	 -0.764019	 1.642742
H	 0.277798	 0.614187	 2.122275
C	 -2.381304	 1.136964	 2.728372
H	 -2.362914	 0.761037	 0.611271
H	 -1.412587	 2.138736	 1.090771
C	 -3.640299	 2.003329	 2.733443
H	 -2.642944	 0.119305	 3.010752
H	 -1.692888	 1.497062	 3.490127
H	 -4.363589	 1.647925	 2.004958
H	 -4.120315	 1.994771	 3.707205
H	 -3.406666	 3.035678	 2.488874
H	 4.165367	 -1.288615	 -0.874074
H	 4.976217	 0.020734	 -0.001915
H	 4.166763	 -1.286207	 0.874930

	symmetry c1
}
set optking {
	frozen_dihedral = ("
		9 5 8 12,
		15 11 8 12,
		15 11 14 18,
		1 2 3 6
	")
}

ee = energy('scf')
oeprop('DIPOLE', 'QUADRUPOLE', 'MULLIKEN_CHARGES')
f=open( 'psi4out.xyz', 'w' )
f.write( "25  " )
f.write( str(ee) + "\n" )
f.write( MOL.save_string_xyz() )
f.close()
--------------------------------------------------------------------------

    Molecular point group: c1

    Geometry (in Angstrom), charge = 0, multiplicity = 1:

       Center              X                  Y                   Z               Mass
    ------------   -----------------  -----------------  -----------------  -----------------
           O          2.469430019165     0.790188909794    -0.917597004186    15.994914619560
           C          2.450569019165    -0.402456090206    -0.918086004186    12.000000000000
           C          1.153599019165    -1.191637090206    -0.918473004186    12.000000000000
           C          3.731228019165    -1.211819090206    -0.918292004186    12.000000000000
           C         -0.101890980835    -0.324471090206    -0.916875004186    12.000000000000
           H          1.165009019165    -1.850903090206    -1.785437004186     1.007825032070
           H          1.165727019165    -1.853108090206    -0.053192004186     1.007825032070
           C         -0.804455980835    -0.312526090206     0.441808995814    12.000000000000
           H         -0.783215980835    -0.683553090206    -1.681719004186     1.007825032070
           H          0.164609019165     0.687889909794    -1.203671004186     1.007825032070
           C         -2.065663980835     0.552871909794     0.454887995814    12.000000000000
           H         -1.065789980835    -1.331164090206     0.724877995814     1.007825032070
           H         -0.115096980835     0.047041909794     1.204410995814     1.007825032070
           C         -2.774198980835     0.569818909794     1.810507995814    12.000000000000
           H         -2.755808980835     0.193891909794    -0.306593004186     1.007825032070
           H         -1.805481980835     1.571590909794     0.172906995814     1.007825032070
           C         -4.033193980835     1.436183909794     1.815578995814    12.000000000000
           H         -3.035838980835    -0.447840090206     2.092887995814     1.007825032070
           H         -2.085782980835     0.929916909794     2.572262995814     1.007825032070
           H         -4.756483980835     1.080779909794     1.087093995814     1.007825032070
           H         -4.513209980835     1.427625909794     2.789340995814     1.007825032070
           H         -3.799560980835     2.468532909794     1.571009995814     1.007825032070
           H          3.772472019165    -1.855760090206    -1.791938004186     1.007825032070
           H          4.583322019165    -0.546411090206    -0.919779004186     1.007825032070
           H          3.773868019165    -1.853352090206    -0.042934004186     1.007825032070

  Charge       = 0
  Multiplicity = 1
  Basis Set: 6-31G*
  Basis Set:

    Orbital Energies (a.u.)
    -----------------------

    Doubly Occupied:

       1A    -20.551420     2A    -11.327200     3A    -11.230537
       4A    -11.229061     5A    -11.214108     6A    -11.213089
       7A    -11.212781     8A    -11.210701     9A    -11.206515
      10A     -1.397175    11A     -1.091527    12A     -1.054982
      13A     -1.013972    14A     -0.967860    15A     -0.888790
      16A     -0.814489    17A     -0.789027    18A     -0.729482
      19A     -0.668626    20A     -0.640023    21A     -0.632966
      22A     -0.622564    23A     -0.591978    24A     -0.582905
      25A     -0.575303    26A     -0.557479    27A     -0.533000
      28A     -0.525050    29A     -0.514233    30A     -0.495875
      31A     -0.483409    32A     -0.470985    33A     -0.462483
      34A     -0.458518    35A     -0.441338    36A     -0.402577

  @DF-RHF Final Energy:  -387.13244741400985

   => Energetics <=

    Nuclear Repulsion Energy =            443.5835021394346427
    One-Electron Energy =               -1403.8280004887149062
    Two-Electron Energy =                 573.1120509352701902
    DFT Exchange-Correlation Energy =       0.0000000000000000
    Empirical Dispersion Energy =           0.0000000000000000
    PCM Polarization Energy =               0.0000000000000000
    EFP Energy =                            0.0000000000000000
    Total Energy =                       -387.1324474140101302

  Mulliken Charges: (a.u.)
   Center  Symbol    Alpha    Beta     Spin     Total
       1     O     4.26055  4.26055  0.00000 -0.52110
       2     C     2.73799  2.73799  0.00000  0.52402
       3     C     3.21470  3.21470  0.00000 -0.42941
       4     C     3.28695  3.28695  0.00000 -0.57391
       5     C     3.15702  3.15702  0.00000 -0.31404
       6     H     0.40669  0.40669  0.00000  0.18662
       7     H     0.40745  0.40745  0.00000  0.18510
       8     C     3.15559  3.15559  0.00000 -0.31118
       9     H     0.42125  0.42125  0.00000  0.15750
      10     H     0.39492  0.39492  0.00000  0.21017
      11     C     3.15168  3.15168  0.00000 -0.30337
      12     H     0.42599  0.42599  0.00000  0.14801
      13     H     0.42006  0.42006  0.00000  0.15988
      14     C     3.15156  3.15156  0.00000 -0.30312
      15     H     0.42478  0.42478  0.00000  0.15044
      16     H     0.42035  0.42035  0.00000  0.15930
      17     C     3.23928  3.23928  0.00000 -0.47855
      18     H     0.42434  0.42434  0.00000  0.15132
      19     H     0.42251  0.42251  0.00000  0.15498
      20     H     0.42226  0.42226  0.00000  0.15547
      21     H     0.41981  0.41981  0.00000  0.16039
      22     H     0.42100  0.42100  0.00000  0.15800
      23     H     0.40851  0.40851  0.00000  0.18297
      24     H     0.39640  0.39640  0.00000  0.20720
      25     H     0.40835  0.40835  0.00000  0.18331

   Total alpha = 36.00000, Total beta = 36.00000, Total charge =  0.00000
