  ==> Input File <==

--------------------------------------------------------------------------
set {
	reference rhf
	basis 6-31G*
}

set_num_threads( 4 )
memory 2 gb

molecule MOL {
0 1

O	 0.888560	 1.036733	 0.704466
C	 0.576249	 0.131685	 -0.000108
C	 -0.766779	 -0.556801	 -0.000461
O	 1.391071	 -0.402883	 -0.900645
C	 -1.945214	 0.412366	 0.000161
H	 -0.796911	 -1.211249	 -0.867467
H	 -0.796854	 -1.212390	 0.865687
C	 -3.287791	 -0.317055	 0.000105
H	 -1.876087	 1.060580	 -0.866812
H	 -1.875822	 1.059691	 0.867761
H	 -3.394745	 -0.949193	 -0.877058
H	 -4.111778	 0.388953	 0.000015
H	 -3.394954	 -0.949187	 0.877259
C	 2.689147	 0.153576	 -1.003392
H	 2.634374	 1.198297	 -1.273763
H	 3.190088	 -0.407164	 -1.777016
H	 3.219560	 0.056275	 -0.067067

	symmetry c1
}
set optking {
	frozen_dihedral = ("
		1 2 3 6
	")
}

ee = optimize('scf')
oeprop('DIPOLE', 'QUADRUPOLE', 'MULLIKEN_CHARGES')
f=open( 'psi4out.xyz', 'w' )
f.write( "17  " )
f.write( str(ee) + "\n" )
f.write( MOL.save_string_xyz() )
f.close()
--------------------------------------------------------------------------

    Molecular point group: c1
  Charge       = 0
  Multiplicity = 1
  Basis Set: 6-31G*
  Basis Set:
  @DF-RHF Final Energy:  -344.90522239936485
    Total Energy =                       -344.9052223993647885
    Molecular point group: c1
  Basis Set: 6-31G*
  Basis Set:
  Basis Set: 6-31G*
  Basis Set:
  @DF-RHF Final Energy:  -344.90513379583342
    Total Energy =                       -344.9051337958335353
  Basis Set: 6-31G*
  Basis Set:
  Basis Set: 6-31G*
  Basis Set:
  @DF-RHF Final Energy:  -344.90515741546534
    Total Energy =                       -344.9051574154653963
  Basis Set: 6-31G*
  Basis Set:
  Basis Set: 6-31G*
  Basis Set:
  @DF-RHF Final Energy:  -344.90569502972556
    Total Energy =                       -344.9056950297257345
  Basis Set: 6-31G*
  Basis Set:
  Basis Set: 6-31G*
  Basis Set:
  @DF-RHF Final Energy:  -344.90570553657926
    Total Energy =                       -344.9057055365792621
  Basis Set: 6-31G*
  Basis Set:
  Basis Set: 6-31G*
  Basis Set:
  @DF-RHF Final Energy:  -344.90570877310591
    Total Energy =                       -344.9057087731058573
  Basis Set: 6-31G*
  Basis Set:
  Charge       = 0
  Multiplicity = 1
  Basis Set: 6-31G*
  Basis Set:

    Orbital Energies (a.u.)
    -----------------------

    Doubly Occupied:

       1A    -20.606207     2A    -20.543246     3A    -11.372319
       4A    -11.281172     5A    -11.234917     6A    -11.226235
       7A    -11.216038     8A     -1.470194     9A     -1.362141
      10A     -1.081206    11A     -1.000968    12A     -0.941062
      13A     -0.828188    14A     -0.770616    15A     -0.699281
      16A     -0.681514    17A     -0.672541    18A     -0.636526
      19A     -0.594531    20A     -0.580819    21A     -0.562645
      22A     -0.532193    23A     -0.524416    24A     -0.501227
      25A     -0.485484    26A     -0.480226    27A     -0.455439
      28A     -0.435602

  @DF-RHF Final Energy:  -344.90570910863693

   => Energetics <=

    Nuclear Repulsion Energy =            312.6039586771605059
    One-Electron Energy =               -1089.4654265504475461
    Two-Electron Energy =                 431.9557587646498860
    DFT Exchange-Correlation Energy =       0.0000000000000000
    Empirical Dispersion Energy =           0.0000000000000000
    PCM Polarization Energy =               0.0000000000000000
    EFP Energy =                            0.0000000000000000
    Total Energy =                       -344.9057091086370974
    Molecular point group: c1
  Basis Set: 6-31G*
  Basis Set:

  -Total Gradient:
     Atom            X                  Y                   Z
    ------   -----------------  -----------------  -----------------
       1        0.000348697498    -0.000690877421     0.000707850643
       2       -0.000438455395     0.000852314523    -0.000912601385
       3       -0.000311234490     0.000636566171    -0.000300170588
       4        0.000009084495    -0.000011196645    -0.000011416322
       5        0.000004168256     0.000009839694    -0.000016846292
       6        0.000393341134    -0.000754042267     0.000529488003
       7       -0.000012311669    -0.000019719442    -0.000020763645
       8        0.000001420853    -0.000015176562    -0.000004632643
       9        0.000001429261     0.000001035810     0.000019661382
      10        0.000013198814     0.000000852365    -0.000002792941
      11        0.000005462478    -0.000007503713     0.000007968321
      12        0.000002219046     0.000002140215    -0.000008546267
      13       -0.000011827511     0.000005398049     0.000005241861
      14       -0.000008528571    -0.000022646253     0.000021812009
      15        0.000000747766     0.000008006406    -0.000002857964
      16        0.000000043225     0.000002009059    -0.000003246921
      17        0.000002544809     0.000003000011    -0.000008147248

  **** Optimization is complete! (in 7 steps) ****
    Final optimized geometry and variables:
    Molecular point group: c1

    Geometry (in Angstrom), charge = 0, multiplicity = 1:

    O            0.884124524118     0.954892143306     0.867565179551
    C            0.602576699270     0.056456893634     0.140135502366
    C           -0.735973077369    -0.642881737745     0.126575143676
    O            1.452540820879    -0.461550508530    -0.734415138615
    C           -1.908348529978     0.340235904613     0.172505110704
    H           -0.793146153162    -1.295242243957    -0.735722853149
    H           -0.758403162852    -1.279071832727     1.008531054860
    C           -3.256502820291    -0.374539407124     0.240449907388
    H           -1.878167448529     0.976753808126    -0.707976314653
    H           -1.786500162469     0.991236429064     1.030038247225
    H           -3.407314951241    -1.018504480640    -0.621242858468
    H           -4.072490410886     0.340260472917     0.265771068966
    H           -3.329480204031    -0.991352843446     1.131691024752
    C            2.753646632551     0.097171973718    -0.772656362374
    H            2.708549084046     1.145792543405    -1.028807622621
    H            3.287798441830    -0.451544314217    -1.532546176826
    H            3.242709582166    -0.014121253197     0.184300968783

  Mulliken Charges: (a.u.)
   Center  Symbol    Alpha    Beta     Spin     Total
       1     O     4.28696  4.28696  0.00000 -0.57391
       2     C     2.60620  2.60620  0.00000  0.78761
       3     C     3.20571  3.20571  0.00000 -0.41142
       4     O     4.30473  4.30473  0.00000 -0.60947
       5     C     3.15901  3.15901  0.00000 -0.31803
       6     H     0.40059  0.40059  0.00000  0.19882
       7     H     0.40113  0.40113  0.00000  0.19775
       8     C     3.24188  3.24188  0.00000 -0.48377
       9     H     0.41675  0.41675  0.00000  0.16651
      10     H     0.40251  0.40251  0.00000  0.19499
      11     H     0.42061  0.42061  0.00000  0.15878
      12     H     0.41515  0.41515  0.00000  0.16970
      13     H     0.41987  0.41987  0.00000  0.16025
      14     C     3.09360  3.09360  0.00000 -0.18719
      15     H     0.40836  0.40836  0.00000  0.18329
      16     H     0.40830  0.40830  0.00000  0.18340
      17     H     0.40866  0.40866  0.00000  0.18268

   Total alpha = 28.00000, Total beta = 28.00000, Total charge = -0.00000
