  ==> Input File <==

--------------------------------------------------------------------------
set {
	reference rhf
	basis 6-31G*
}

set_num_threads( 4 )
memory 2 gb

molecule MOL {
0 1

H	 -2.428250	 -0.281281	 -0.731466
O	 -2.035884	 -0.060112	 0.102722
C	 -0.955155	 0.788182	 -0.092531
C	 0.353668	 0.040312	 -0.004810
H	 -0.985057	 1.290372	 -1.054184
H	 -0.974469	 1.533190	 0.688632
F	 0.394464	 -0.937475	 -0.903053
F	 1.368604	 0.853376	 -0.249821
F	 0.546173	 -0.502608	 1.179981

	symmetry c1
}
set optking {
	frozen_dihedral = ("
		1 2 3 5
	")
}

ee = optimize('scf')
oeprop('DIPOLE', 'QUADRUPOLE', 'MULLIKEN_CHARGES')
f=open( 'psi4out.xyz', 'w' )
f.write( "9  " )
f.write( str(ee) + "\n" )
f.write( MOL.save_string_xyz() )
f.close()
--------------------------------------------------------------------------

    Molecular point group: c1
  Charge       = 0
  Multiplicity = 1
  Basis Set: 6-31G*
  Basis Set:
  @DF-RHF Final Energy:  -450.66090821927605
    Total Energy =                       -450.6609082192760525
    Molecular point group: c1
  Basis Set: 6-31G*
  Basis Set:
  Basis Set: 6-31G*
  Basis Set:
  @DF-RHF Final Energy:  -450.66115393001110
    Total Energy =                       -450.6611539300115510
  Basis Set: 6-31G*
  Basis Set:
  Basis Set: 6-31G*
  Basis Set:
  @DF-RHF Final Energy:  -450.66122194736158
    Total Energy =                       -450.6612219473615824
  Basis Set: 6-31G*
  Basis Set:
  Basis Set: 6-31G*
  Basis Set:
  @DF-RHF Final Energy:  -450.66122457818460
    Total Energy =                       -450.6612245781846582
  Basis Set: 6-31G*
  Basis Set:
  Charge       = 0
  Multiplicity = 1
  Basis Set: 6-31G*
  Basis Set:

    Orbital Energies (a.u.)
    -----------------------

    Doubly Occupied:

       1A    -26.338352     2A    -26.336691     3A    -26.334263
       4A    -20.590078     5A    -11.495176     6A    -11.310114
       7A     -1.734811     8A     -1.633150     9A     -1.631623
      10A     -1.401777    11A     -1.047072    12A     -0.919401
      13A     -0.825759    14A     -0.824080    15A     -0.793405
      16A     -0.734905    17A     -0.706839    18A     -0.696539
      19A     -0.661590    20A     -0.652693    21A     -0.636996
      22A     -0.630938    23A     -0.601089    24A     -0.534096
      25A     -0.479137

  @DF-RHF Final Energy:  -450.66122486361354

   => Energetics <=

    Nuclear Repulsion Energy =            276.8334566695201033
    One-Electron Energy =               -1175.8882134480704735
    Two-Electron Energy =                 448.3935319149371708
    DFT Exchange-Correlation Energy =       0.0000000000000000
    Empirical Dispersion Energy =           0.0000000000000000
    PCM Polarization Energy =               0.0000000000000000
    EFP Energy =                            0.0000000000000000
    Total Energy =                       -450.6612248636132563
    Molecular point group: c1
  Basis Set: 6-31G*
  Basis Set:

  -Total Gradient:
     Atom            X                  Y                   Z
    ------   -----------------  -----------------  -----------------
       1       -0.001514507776     0.001900011019     0.000103015584
       2        0.002208035567    -0.002843462503    -0.000404477907
       3       -0.001835443813     0.002561392772     0.001122533186
       4        0.000034316268     0.000094007476     0.000073925465
       5        0.001124730025    -0.001632826935    -0.000829521888
       6        0.000006425117    -0.000007626750    -0.000009245991
       7        0.000008591946    -0.000006567717    -0.000020786839
       8       -0.000032921578    -0.000058031955    -0.000019859073
       9        0.000000774249    -0.000006895405    -0.000015582532

  **** Optimization is complete! (in 5 steps) ****
    Final optimized geometry and variables:
    Molecular point group: c1

    Geometry (in Angstrom), charge = 0, multiplicity = 1:

    H           -2.410797233804    -0.317514135432    -0.703276126754
    O           -2.022542837806    -0.061255389102     0.120175239986
    C           -0.948146586001     0.794452310689    -0.094171964668
    C            0.352753687456     0.031873729901    -0.009147976280
    H           -0.973910196233     1.266315438093    -1.069682885612
    H           -0.943721561338     1.559255709959     0.669406922806
    F            0.411642051288    -0.917573250579    -0.930445687528
    F            1.374037859058     0.852479001715    -0.213257453838
    F            0.522799036941    -0.538315431013     1.166327885319

  Mulliken Charges: (a.u.)
   Center  Symbol    Alpha    Beta     Spin     Total
       1     H     0.27106  0.27106  0.00000  0.45789
       2     O     4.36177  4.36177  0.00000 -0.72354
       3     C     3.05832  3.05832  0.00000 -0.11664
       4     C     2.45738  2.45738  0.00000  1.08523
       5     H     0.40959  0.40959  0.00000  0.18081
       6     H     0.39833  0.39833  0.00000  0.20334
       7     F     4.68343  4.68343  0.00000 -0.36686
       8     F     4.68426  4.68426  0.00000 -0.36853
       9     F     4.67585  4.67585  0.00000 -0.35170

   Total alpha = 25.00000, Total beta = 25.00000, Total charge = -0.00000
