  ==> Input File <==

--------------------------------------------------------------------------
set {
	reference rhf
	basis 6-31G*
}

set_num_threads( 1 )
memory 2 gb

molecule MOL {
0 1

O	 0.363425	 1.059132	 -0.778111
C	 0.486307	 0.169203	 0.000779
C	 1.608116	 -0.841643	 0.000302
O	 -0.365418	 -0.057217	 0.991185
C	 2.990107	 -0.200498	 -0.000684
H	 1.468623	 -1.481519	 -0.865924
H	 1.469683	 -1.481289	 0.866878
H	 3.129736	 0.423364	 -0.875135
H	 3.757882	 -0.966877	 -0.001197
H	 3.130964	 0.423383	 0.873533
C	 -1.479223	 0.821176	 1.114740
C	 -2.292972	 0.357637	 2.304385
H	 -2.055386	 0.790676	 0.200032
H	 -1.118165	 1.832023	 1.246711
H	 -2.642559	 -0.658159	 2.159109
H	 -3.155930	 1.002432	 2.435496
H	 -1.700311	 0.388908	 3.211596

	symmetry c1
}
set optking {
	frozen_dihedral = ("
		2 4 11 13,
		11 4 2 3
	")
}

ee = energy('scf')
oeprop('DIPOLE', 'QUADRUPOLE', 'MULLIKEN_CHARGES')
f=open( 'psi4out.xyz', 'w' )
f.write( "17  " )
f.write( str(ee) + "\n" )
f.write( MOL.save_string_xyz() )
f.close()
--------------------------------------------------------------------------

    Molecular point group: c1

    Geometry (in Angstrom), charge = 0, multiplicity = 1:

       Center              X                  Y                   Z               Mass
    ------------   -----------------  -----------------  -----------------  -----------------
           O          0.186890320518     0.863467275562    -1.304875624316    15.994914619560
           C          0.309772320518    -0.026461724438    -0.525985624316    12.000000000000
           C          1.431581320518    -1.037307724438    -0.526462624316    12.000000000000
           O         -0.541952679482    -0.252881724438     0.464420375684    15.994914619560
           C          2.813572320518    -0.396162724438    -0.527448624316    12.000000000000
           H          1.292088320518    -1.677183724438    -1.392688624316     1.007825032070
           H          1.293148320518    -1.676953724438     0.340113375684     1.007825032070
           H          2.953201320518     0.227699275562    -1.401899624316     1.007825032070
           H          3.581347320518    -1.162541724438    -0.527961624316     1.007825032070
           H          2.954429320518     0.227718275562     0.346768375684     1.007825032070
           C         -1.655757679482     0.625511275562     0.587975375684    12.000000000000
           C         -2.469506679482     0.161972275562     1.777620375684    12.000000000000
           H         -2.231920679482     0.595011275562    -0.326732624316     1.007825032070
           H         -1.294699679482     1.636358275562     0.719946375684     1.007825032070
           H         -2.819093679482    -0.853823724438     1.632344375684     1.007825032070
           H         -3.332464679482     0.806767275562     1.908731375684     1.007825032070
           H         -1.876845679482     0.193243275562     2.684831375684     1.007825032070

  Charge       = 0
  Multiplicity = 1
  Basis Set: 6-31G*
  Basis Set:

    Orbital Energies (a.u.)
    -----------------------

    Doubly Occupied:

       1A    -20.602503     2A    -20.542375     3A    -11.370922
       4A    -11.284425     5A    -11.235902     6A    -11.222333
       7A    -11.222304     8A     -1.467589     9A     -1.361175
      10A     -1.071375    11A     -1.032162    12A     -0.911227
      13A     -0.850123    14A     -0.775274    15A     -0.693889
      16A     -0.686248    17A     -0.666134    18A     -0.619939
      19A     -0.592708    20A     -0.574945    21A     -0.556102
      22A     -0.531949    23A     -0.527541    24A     -0.510009
      25A     -0.502111    26A     -0.492200    27A     -0.451812
      28A     -0.432964

  @DF-RHF Final Energy:  -344.90982845027133

   => Energetics <=

    Nuclear Repulsion Energy =            314.9832615626244205
    One-Electron Energy =               -1094.2096943058284069
    Two-Electron Energy =                 434.3166042929325954
    DFT Exchange-Correlation Energy =       0.0000000000000000
    Empirical Dispersion Energy =           0.0000000000000000
    PCM Polarization Energy =               0.0000000000000000
    EFP Energy =                            0.0000000000000000
    Total Energy =                       -344.9098284502713909

  Mulliken Charges: (a.u.)
   Center  Symbol    Alpha    Beta     Spin     Total
       1     O     4.28636  4.28636  0.00000 -0.57273
       2     C     2.60625  2.60625  0.00000  0.78751
       3     C     3.20566  3.20566  0.00000 -0.41132
       4     O     4.31067  4.31067  0.00000 -0.62133
       5     C     3.24554  3.24554  0.00000 -0.49108
       6     H     0.40062  0.40062  0.00000  0.19875
       7     H     0.40043  0.40043  0.00000  0.19914
       8     H     0.40378  0.40378  0.00000  0.19243
       9     H     0.41420  0.41420  0.00000  0.17159
      10     H     0.41463  0.41463  0.00000  0.17075
      11     C     3.00328  3.00328  0.00000 -0.00655
      12     C     3.24847  3.24847  0.00000 -0.49694
      13     H     0.41001  0.41001  0.00000  0.17999
      14     H     0.41007  0.41007  0.00000  0.17986
      15     H     0.41182  0.41182  0.00000  0.17635
      16     H     0.41625  0.41625  0.00000  0.16749
      17     H     0.41195  0.41195  0.00000  0.17609

   Total alpha = 28.00000, Total beta = 28.00000, Total charge = -0.00000
