  ==> Input File <==

--------------------------------------------------------------------------
set {
	reference rhf
	basis cc-pvtz
}

set_num_threads( 4 )
memory 2 gb

molecule MOL {
0 1

H	 -2.498963	 -0.741158	 -0.729149
O	 -2.346257	 -0.289210	 0.080372
C	 -1.183935	 0.486039	 -0.009831
C	 0.062853	 -0.375310	 0.027457
H	 -1.178881	 1.094526	 -0.908634
H	 -1.184406	 1.155156	 0.838676
O	 1.087116	 0.310721	 -0.614181
H	 -0.128351	 -1.328487	 -0.468316
H	 0.324269	 -0.591846	 1.061066
C	 2.308186	 -0.352595	 -0.629012
H	 2.236120	 -1.306298	 -1.147214
H	 3.018571	 0.273130	 -1.149115
H	 2.673329	 -0.535266	 0.378868

	symmetry c1
}
set optking {
	frozen_dihedral = ("
		8 4 3 5
	")
}

ee = optimize('scf')
oeprop('DIPOLE', 'QUADRUPOLE', 'MULLIKEN_CHARGES')
f=open( 'psi4out.xyz', 'w' )
f.write( "13  " )
f.write( str(ee) + "\n" )
f.write( MOL.save_string_xyz() )
f.close()
--------------------------------------------------------------------------

    Molecular point group: c1
  Charge       = 0
  Multiplicity = 1
  Basis Set: CC-PVTZ
  Basis Set:
  @DF-RHF Final Energy:  -268.05982412023582
    Total Energy =                       -268.0598241202357030
    Molecular point group: c1
  Basis Set: CC-PVTZ
  Basis Set:
  Basis Set: CC-PVTZ
  Basis Set:
  @DF-RHF Final Energy:  -268.06012855405100
    Total Energy =                       -268.0601285540509480
  Basis Set: CC-PVTZ
  Basis Set:
  Basis Set: CC-PVTZ
  Basis Set:
  @DF-RHF Final Energy:  -268.06022140441314
    Total Energy =                       -268.0602214044130847
  Basis Set: CC-PVTZ
  Basis Set:
  Basis Set: CC-PVTZ
  Basis Set:
  @DF-RHF Final Energy:  -268.06022417692634
    Total Energy =                       -268.0602241769265675
  Basis Set: CC-PVTZ
  Basis Set:
  Charge       = 0
  Multiplicity = 1
  Basis Set: CC-PVTZ
  Basis Set:

    Orbital Energies (a.u.)
    -----------------------

    Doubly Occupied:

       1A    -20.557183     2A    -20.552778     3A    -11.269917
       4A    -11.268359     5A    -11.267395     6A     -1.392969
       7A     -1.369607     8A     -1.018760     9A     -0.915124
      10A     -0.843866    11A     -0.710483    12A     -0.679118
      13A     -0.662491    14A     -0.634457    15A     -0.607079
      16A     -0.569099    17A     -0.543203    18A     -0.492934
      19A     -0.484089    20A     -0.441169    21A     -0.423929

  @DF-RHF Final Energy:  -268.06022446004215

   => Energetics <=

    Nuclear Repulsion Energy =            190.4057164580729591
    One-Electron Energy =                -743.5238585181618873
    Two-Electron Energy =                 285.0579176000468351
    DFT Exchange-Correlation Energy =       0.0000000000000000
    Empirical Dispersion Energy =           0.0000000000000000
    PCM Polarization Energy =               0.0000000000000000
    EFP Energy =                            0.0000000000000000
    Total Energy =                       -268.0602244600421500
    Molecular point group: c1
  Basis Set: CC-PVTZ
  Basis Set:

  -Total Gradient:
     Atom            X                  Y                   Z
    ------   -----------------  -----------------  -----------------
       1       -0.000009760547    -0.000000059349     0.000000121718
       2        0.000013187714     0.000004033357    -0.000020041857
       3       -0.002813956135    -0.004078490494    -0.001585874184
       4        0.001878857459     0.002785181222    -0.004027874495
       5        0.002072398417     0.002953228589     0.002020236034
       6        0.000006646744     0.000007629734     0.000004003701
       7        0.000012269488    -0.000012327766     0.000008450105
       8       -0.001170548702    -0.001677847018     0.003600503757
       9        0.000007824631     0.000018793780    -0.000004662336
      10        0.000002020479    -0.000004999852     0.000013881612
      11        0.000001928235     0.000000520854    -0.000006318653
      12       -0.000006843684     0.000002497273    -0.000003277943
      13        0.000005975890     0.000001839671     0.000000852541

  **** Optimization is complete! (in 5 steps) ****
    Final optimized geometry and variables:
    Molecular point group: c1

    Geometry (in Angstrom), charge = 0, multiplicity = 1:

    H           -2.494378933827    -0.692452187847    -0.424633500523
    O           -2.325049416680    -0.206061609514     0.361558495771
    C           -1.152638543181     0.541603909188     0.220068911366
    C            0.094595916098    -0.330872711680     0.220230390377
    H           -1.150652849356     1.154547197441    -0.675430344250
    H           -1.123498195298     1.222526230782     1.059485946663
    O            1.127016050139     0.360799098063    -0.399896332959
    H           -0.118820007730    -1.274553209799    -0.283197692327
    H            0.367760166472    -0.588805997312     1.242090523389
    C            2.356085616897    -0.287632947670    -0.372680250242
    H            2.307859271345    -1.251465903184    -0.874581507905
    H            3.071043386132     0.337413887709    -0.887246295672
    H            2.698770576866    -0.447350286643     0.646833705907

  Mulliken Charges: (a.u.)
   Center  Symbol    Alpha    Beta     Spin     Total
       1     H     0.39346  0.39346  0.00000  0.21308
       2     O     4.20263  4.20263  0.00000 -0.40527
       3     C     2.97103  2.97103  0.00000  0.05795
       4     C     2.96336  2.96336  0.00000  0.07327
       5     H     0.46678  0.46678  0.00000  0.06644
       6     H     0.45609  0.45609  0.00000  0.08782
       7     O     4.17465  4.17465  0.00000 -0.34930
       8     H     0.48131  0.48131  0.00000  0.03738
       9     H     0.47334  0.47334  0.00000  0.05333
      10     C     3.03048  3.03048  0.00000 -0.06096
      11     H     0.47113  0.47113  0.00000  0.05773
      12     H     0.44601  0.44601  0.00000  0.10797
      13     H     0.46972  0.46972  0.00000  0.06055

   Total alpha = 21.00000, Total beta = 21.00000, Total charge = -0.00000
