  ==> Input File <==

--------------------------------------------------------------------------
set {
	reference rhf
	basis cc-pvtz
}

set_num_threads( 4 )
memory 2 gb

molecule MOL {
0 1

H	 -3.941973	 0.934228	 -0.390224
C	 -3.240162	 0.342701	 0.161016
C	 -2.105997	 -0.000418	 -0.398703
H	 -3.485368	 0.047206	 1.162193
O	 -1.189946	 -0.765863	 0.237511
H	 -1.846458	 0.297311	 -1.398265
C	 0.026572	 -0.995256	 -0.379403
C	 1.057223	 0.049888	 -0.004615
H	 -0.054361	 -1.010670	 -1.459674
H	 0.397526	 -1.952058	 -0.044198
F	 0.646847	 0.708717	 1.060569
F	 2.221848	 -0.490333	 0.284034
F	 1.249506	 0.919611	 -0.966419

	symmetry c1
}
set optking {
	frozen_dihedral = ("
		11 8 7 9
	")
}

ee = optimize('scf')
oeprop('DIPOLE', 'QUADRUPOLE', 'MULLIKEN_CHARGES')
f=open( 'psi4out.xyz', 'w' )
f.write( "13  " )
f.write( str(ee) + "\n" )
f.write( MOL.save_string_xyz() )
f.close()
--------------------------------------------------------------------------

    Molecular point group: c1
  Charge       = 0
  Multiplicity = 1
  Basis Set: CC-PVTZ
  Basis Set:
  @DF-RHF Final Energy:  -527.73535546140101
    Total Energy =                       -527.7353554614012410
    Molecular point group: c1
  Basis Set: CC-PVTZ
  Basis Set:
  Basis Set: CC-PVTZ
  Basis Set:
  @DF-RHF Final Energy:  -527.73653152839563
    Total Energy =                       -527.7365315283957443
  Basis Set: CC-PVTZ
  Basis Set:
  Basis Set: CC-PVTZ
  Basis Set:
  @DF-RHF Final Energy:  -527.73682368447385
    Total Energy =                       -527.7368236844738476
  Basis Set: CC-PVTZ
  Basis Set:
  Basis Set: CC-PVTZ
  Basis Set:
  @DF-RHF Final Energy:  -527.73686408585479
    Total Energy =                       -527.7368640858546769
  Basis Set: CC-PVTZ
  Basis Set:
  @DF-RHF Final Energy:  -527.73687574979203
    Total Energy =                       -527.7368757497921479
  Basis Set: CC-PVTZ
  Basis Set:
  @DF-RHF Final Energy:  -527.73688217538665
    Total Energy =                       -527.7368821753872226
  Basis Set: CC-PVTZ
  Basis Set:
  Basis Set: CC-PVTZ
  Basis Set:
  @DF-RHF Final Energy:  -527.73688563710039
    Total Energy =                       -527.7368856371003858
  Basis Set: CC-PVTZ
  Basis Set:
  Basis Set: CC-PVTZ
  Basis Set:
  @DF-RHF Final Energy:  -527.73688665775921
    Total Energy =                       -527.7368866577594417
  Basis Set: CC-PVTZ
  Basis Set:
  Charge       = 0
  Multiplicity = 1
  Basis Set: CC-PVTZ
  Basis Set:

    Orbital Energies (a.u.)
    -----------------------

    Doubly Occupied:

       1A    -26.341221     2A    -26.338823     3A    -26.337722
       4A    -20.602449     5A    -11.498992     6A    -11.319789
       7A    -11.297797     8A    -11.214958     9A     -1.750286
      10A     -1.647415    11A     -1.643152    12A     -1.443382
      13A     -1.084027    14A     -1.019512    15A     -0.932073
      16A     -0.842483    17A     -0.838557    18A     -0.827242
      19A     -0.798235    20A     -0.727552    21A     -0.721456
      22A     -0.701163    23A     -0.680458    24A     -0.669176
      25A     -0.661618    26A     -0.649626    27A     -0.636714
      28A     -0.587542    29A     -0.565835    30A     -0.527133
      31A     -0.516071    32A     -0.357683

  @DF-RHF Final Energy:  -527.73688727619719

   => Energetics <=

    Nuclear Repulsion Energy =            414.1045658860069238
    One-Electron Energy =               -1552.1226140081175799
    Two-Electron Energy =                 610.2811608459135186
    DFT Exchange-Correlation Energy =       0.0000000000000000
    Empirical Dispersion Energy =           0.0000000000000000
    PCM Polarization Energy =               0.0000000000000000
    EFP Energy =                            0.0000000000000000
    Total Energy =                       -527.7368872761971943
    Molecular point group: c1
  Basis Set: CC-PVTZ
  Basis Set:

  -Total Gradient:
     Atom            X                  Y                   Z
    ------   -----------------  -----------------  -----------------
       1        0.000007816236     0.000008799845     0.000007158174
       2       -0.000010450409    -0.000001623619    -0.000010032502
       3        0.000038106954    -0.000032497954     0.000007384297
       4       -0.000002637144    -0.000005139413     0.000001878910
       5        0.000053599933    -0.000004236318    -0.000031926001
       6        0.000001829313     0.000018791857     0.000004004967
       7        0.003116633119    -0.002555074933    -0.000792707276
       8        0.001791434917    -0.002440127693     0.002645573664
       9       -0.003148156379     0.002715783974     0.000144643407
      10       -0.000006330875     0.000019654761    -0.000009533619
      11       -0.001815943129     0.002308682598    -0.002091619796
      12       -0.000012272513     0.000029150634    -0.000000925312
      13       -0.000013630034    -0.000062163742     0.000126101085

  **** Optimization is complete! (in 9 steps) ****
    Final optimized geometry and variables:
    Molecular point group: c1

    Geometry (in Angstrom), charge = 0, multiplicity = 1:

    H           -3.829091713890     1.020011552783    -0.362619225522
    C           -3.170525831160     0.358211589349     0.161537466263
    C           -2.051391690632    -0.021418757724    -0.404725906157
    H           -3.447415736480     0.020361408000     1.140842419865
    O           -1.194695663911    -0.882705413262     0.189809967112
    H           -1.760868906173     0.318265082460    -1.383219166609
    C            0.057641171955    -1.047818886559    -0.375859162577
    C            1.040393127882     0.065707426343     0.008485454377
    H           -0.009362203153    -1.063657521069    -1.456510346050
    H            0.452431479071    -1.983952680322    -0.017542852757
    F            0.649748346600     0.740858693114     1.057755528947
    F            2.232341214153    -0.434458713317     0.256116101490
    F            1.184421224513     0.933957402034    -0.977734467674

  Mulliken Charges: (a.u.)
   Center  Symbol    Alpha    Beta     Spin     Total
       1     H     0.42519  0.42519  0.00000  0.14962
       2     C     3.19392  3.19392  0.00000 -0.38783
       3     C     2.96266  2.96266  0.00000  0.07468
       4     H     0.42459  0.42459  0.00000  0.15082
       5     O     4.14014  4.14014  0.00000 -0.28027
       6     H     0.43362  0.43362  0.00000  0.13277
       7     C     3.02864  3.02864  0.00000 -0.05728
       8     C     2.67477  2.67477  0.00000  0.65046
       9     H     0.45526  0.45526  0.00000  0.08948
      10     H     0.43372  0.43372  0.00000  0.13256
      11     F     4.60272  4.60272  0.00000 -0.20544
      12     F     4.60980  4.60980  0.00000 -0.21960
      13     F     4.61498  4.61498  0.00000 -0.22995

   Total alpha = 32.00000, Total beta = 32.00000, Total charge = -0.00000
