  ==> Input File <==

--------------------------------------------------------------------------
set {
	reference rhf
	basis 6-31G*
}

set_num_threads( 4 )
memory 2 gb

molecule MOL {
0 1

H	 2.332609	 0.878551	 -1.051851
C	 2.357710	 0.000000	 -0.417167
C	 1.175432	 0.000000	 0.532082
H	 3.291263	 0.000000	 0.136880
H	 2.332609	 -0.878551	 -1.051851
O	 0.000000	 0.000000	 -0.221444
H	 1.206604	 0.877321	 1.177902
H	 1.206604	 -0.877321	 1.177902
C	 -1.175432	 0.000000	 0.532082
C	 -1.434247	 -1.410859	 1.023351
H	 -2.009942	 0.350013	 -0.075233
H	 -1.080339	 0.684414	 1.374864
H	 -1.539982	 -2.089521	 0.184575
H	 -2.343772	 -1.447569	 1.614879
H	 -0.609075	 -1.754651	 1.636705

	symmetry c1
}
set optking {
	frozen_dihedral = ("
		11 9 6 3
	")
}

ee = optimize('scf')
oeprop('DIPOLE', 'QUADRUPOLE', 'MULLIKEN_CHARGES')
f=open( 'psi4out.xyz', 'w' )
f.write( "15  " )
f.write( str(ee) + "\n" )
f.write( MOL.save_string_xyz() )
f.close()
--------------------------------------------------------------------------

    Molecular point group: c1
  Charge       = 0
  Multiplicity = 1
  Basis Set: 6-31G*
  Basis Set:
  @DF-RHF Final Energy:  -232.13966288448677
    Total Energy =                       -232.1396628844869383
    Molecular point group: c1
  Basis Set: 6-31G*
  Basis Set:
  Basis Set: 6-31G*
  Basis Set:
  @DF-RHF Final Energy:  -232.14128921738535
    Total Energy =                       -232.1412892173851787
  Basis Set: 6-31G*
  Basis Set:
  Basis Set: 6-31G*
  Basis Set:
  @DF-RHF Final Energy:  -232.14208938363168
    Total Energy =                       -232.1420893836316850
  Basis Set: 6-31G*
  Basis Set:
  Basis Set: 6-31G*
  Basis Set:
  @DF-RHF Final Energy:  -232.14211357780013
    Total Energy =                       -232.1421135778002736
  Basis Set: 6-31G*
  Basis Set:
  Basis Set: 6-31G*
  Basis Set:
  @DF-RHF Final Energy:  -232.14211489629452
    Total Energy =                       -232.1421148962947427
  Basis Set: 6-31G*
  Basis Set:
  Charge       = 0
  Multiplicity = 1
  Basis Set: 6-31G*
  Basis Set:

    Orbital Energies (a.u.)
    -----------------------

    Doubly Occupied:

       1A    -20.550033     2A    -11.268262     3A    -11.267778
       4A    -11.210813     5A    -11.208360     6A     -1.374629
       7A     -1.040672     8A     -0.986091     9A     -0.862207
      10A     -0.812790    11A     -0.672401    12A     -0.646788
      13A     -0.644175    14A     -0.575534    15A     -0.548734
      16A     -0.544267    17A     -0.523825    18A     -0.502455
      19A     -0.487135    20A     -0.456549    21A     -0.407807

  @DF-RHF Final Energy:  -232.14211497782208

   => Energetics <=

    Nuclear Repulsion Energy =            192.5374829317380545
    One-Electron Energy =                -696.1765875169976425
    Two-Electron Energy =                 271.4969896074372855
    DFT Exchange-Correlation Energy =       0.0000000000000000
    Empirical Dispersion Energy =           0.0000000000000000
    PCM Polarization Energy =               0.0000000000000000
    EFP Energy =                            0.0000000000000000
    Total Energy =                       -232.1421149778223025
    Molecular point group: c1
  Basis Set: 6-31G*
  Basis Set:

  -Total Gradient:
     Atom            X                  Y                   Z
    ------   -----------------  -----------------  -----------------
       1        0.000001656432     0.000001163577    -0.000002818178
       2        0.000006763565    -0.000001141702     0.000001152100
       3        0.000011447866     0.000023619288    -0.000003408006
       4       -0.000000264022     0.000001650696    -0.000001608067
       5        0.000000814055     0.000000924292     0.000000162257
       6        0.000010997941    -0.000043044123     0.000010527456
       7       -0.000003197116     0.000001549795    -0.000002000010
       8       -0.000004785700     0.000002049156     0.000001728351
       9       -0.000037109362    -0.000022757000    -0.000021314443
      10        0.000011859169    -0.000003954610     0.000004251064
      11       -0.000000174388     0.000043946682     0.000014386819
      12       -0.000001753362    -0.000003675945    -0.000000846569
      13       -0.000001755414     0.000002341904    -0.000001347224
      14        0.000006023683     0.000004490853    -0.000004441513
      15       -0.000000523346    -0.000007162861     0.000005575962

  **** Optimization is complete! (in 6 steps) ****
    Final optimized geometry and variables:
    Molecular point group: c1

    Geometry (in Angstrom), charge = 0, multiplicity = 1:

    H            2.109640493600     1.263954788562    -1.338006670404
    C            2.187887754312     0.358969349514    -0.746288248080
    C            1.029656734828     0.263308187179     0.227867658138
    H            3.133906854724     0.373202675776    -0.213666433313
    H            2.184619814714    -0.489524712746    -1.421166623827
    O           -0.160452797908     0.254671479218    -0.505796338419
    H            1.038194627224     1.111895419017     0.911362125197
    H            1.122280150213    -0.638089880970     0.829682331094
    C           -1.345344006717     0.256904208221     0.238626846350
    C           -1.719776790919    -1.118537304972     0.776196637472
    H           -2.118104219337     0.606134068160    -0.435084603237
    H           -1.274718661248     0.975972550812     1.053647768586
    H           -1.779449365866    -1.834339312210    -0.036463803028
    H           -2.687188059503    -1.076836556714     1.268236922384
    H           -0.997562076075    -1.484224577333     1.498229709096

  Mulliken Charges: (a.u.)
   Center  Symbol    Alpha    Beta     Spin     Total
       1     H     0.41350  0.41350  0.00000  0.17300
       2     C     3.24349  3.24349  0.00000 -0.48697
       3     C     2.98956  2.98956  0.00000  0.02087
       4     H     0.42293  0.42293  0.00000  0.15413
       5     H     0.41344  0.41344  0.00000  0.17312
       6     O     4.31015  4.31015  0.00000 -0.62029
       7     H     0.43231  0.43231  0.00000  0.13538
       8     H     0.43128  0.43128  0.00000  0.13745
       9     C     2.99151  2.99151  0.00000  0.01698
      10     C     3.25088  3.25088  0.00000 -0.50176
      11     H     0.41518  0.41518  0.00000  0.16964
      12     H     0.43189  0.43189  0.00000  0.13622
      13     H     0.41292  0.41292  0.00000  0.17416
      14     H     0.42151  0.42151  0.00000  0.15698
      15     H     0.41944  0.41944  0.00000  0.16111

   Total alpha = 21.00000, Total beta = 21.00000, Total charge =  0.00000
