  ==> Input File <==

--------------------------------------------------------------------------
set {
	reference rhf
	basis 6-31G*
}

set_num_threads( 4 )
memory 2 gb

molecule MOL {
0 1

H	 -2.658888	 -0.928340	 1.666655
O	 -1.823239	 -0.630469	 1.336897
C	 -2.026376	 0.340750	 0.341611
C	 -0.673256	 0.843270	 -0.132153
H	 -2.574097	 -0.084837	 -0.497325
H	 -2.615351	 1.170080	 0.731448
C	 0.486613	 -0.083066	 0.235839
H	 -0.715586	 0.970948	 -1.210718
H	 -0.508072	 1.829858	 0.297090
C	 1.840406	 0.433480	 -0.254303
H	 0.300215	 -1.068318	 -0.178947
H	 0.519509	 -0.203625	 1.318070
C	 3.000220	 -0.489290	 0.118523
H	 1.809207	 0.553576	 -1.335192
H	 2.021860	 1.424500	 0.157276
H	 2.864959	 -1.479103	 -0.307933
H	 3.946603	 -0.099227	 -0.243630
H	 3.080049	 -0.602997	 1.196117

	symmetry c1
}
set optking {
	frozen_dihedral = ("
		2 3 4 8
	")
}

ee = optimize('scf')
oeprop('DIPOLE', 'QUADRUPOLE', 'MULLIKEN_CHARGES')
f=open( 'psi4out.xyz', 'w' )
f.write( "18  " )
f.write( str(ee) + "\n" )
f.write( MOL.save_string_xyz() )
f.close()
--------------------------------------------------------------------------

    Molecular point group: c1
  Charge       = 0
  Multiplicity = 1
  Basis Set: 6-31G*
  Basis Set:
  @DF-RHF Final Energy:  -271.17172988169762
    Total Energy =                       -271.1717298816976154
    Molecular point group: c1
  Basis Set: 6-31G*
  Basis Set:
  Basis Set: 6-31G*
  Basis Set:
  @DF-RHF Final Energy:  -271.17222968394856
    Total Energy =                       -271.1722296839485580
  Basis Set: 6-31G*
  Basis Set:
  Basis Set: 6-31G*
  Basis Set:
  @DF-RHF Final Energy:  -271.17298932229659
    Total Energy =                       -271.1729893222966439
  Basis Set: 6-31G*
  Basis Set:
  Basis Set: 6-31G*
  Basis Set:
  @DF-RHF Final Energy:  -271.17299839251422
    Total Energy =                       -271.1729983925141028
  Basis Set: 6-31G*
  Basis Set:
  Basis Set: 6-31G*
  Basis Set:
  @DF-RHF Final Energy:  -271.17300702884739
    Total Energy =                       -271.1730070288472803
  Basis Set: 6-31G*
  Basis Set:
  Basis Set: 6-31G*
  Basis Set:
  @DF-RHF Final Energy:  -271.17301159208887
    Total Energy =                       -271.1730115920888693
  Basis Set: 6-31G*
  Basis Set:
  Charge       = 0
  Multiplicity = 1
  Basis Set: 6-31G*
  Basis Set:

    Orbital Energies (a.u.)
    -----------------------

    Doubly Occupied:

       1A    -20.552624     2A    -11.268947     3A    -11.212973
       4A    -11.208581     5A    -11.202939     6A    -11.202648
       7A     -1.359517     8A     -1.071197     9A     -1.004626
      10A     -0.912429    11A     -0.817177    12A     -0.780840
      13A     -0.696355    14A     -0.655855    15A     -0.616417
      16A     -0.580132    17A     -0.571312    18A     -0.553013
      19A     -0.515974    20A     -0.499360    21A     -0.493410
      22A     -0.462499    23A     -0.457620    24A     -0.442172
      25A     -0.425479

  @DF-RHF Final Energy:  -271.17301158330622

   => Energetics <=

    Nuclear Repulsion Energy =            249.8743994733796114
    One-Electron Energy =                -862.9666273721015841
    Two-Electron Energy =                 341.9192163154158379
    DFT Exchange-Correlation Energy =       0.0000000000000000
    Empirical Dispersion Energy =           0.0000000000000000
    PCM Polarization Energy =               0.0000000000000000
    EFP Energy =                            0.0000000000000000
    Total Energy =                       -271.1730115833061063
    Molecular point group: c1
  Basis Set: 6-31G*
  Basis Set:

  -Total Gradient:
     Atom            X                  Y                   Z
    ------   -----------------  -----------------  -----------------
       1        0.000015931513     0.000038281304    -0.000039331146
       2        0.000271531638    -0.003171893358    -0.002866761167
       3       -0.000018228602     0.002946836796     0.003780398460
       4       -0.002017786569     0.005240502078    -0.000267362608
       5        0.000006973866     0.000027672731    -0.000025582931
       6        0.000014958634     0.000036124632    -0.000053622657
       7        0.000028971804    -0.000040669018    -0.000021395826
       8        0.001706562061    -0.005126029758    -0.000504969164
       9       -0.000002670803     0.000022262923    -0.000020296935
      10        0.000003047763     0.000027695433     0.000033509592
      11        0.000018392285    -0.000014201158     0.000015344180
      12       -0.000002381058     0.000014693266    -0.000016382662
      13       -0.000023084364    -0.000020334077    -0.000019673349
      14       -0.000003369442     0.000011594117     0.000002307294
      15        0.000009258737     0.000007145535     0.000010210471
      16        0.000000644947    -0.000009949906     0.000008888851
      17       -0.000010077838    -0.000000232453    -0.000012237748
      18        0.000001325428     0.000010500915    -0.000003042657

  **** Optimization is complete! (in 7 steps) ****
    Final optimized geometry and variables:
    Molecular point group: c1

    Geometry (in Angstrom), charge = 0, multiplicity = 1:

    H           -2.854564210388    -0.957092704610     1.318240422043
    O           -1.992777871719    -0.669821473599     1.052562925238
    C           -2.120130273814     0.288024702472     0.031381173637
    C           -0.736602563052     0.800813679971    -0.403056573470
    H           -2.621083094765    -0.163913357562    -0.822532007239
    H           -2.738177467182     1.119514188233     0.361924496630
    C            0.426305378555    -0.132114233837    -0.046246569378
    H           -0.743229093124     0.908077887280    -1.484679979386
    H           -0.549359472373     1.782529568165     0.021722767707
    C            1.764974052210     0.388298803504    -0.573465999838
    H            0.236348369735    -1.121698570749    -0.453953018371
    H            0.480192278333    -0.254437154953     1.029436377879
    C            2.936676024699    -0.528282375221    -0.222682376907
    H            1.711533967013     0.505314050193    -1.654263510173
    H            1.952544499664     1.381384348075    -0.169434238978
    H            2.795506893303    -1.521353821104    -0.639949550279
    H            3.873085358423    -0.137063015469    -0.608946963662
    H            3.040974296640    -0.635498682050     0.853225373440

  Mulliken Charges: (a.u.)
   Center  Symbol    Alpha    Beta     Spin     Total
       1     H     0.28051  0.28051  0.00000  0.43898
       2     O     4.37069  4.37069  0.00000 -0.74137
       3     C     2.99158  2.99158  0.00000  0.01685
       4     C     3.17349  3.17349  0.00000 -0.34699
       5     H     0.43143  0.43143  0.00000  0.13715
       6     H     0.42941  0.42941  0.00000  0.14118
       7     C     3.14431  3.14431  0.00000 -0.28861
       8     H     0.42139  0.42139  0.00000  0.15721
       9     H     0.41903  0.41903  0.00000  0.16194
      10     C     3.15296  3.15296  0.00000 -0.30592
      11     H     0.42088  0.42088  0.00000  0.15824
      12     H     0.41063  0.41063  0.00000  0.17874
      13     C     3.23841  3.23841  0.00000 -0.47683
      14     H     0.42591  0.42591  0.00000  0.14818
      15     H     0.42491  0.42491  0.00000  0.15019
      16     H     0.42207  0.42207  0.00000  0.15587
      17     H     0.42113  0.42113  0.00000  0.15775
      18     H     0.42128  0.42128  0.00000  0.15745

   Total alpha = 25.00000, Total beta = 25.00000, Total charge =  0.00000
