                              Psi4 1.0.54 Driver

  ==> Input File <==

--------------------------------------------------------------------------
set {
	reference rhf
	basis cc-pvtz
}

set_num_threads( 4 )
memory 2 gb

molecule MOL {
0 1

O	 0.868210	 1.071625	 -0.665752
C	 0.576499	 0.134701	 -0.003900
C	 -0.765656	 -0.550508	 -0.002152
O	 1.410325	 -0.439839	 0.847341
C	 -1.945526	 0.411052	 0.000603
H	 -0.794329	 -1.203792	 -0.868145
H	 -0.791555	 -1.205429	 0.862701
C	 -3.282915	 -0.321280	 0.002596
H	 -1.880300	 1.059126	 -0.864925
H	 -1.877207	 1.057892	 0.866807
H	 -3.388495	 -0.952755	 -0.873419
H	 -4.107811	 0.380864	 0.004116
H	 -3.385717	 -0.953283	 0.878571
C	 2.709754	 0.106589	 0.951800
H	 3.221396	 0.057049	 0.002157
H	 3.225723	 -0.492258	 1.684499
H	 2.665529	 1.135861	 1.275350

	symmetry c1
}
set optking {
	frozen_dihedral = ("
		1 2 3 6
	")
}

ee,wfn = optimize('scf', return_wfn=True)
oeprop( wfn, 'DIPOLE', 'QUADRUPOLE', 'MULLIKEN_CHARGES')
f=open( 'psi4out.xyz', 'w' )
f.write( "17  " )
f.write( str(ee) + "\n" )
f.write( MOL.save_string_xyz() )
f.close()
--------------------------------------------------------------------------

    Molecular point group: c1
  Charge       = 0
  Multiplicity = 1
  Basis Set: CC-PVTZ
  Basis Set:
  @DF-RHF Final Energy:  -345.03388933192292
    Total Energy =                       -345.0338893319228077
    Molecular point group: c1
  Basis Set: CC-PVTZ
  Basis Set:
  Basis Set: CC-PVTZ
  Basis Set:
  @DF-RHF Final Energy:  -345.03327074382798
    Total Energy =                       -345.0332707438282114
  Basis Set: CC-PVTZ
  Basis Set:
  Basis Set: CC-PVTZ
  Basis Set:
  @DF-RHF Final Energy:  -345.03418280621190
    Total Energy =                       -345.0341828062120157
  Basis Set: CC-PVTZ
  Basis Set:
  Basis Set: CC-PVTZ
  Basis Set:
  @DF-RHF Final Energy:  -345.03442595712733
    Total Energy =                       -345.0344259571276666
  Basis Set: CC-PVTZ
  Basis Set:
  Basis Set: CC-PVTZ
  Basis Set:
  @DF-RHF Final Energy:  -345.03443682922585
    Total Energy =                       -345.0344368292262516
  Basis Set: CC-PVTZ
  Basis Set:
  Charge       = 0
  Multiplicity = 1
  Basis Set: CC-PVTZ
  Basis Set:

    Orbital Energies (a.u.)
    -----------------------

    Doubly Occupied:

       1A    -20.598591     2A    -20.532515     3A    -11.364865
       4A    -11.278840     5A    -11.233600     6A    -11.223283
       7A    -11.213765     8A     -1.473044     9A     -1.365492
      10A     -1.082095    11A     -1.002012    12A     -0.941393
      13A     -0.828290    14A     -0.771963    15A     -0.701744
      16A     -0.685298    17A     -0.676058    18A     -0.638065
      19A     -0.596245    20A     -0.580694    21A     -0.564529
      22A     -0.532736    23A     -0.525330    24A     -0.502152
      25A     -0.486051    26A     -0.480220    27A     -0.460193
      28A     -0.439332

  @DF-RHF Final Energy:  -345.03444027556543

   => Energetics <=

    Nuclear Repulsion Energy =            313.0967394933695687
    One-Electron Energy =               -1090.7055746416660895
    Two-Electron Energy =                 432.5743948727308066
    DFT Exchange-Correlation Energy =       0.0000000000000000
    Empirical Dispersion Energy =           0.0000000000000000
    PCM Polarization Energy =               0.0000000000000000
    EFP Energy =                            0.0000000000000000
    Total Energy =                       -345.0344402755657143
    Molecular point group: c1
  Basis Set: CC-PVTZ
  Basis Set:

  -Total Gradient:
     Atom            X                  Y                   Z
    ------   -----------------  -----------------  -----------------
       1        0.000385628464    -0.000776433645    -0.000524348420
       2       -0.000678599329     0.001275162320     0.000619566627
       3        0.000546386551    -0.001045565352     0.000357759984
       4        0.000103587980    -0.000043859754     0.000062937523
       5       -0.000008489524     0.000003139383     0.000018656637
       6       -0.000315773872     0.000613667605    -0.000541851065
       7        0.000007573460    -0.000016788421     0.000006387755
       8       -0.000000366664     0.000001310831    -0.000001134656
       9       -0.000004705723     0.000005664161    -0.000007586584
      10       -0.000000949176     0.000008206332     0.000002692991
      11       -0.000000747486    -0.000013433005    -0.000010492394
      12       -0.000009268347     0.000010148453    -0.000000582763
      13       -0.000003440430    -0.000005475158     0.000009441621
      14       -0.000049266916    -0.000021754666     0.000027972149
      15        0.000009908437    -0.000001764289    -0.000032054347
      16        0.000032162350     0.000002149452     0.000012833365
      17       -0.000013639777     0.000005625753    -0.000000198422

  **** Optimization is complete! (in 6 steps) ****
    Final optimized geometry and variables:
    Molecular point group: c1

    Geometry (in Angstrom), charge = 0, multiplicity = 1:

    O            0.910890744011     0.964275106754    -0.795334848426
    C            0.603307347426     0.070090739180    -0.082326802394
    C           -0.731849068427    -0.631036911653    -0.116105540194
    O            1.420000181066    -0.450801675503     0.816985441501
    C           -1.899167589200     0.328592185230    -0.334256800517
    H           -0.681458414328    -1.335462097499    -0.941786562517
    H           -0.856463493457    -1.206725795830     0.790527987770
    C           -3.232861243143    -0.402179123245    -0.438585864606
    H           -1.718436806633     0.905101831649    -1.231764582995
    H           -1.936677145989     1.038641127839     0.485893101338
    H           -3.235991443608    -1.094446948874    -1.274013946455
    H           -4.046286294531     0.297862769047    -0.586848542738
    H           -3.444847486192    -0.969647571657     0.461491505133
    C            2.722223124202     0.093197607747     0.900632049577
    H            3.244273848047    -0.022648593166    -0.037600705161
    H            3.225710881452    -0.458360536213     1.677914444946
    H            2.680913866905     1.142078933789     1.153710277336

  Mulliken Charges: (a.u.)
   Center  Symbol    Alpha    Beta     Spin     Total
       1     O     4.20152  4.20152  0.00000 -0.40303
       2     C     2.81366  2.81366  0.00000  0.37269
       3     C     3.08533  3.08533  0.00000 -0.17066
       4     O     4.14354  4.14354  0.00000 -0.28708
       5     C     3.08373  3.08373  0.00000 -0.16746
       6     H     0.44614  0.44614  0.00000  0.10773
       7     H     0.43860  0.43860  0.00000  0.12280
       8     C     3.15115  3.15115  0.00000 -0.30229
       9     H     0.43985  0.43985  0.00000  0.12030
      10     H     0.45202  0.45202  0.00000  0.09596
      11     H     0.45453  0.45453  0.00000  0.09095
      12     H     0.44587  0.44587  0.00000  0.10826
      13     H     0.45565  0.45565  0.00000  0.08869
      14     C     3.03488  3.03488  0.00000 -0.06976
      15     H     0.45434  0.45434  0.00000  0.09132
      16     H     0.44503  0.44503  0.00000  0.10993
      17     H     0.45418  0.45418  0.00000  0.09164

   Total alpha = 28.00000, Total beta = 28.00000, Total charge = -0.00000

*** Psi4 exiting successfully. Buy a developer a beer!
