  ==> Input File <==

--------------------------------------------------------------------------
set {
	reference rhf
	basis cc-pvtz
}

set_num_threads( 4 )
memory 2 gb

molecule MOL {
0 1

H	 -3.034039	 -0.667848	 0.004703
O	 -2.240597	 -1.171748	 0.000934
C	 -1.159675	 -0.364500	 0.000370
C	 -0.685027	 0.237761	 1.147717
C	 -0.526434	 -0.152451	 -1.214577
H	 -1.175561	 0.076343	 2.090255
C	 0.429033	 1.055299	 1.065687
H	 -0.922023	 -0.633666	 -2.088006
C	 0.585781	 0.661197	 -1.294141
H	 0.799486	 1.528020	 1.955671
C	 1.062279	 1.270323	 -0.137463
C	 1.288654	 0.872901	 -2.611257
H	 1.923583	 1.909424	 -0.184020
H	 1.554343	 1.913940	 -2.747164
H	 0.666624	 0.571098	 -3.442966
H	 2.204587	 0.293267	 -2.652919

	symmetry c1
}
set optking {
	frozen_dihedral = ("
		5 3 2 1
	")
}

ee = optimize('scf')
oeprop('DIPOLE', 'QUADRUPOLE', 'MULLIKEN_CHARGES')
f=open( 'psi4out.xyz', 'w' )
f.write( "16  " )
f.write( str(ee) + "\n" )
f.write( MOL.save_string_xyz() )
f.close()
--------------------------------------------------------------------------

    Molecular point group: c1
  Charge       = 0
  Multiplicity = 1
  Basis Set: CC-PVTZ
  Basis Set:
  @DF-RHF Final Energy:  -344.71558501818743
    Total Energy =                       -344.7155850181874257
    Molecular point group: c1
  Basis Set: CC-PVTZ
  Basis Set:
  Basis Set: CC-PVTZ
  Basis Set:
  @DF-RHF Final Energy:  -344.71623836319515
    Total Energy =                       -344.7162383631950888
  Basis Set: CC-PVTZ
  Basis Set:
  Basis Set: CC-PVTZ
  Basis Set:
  @DF-RHF Final Energy:  -344.71629338215479
    Total Energy =                       -344.7162933821545607
  Basis Set: CC-PVTZ
  Basis Set:
  Basis Set: CC-PVTZ
  Basis Set:
  @DF-RHF Final Energy:  -344.71629914129551
    Total Energy =                       -344.7162991412955080
  Basis Set: CC-PVTZ
  Basis Set:
  Basis Set: CC-PVTZ
  Basis Set:
  @DF-RHF Final Energy:  -344.71630048214291
    Total Energy =                       -344.7163004821428558
  Basis Set: CC-PVTZ
  Basis Set:
  Charge       = 0
  Multiplicity = 1
  Basis Set: CC-PVTZ
  Basis Set:

    Orbital Energies (a.u.)
    -----------------------

    Doubly Occupied:

       1A    -20.569037     2A    -11.286483     3A    -11.240299
       4A    -11.231167     5A    -11.220683     6A    -11.219610
       7A    -11.219031     8A    -11.218408     9A     -1.395774
      10A     -1.155005    11A     -1.046831    12A     -1.007483
      13A     -0.939130    14A     -0.830611    15A     -0.811917
      16A     -0.720225    17A     -0.679796    18A     -0.659753
      19A     -0.622403    20A     -0.593223    21A     -0.577848
      22A     -0.570630    23A     -0.552688    24A     -0.514108
      25A     -0.506237    26A     -0.485149    27A     -0.466679
      28A     -0.333922    29A     -0.322738

  @DF-RHF Final Energy:  -344.71630145994504

   => Energetics <=

    Nuclear Repulsion Energy =            345.8153511212628928
    One-Electron Energy =               -1153.0695642542618771
    Two-Electron Energy =                 462.5379116730542819
    DFT Exchange-Correlation Energy =       0.0000000000000000
    Empirical Dispersion Energy =           0.0000000000000000
    PCM Polarization Energy =               0.0000000000000000
    EFP Energy =                            0.0000000000000000
    Total Energy =                       -344.7163014599447024
    Molecular point group: c1
  Basis Set: CC-PVTZ
  Basis Set:

  -Total Gradient:
     Atom            X                  Y                   Z
    ------   -----------------  -----------------  -----------------
       1       -0.000046898688    -0.000034668513    -0.000812690159
       2       -0.000251939474     0.000218614156     0.000941667285
       3        0.000693551633    -0.000666115761     0.000028204056
       4        0.000014116465     0.000062269005     0.000042737411
       5       -0.000476286084     0.000416449828    -0.000193365537
       6       -0.000005061897    -0.000007844434    -0.000005363278
       7       -0.000090515536    -0.000062782683     0.000006426678
       8        0.000030041288     0.000017536755     0.000047715760
       9        0.000060805409     0.000088768058     0.000050556714
      10        0.000007826272     0.000003555302    -0.000000890342
      11        0.000054914208    -0.000043162258    -0.000079183191
      12        0.000009232181    -0.000009831842    -0.000008421619
      13       -0.000010369991    -0.000002316629    -0.000007974496
      14       -0.000012791070     0.000010773178    -0.000008851910
      15        0.000011025844    -0.000011558735    -0.000006998727
      16        0.000012349441     0.000020314570     0.000006431354

  **** Optimization is complete! (in 6 steps) ****
    Final optimized geometry and variables:
    Molecular point group: c1

    Geometry (in Angstrom), charge = 0, multiplicity = 1:

    H           -2.841397593223    -0.961948942547     0.445421026862
    O           -2.042720610759    -1.459501227079     0.441732833611
    C           -0.959725271755    -0.625309249947     0.392400252147
    C           -0.487049342317    -0.029792774586     1.542805141358
    C           -0.325569618977    -0.415366331335    -0.817988525031
    H           -0.981520901476    -0.211926625973     2.477148536384
    C            0.626736970393     0.785994351068     1.466654547228
    H           -0.715369529770    -0.900744333942    -1.692179795041
    C            0.793963304850     0.395037344598    -0.898210461254
    H            1.001026841154     1.256057351412     2.356315403952
    C            1.261898938828     0.999106078624     0.260570712445
    C            1.504545701056     0.602339929485    -2.212332673683
    H            2.126422261993     1.634946722644     0.218641752404
    H            1.790417433927     1.638854040688    -2.341996285927
    H            0.878306980773     0.318359704917    -3.047425270661
    H            2.408954938427     0.005143680076    -2.258126894613

  Mulliken Charges: (a.u.)
   Center  Symbol    Alpha    Beta     Spin     Total
       1     H     0.38857  0.38857  0.00000  0.22285
       2     O     4.19238  4.19238  0.00000 -0.38476
       3     C     2.85690  2.85690  0.00000  0.28621
       4     C     3.12694  3.12694  0.00000 -0.25388
       5     C     3.14152  3.14152  0.00000 -0.28304
       6     H     0.41841  0.41841  0.00000  0.16318
       7     C     3.06102  3.06102  0.00000 -0.12204
       8     H     0.41976  0.41976  0.00000  0.16048
       9     C     2.94584  2.94584  0.00000  0.10832
      10     H     0.42227  0.42227  0.00000  0.15546
      11     C     3.10762  3.10762  0.00000 -0.21524
      12     C     3.14599  3.14599  0.00000 -0.29198
      13     H     0.42694  0.42694  0.00000  0.14611
      14     H     0.44855  0.44855  0.00000  0.10289
      15     H     0.45080  0.45080  0.00000  0.09839
      16     H     0.44648  0.44648  0.00000  0.10705

   Total alpha = 29.00000, Total beta = 29.00000, Total charge = -0.00000
