  ==> Input File <==

--------------------------------------------------------------------------
set {
	reference rhf
	basis 6-31G*
}

set_num_threads( 4 )
memory 2 gb

molecule MOL {
0 1

H	 -2.499100	 -0.730091	 -0.745082
O	 -2.347518	 -0.290803	 0.079804
C	 -1.184022	 0.487508	 -0.006784
C	 0.062599	 -0.378592	 0.031606
H	 -1.176523	 1.099369	 -0.904519
H	 -1.187323	 1.153111	 0.844927
O	 1.171513	 0.459272	 -0.058250
H	 0.050699	 -1.089204	 -0.797170
H	 0.078739	 -0.954914	 0.954740
C	 1.653602	 0.912319	 1.167099
H	 1.971686	 0.085738	 1.799726
H	 2.504585	 1.548858	 0.968232
H	 0.900380	 1.486666	 1.702425

	symmetry c1
}
set optking {
	frozen_dihedral = ("
		10 7 4 8
	")
}

ee = optimize('scf')
oeprop('DIPOLE', 'QUADRUPOLE', 'MULLIKEN_CHARGES')
f=open( 'psi4out.xyz', 'w' )
f.write( "13  " )
f.write( str(ee) + "\n" )
f.write( MOL.save_string_xyz() )
f.close()
--------------------------------------------------------------------------

    Molecular point group: c1
  Charge       = 0
  Multiplicity = 1
  Basis Set: 6-31G*
  Basis Set:
  @DF-RHF Final Energy:  -267.94662269699597
    Total Energy =                       -267.9466226969959166
    Molecular point group: c1
  Basis Set: 6-31G*
  Basis Set:
  Basis Set: 6-31G*
  Basis Set:
  @DF-RHF Final Energy:  -267.94770421734052
    Total Energy =                       -267.9477042173404016
  Basis Set: 6-31G*
  Basis Set:
  Basis Set: 6-31G*
  Basis Set:
  @DF-RHF Final Energy:  -267.94797774708258
    Total Energy =                       -267.9479777470822910
  Basis Set: 6-31G*
  Basis Set:
  Basis Set: 6-31G*
  Basis Set:
  @DF-RHF Final Energy:  -267.94798364605936
    Total Energy =                       -267.9479836460590150
  Basis Set: 6-31G*
  Basis Set:
  Charge       = 0
  Multiplicity = 1
  Basis Set: 6-31G*
  Basis Set:

    Orbital Energies (a.u.)
    -----------------------

    Doubly Occupied:

       1A    -20.561717     2A    -20.561012     3A    -11.271011
       4A    -11.270158     5A    -11.270083     6A     -1.385382
       7A     -1.366039     8A     -1.014319     9A     -0.925083
      10A     -0.837095    11A     -0.709656    12A     -0.673834
      13A     -0.655988    14A     -0.641315    15A     -0.594905
      16A     -0.573054    17A     -0.530651    18A     -0.511904
      19A     -0.468542    20A     -0.461902    21A     -0.405834

  @DF-RHF Final Energy:  -267.94798413877999

   => Energetics <=

    Nuclear Repulsion Energy =            191.6152326956677143
    One-Electron Energy =                -745.7474675658095293
    Two-Electron Energy =                 286.1842507313618853
    DFT Exchange-Correlation Energy =       0.0000000000000000
    Empirical Dispersion Energy =           0.0000000000000000
    PCM Polarization Energy =               0.0000000000000000
    EFP Energy =                            0.0000000000000000
    Total Energy =                       -267.9479841387799297
    Molecular point group: c1
  Basis Set: 6-31G*
  Basis Set:

  -Total Gradient:
     Atom            X                  Y                   Z
    ------   -----------------  -----------------  -----------------
       1       -0.000021620686    -0.000015130682    -0.000000192229
       2        0.000024741670     0.000027690407    -0.000047488043
       3       -0.000007448491    -0.000029313258     0.000070993259
       4       -0.000106729975     0.000102525493    -0.000146483065
       5       -0.000012298319    -0.000003145110    -0.000004355174
       6        0.000013153757     0.000012911738    -0.000007716311
       7       -0.000094573481     0.000220782860    -0.000014091239
       8        0.000110049024    -0.000165701641     0.000122011218
       9       -0.000001413813     0.000011992985     0.000003320603
      10        0.000092539642    -0.000170565913    -0.000003599874
      11        0.000004925715     0.000004689159     0.000006819582
      12       -0.000001697602    -0.000001291579     0.000007786286
      13        0.000000372562     0.000004555541     0.000012994988

  **** Optimization is complete! (in 5 steps) ****
    Final optimized geometry and variables:
    Molecular point group: c1

    Geometry (in Angstrom), charge = 0, multiplicity = 1:

    H           -2.321099822591    -1.014861684006    -1.009246651681
    O           -2.212564908445    -0.550984864824    -0.190817201968
    C           -1.070857528188     0.261698387452    -0.257424303371
    C            0.202539235994    -0.572544352218    -0.197509874766
    H           -1.063550128838     0.869480334352    -1.158255266535
    H           -1.125621793992     0.933541323904     0.588654219670
    O            1.347066266960     0.225053211199    -0.283824345158
    H            0.228417074856    -1.256127366253    -1.040092845907
    H            0.204058629631    -1.172313251588     0.709323025103
    C            1.858077818857     0.679607243248     0.932548881470
    H            2.154344871991    -0.150418914697     1.569763777452
    H            2.730352680971     1.278666475573     0.710535791950
    H            1.144292883195     1.294027580454     1.475347292305

  Mulliken Charges: (a.u.)
   Center  Symbol    Alpha    Beta     Spin     Total
       1     H     0.28085  0.28085  0.00000  0.43830
       2     O     4.37025  4.37025  0.00000 -0.74050
       3     C     3.00643  3.00643  0.00000 -0.01286
       4     C     3.00512  3.00512  0.00000 -0.01024
       5     H     0.42224  0.42224  0.00000  0.15552
       6     H     0.41511  0.41511  0.00000  0.16977
       7     O     4.30776  4.30776  0.00000 -0.61551
       8     H     0.42135  0.42135  0.00000  0.15730
       9     H     0.42254  0.42254  0.00000  0.15492
      10     C     3.08210  3.08210  0.00000 -0.16420
      11     H     0.42654  0.42654  0.00000  0.14692
      12     H     0.41063  0.41063  0.00000  0.17874
      13     H     0.42908  0.42908  0.00000  0.14183

   Total alpha = 21.00000, Total beta = 21.00000, Total charge = -0.00000
