  ==> Input File <==

--------------------------------------------------------------------------
set {
	reference rhf
	basis 6-31G*
}

set_num_threads( 4 )
memory 2 gb

molecule MOL {
0 1

H	 -3.420663	 1.227371	 -1.044276
O	 -3.452007	 0.283848	 -0.965577
C	 -3.181085	 -0.079926	 0.364119
C	 -1.765924	 0.277073	 0.805136
H	 -3.327791	 -1.152017	 0.410903
H	 -3.905698	 0.375695	 1.036898
C	 -0.677594	 -0.417312	 -0.014550
H	 -1.637766	 1.358238	 0.744969
H	 -1.659588	 0.017670	 1.857098
C	 0.738335	 -0.034840	 0.421385
H	 -0.814977	 -0.178223	 -1.064632
H	 -0.802730	 -1.495410	 0.071702
C	 1.822265	 -0.738362	 -0.399735
H	 0.853533	 1.043532	 0.342250
H	 0.871597	 -0.279636	 1.474438
C	 3.258060	 -0.455774	 0.057203
H	 1.718003	 -0.459167	 -1.447053
H	 1.651028	 -1.811884	 -0.354513
C	 4.341071	 -0.990257	 -0.881849
H	 3.399981	 -0.898832	 1.039979
H	 3.389669	 0.616637	 0.186886
H	 4.226934	 -2.059373	 -1.040282
H	 5.329577	 -0.822738	 -0.465157
H	 4.311973	 -0.506939	 -1.852787

	symmetry c1
}
set optking {
	frozen_dihedral = ("
		20 16 13 17
	")
}

ee = optimize('scf')
oeprop('DIPOLE', 'QUADRUPOLE', 'MULLIKEN_CHARGES')
f=open( 'psi4out.xyz', 'w' )
f.write( "24  " )
f.write( str(ee) + "\n" )
f.write( MOL.save_string_xyz() )
f.close()
--------------------------------------------------------------------------

    Molecular point group: c1
  Charge       = 0
  Multiplicity = 1
  Basis Set: 6-31G*
  Basis Set:
  @DF-RHF Final Energy:  -349.24856304964487
    Total Energy =                       -349.2485630496447016
    Molecular point group: c1
  Basis Set: 6-31G*
  Basis Set:
  Basis Set: 6-31G*
  Basis Set:
  @DF-RHF Final Energy:  -349.24886716764712
    Total Energy =                       -349.2488671676468357
  Basis Set: 6-31G*
  Basis Set:
  Basis Set: 6-31G*
  Basis Set:
  @DF-RHF Final Energy:  -349.24890504039172
    Total Energy =                       -349.2489050403917190
  Basis Set: 6-31G*
  Basis Set:
  Charge       = 0
  Multiplicity = 1
  Basis Set: 6-31G*
  Basis Set:

    Orbital Energies (a.u.)
    -----------------------

    Doubly Occupied:

       1A    -20.553611     2A    -11.267741     3A    -11.217519
       4A    -11.213743     5A    -11.212910     6A    -11.211343
       7A    -11.211155     8A    -11.207223     9A     -1.360207
      10A     -1.088537    11A     -1.049132    12A     -0.988015
      13A     -0.913660    14A     -0.842104    15A     -0.797369
      16A     -0.788207    17A     -0.678946    18A     -0.657381
      19A     -0.630760    20A     -0.614266    21A     -0.592183
      22A     -0.585107    23A     -0.545913    24A     -0.543614
      25A     -0.530377    26A     -0.500050    27A     -0.495749
      28A     -0.470837    29A     -0.468787    30A     -0.459880
      31A     -0.456860    32A     -0.456176    33A     -0.418506

  @DF-RHF Final Energy:  -349.24890502063408

   => Energetics <=

    Nuclear Repulsion Energy =            380.5561105901897463
    One-Electron Energy =               -1227.5542978278051578
    Two-Electron Energy =                 497.7492822169814417
    DFT Exchange-Correlation Energy =       0.0000000000000000
    Empirical Dispersion Energy =           0.0000000000000000
    PCM Polarization Energy =               0.0000000000000000
    EFP Energy =                            0.0000000000000000
    Total Energy =                       -349.2489050206339698
    Molecular point group: c1
  Basis Set: 6-31G*
  Basis Set:

  -Total Gradient:
     Atom            X                  Y                   Z
    ------   -----------------  -----------------  -----------------
       1        0.000001247487    -0.000003710383     0.000001520384
       2       -0.000002516617     0.000001029820    -0.000013855493
       3        0.000006756255     0.000022467497    -0.000006484340
       4       -0.000028723134     0.000030746775    -0.000052332202
       5        0.000003927895    -0.000001494371     0.000003250663
       6        0.000003698715    -0.000000610370     0.000004575469
       7       -0.000082434030     0.000061845983     0.000057676502
       8        0.000003452296     0.000014762883     0.000016929458
       9        0.000004727966    -0.000020367807    -0.000012399063
      10       -0.000093664881    -0.000080255627     0.000008231651
      11        0.000009622555    -0.000032069809    -0.000004293277
      12        0.000026991923     0.000008005039     0.000046017175
      13       -0.000486735269     0.001808535456     0.000469051106
      14        0.000012584226     0.000018206944     0.000028862848
      15        0.000016804832    -0.000045608194    -0.000040701906
      16       -0.000813250920     0.001697390772     0.000884670609
      17        0.000588722290    -0.001777044963    -0.000461739322
      18        0.000018054369    -0.000028181475    -0.000029124095
      19        0.000150960118    -0.000026351209     0.000028068515
      20        0.000614331580    -0.001581784127    -0.000783348544
      21       -0.000009603597    -0.000047878479    -0.000033560752
      22       -0.000009679138     0.000030372608    -0.000027656403
      23        0.000060189620    -0.000073574766    -0.000049246143
      24        0.000004535462     0.000025567805    -0.000034112838

  **** Optimization is complete! (in 4 steps) ****
    Final optimized geometry and variables:
    Molecular point group: c1

    Geometry (in Angstrom), charge = 0, multiplicity = 1:

    H           -3.467636747426     1.518778869856    -0.948626420141
    O           -3.514925353367     0.575184903682    -0.879813939740
    C           -3.260543679442     0.193751868474     0.448222189349
    C           -1.843290042769     0.523068580583     0.903777209169
    H           -3.424945307034    -0.876141945645     0.482873908742
    H           -3.982924685264     0.654263949115     1.119994180452
    C           -0.759940537909    -0.179447507871     0.084469684156
    H           -1.697366771770     1.602619530289     0.856636843098
    H           -1.749022761009     0.250336240925     1.953519217748
    C            0.658250378204     0.180769079603     0.530374112147
    H           -0.888572082755     0.069148957369    -0.964446292654
    H           -0.899284238063    -1.256453669696     0.162196054079
    C            1.744406174376    -0.512017024617    -0.293400355015
    H            0.793386983086     1.259345225038     0.465303532704
    H            0.784848820363    -0.077807949100     1.580676690794
    C            3.166107708548    -0.176447988669     0.163534725448
    H            1.631281774102    -0.252901255424    -1.344736109537
    H            1.602983418136    -1.590534306832    -0.240414461650
    C            4.237206605499    -0.715805323928    -0.785503396544
    H            3.331787927093    -0.595452419477     1.153684411160
    H            3.276966103800     0.901485410519     0.256989931739
    H            4.159123456877    -1.794270478882    -0.891602704735
    H            5.235672961222    -0.491475150087    -0.422727262991
    H            4.139057593925    -0.279930512091    -1.775758622050

  Mulliken Charges: (a.u.)
   Center  Symbol    Alpha    Beta     Spin     Total
       1     H     0.28338  0.28338  0.00000  0.43323
       2     O     4.36829  4.36829  0.00000 -0.73658
       3     C     2.99615  2.99615  0.00000  0.00770
       4     C     3.16913  3.16913  0.00000 -0.33827
       5     H     0.41633  0.41633  0.00000  0.16735
       6     H     0.42813  0.42813  0.00000  0.14374
       7     C     3.15217  3.15217  0.00000 -0.30433
       8     H     0.42822  0.42822  0.00000  0.14356
       9     H     0.42232  0.42232  0.00000  0.15536
      10     C     3.15175  3.15175  0.00000 -0.30350
      11     H     0.41197  0.41197  0.00000  0.17605
      12     H     0.42348  0.42348  0.00000  0.15305
      13     C     3.15093  3.15093  0.00000 -0.30186
      14     H     0.42503  0.42503  0.00000  0.14994
      15     H     0.42486  0.42486  0.00000  0.15028
      16     C     3.15125  3.15125  0.00000 -0.30251
      17     H     0.42334  0.42334  0.00000  0.15333
      18     H     0.42365  0.42365  0.00000  0.15271
      19     C     3.23949  3.23949  0.00000 -0.47898
      20     H     0.42319  0.42319  0.00000  0.15362
      21     H     0.42352  0.42352  0.00000  0.15297
      22     H     0.42182  0.42182  0.00000  0.15636
      23     H     0.41985  0.41985  0.00000  0.16030
      24     H     0.42176  0.42176  0.00000  0.15648

   Total alpha = 33.00000, Total beta = 33.00000, Total charge =  0.00000
