  ==> Input File <==

--------------------------------------------------------------------------
set {
	reference rhf
	basis 6-31G*
}

set_num_threads( 4 )
memory 2 gb

molecule MOL {
0 1

H	 -3.161837	 0.500524	 -0.000234
C	 -2.367097	 -0.232926	 -0.000000
O	 -1.158440	 0.455814	 -0.000122
H	 -2.468853	 -0.861886	 -0.882833
H	 -2.468942	 -0.861421	 0.883154
C	 -0.029776	 -0.365156	 0.000148
C	 1.106498	 0.363411	 -0.696080
H	 -0.247922	 -1.303403	 -0.511715
H	 0.251959	 -0.615651	 1.023762
C	 2.389752	 -0.464788	 -0.743269
H	 0.787167	 0.617646	 -1.702089
H	 1.283635	 1.300566	 -0.177368
H	 2.240158	 -1.397415	 -1.280160
H	 3.183330	 0.079000	 -1.244640
H	 2.739850	 -0.710302	 0.255510

	symmetry c1
}
set optking {
	frozen_dihedral = ("
		8 6 3 2
	")
}

ee = optimize('scf')
oeprop('DIPOLE', 'QUADRUPOLE', 'MULLIKEN_CHARGES')
f=open( 'psi4out.xyz', 'w' )
f.write( "15  " )
f.write( str(ee) + "\n" )
f.write( MOL.save_string_xyz() )
f.close()
--------------------------------------------------------------------------

    Molecular point group: c1
  Charge       = 0
  Multiplicity = 1
  Basis Set: 6-31G*
  Basis Set:
  @DF-RHF Final Energy:  -232.13752480851093
    Total Energy =                       -232.1375248085109320
    Molecular point group: c1
  Basis Set: 6-31G*
  Basis Set:
  Basis Set: 6-31G*
  Basis Set:
  @DF-RHF Final Energy:  -232.13762478150383
    Total Energy =                       -232.1376247815038596
  Basis Set: 6-31G*
  Basis Set:
  Basis Set: 6-31G*
  Basis Set:
  @DF-RHF Final Energy:  -232.13766263718736
    Total Energy =                       -232.1376626371874181
  Basis Set: 6-31G*
  Basis Set:
  Charge       = 0
  Multiplicity = 1
  Basis Set: 6-31G*
  Basis Set:

    Orbital Energies (a.u.)
    -----------------------

    Doubly Occupied:

       1A    -20.551798     2A    -11.266037     3A    -11.264394
       4A    -11.214310     5A    -11.212943     6A     -1.375952
       7A     -1.057088     8A     -0.955612     9A     -0.877773
      10A     -0.809181    11A     -0.672491    12A     -0.653323
      13A     -0.631465    14A     -0.605433    15A     -0.566929
      16A     -0.540545    17A     -0.502838    18A     -0.489977
      19A     -0.479365    20A     -0.462749    21A     -0.409376

  @DF-RHF Final Energy:  -232.13766299730369

   => Energetics <=

    Nuclear Repulsion Energy =            189.6878809161188144
    One-Electron Energy =                -690.4519271634896995
    Two-Electron Energy =                 268.6263832500670787
    DFT Exchange-Correlation Energy =       0.0000000000000000
    Empirical Dispersion Energy =           0.0000000000000000
    PCM Polarization Energy =               0.0000000000000000
    EFP Energy =                            0.0000000000000000
    Total Energy =                       -232.1376629973037780
    Molecular point group: c1
  Basis Set: 6-31G*
  Basis Set:

  -Total Gradient:
     Atom            X                  Y                   Z
    ------   -----------------  -----------------  -----------------
       1       -0.000012417638    -0.000003799059     0.000002052368
       2       -0.000100759170     0.000022225945    -0.002378131788
       3       -0.000102420351    -0.000372255827     0.004095029885
       4        0.000025704400     0.000004781288     0.000007387765
       5        0.000018076058     0.000008600992    -0.000010482553
       6        0.000977639581     0.001562057743    -0.004276548693
       7       -0.000016299519     0.000000463666     0.000012802703
       8       -0.000810280029    -0.001223453493     0.002540658257
       9        0.000010937578     0.000010325241     0.000001104832
      10        0.000007814797     0.000001355428     0.000016049328
      11       -0.000014709706    -0.000012009084     0.000009338675
      12        0.000006632679     0.000005547531    -0.000010237376
      13        0.000004926378     0.000005885320    -0.000004654776
      14        0.000013455632    -0.000001986070     0.000001531173
      15       -0.000008300689    -0.000007739622    -0.000005899800

  **** Optimization is complete! (in 4 steps) ****
    Final optimized geometry and variables:
    Molecular point group: c1

    Geometry (in Angstrom), charge = 0, multiplicity = 1:

    H           -3.118975541486     0.583566745584     0.321110401203
    C           -2.336979465605    -0.163398679943     0.302547159131
    O           -1.117575405241     0.506414053791     0.284500356351
    H           -2.463207241404    -0.783358309292    -0.582872304081
    H           -2.437991666910    -0.795913534018     1.182997741773
    C            0.012759430516    -0.317309808891     0.255229274849
    C            1.152196686449     0.418589136914    -0.427764844264
    H           -0.210498080568    -1.251399621234    -0.259063665983
    H            0.293930256484    -0.586327578377     1.273748309478
    C            2.446498480206    -0.393499897879    -0.444758103719
    H            0.848030544375     0.663273437879    -1.441050375792
    H            1.308586212932     1.361291510630     0.087684074219
    H            2.318753308644    -1.332344252343    -0.976713260510
    H            3.242718750415     0.155939045238    -0.935763900984
    H            2.780429089994    -0.626905621010     0.562328689587

  Mulliken Charges: (a.u.)
   Center  Symbol    Alpha    Beta     Spin     Total
       1     H     0.41273  0.41273  0.00000  0.17454
       2     C     3.07933  3.07933  0.00000 -0.15865
       3     O     4.30733  4.30733  0.00000 -0.61465
       4     H     0.42990  0.42990  0.00000  0.14020
       5     H     0.43064  0.43064  0.00000  0.13872
       6     C     2.98185  2.98185  0.00000  0.03630
       7     C     3.15892  3.15892  0.00000 -0.31784
       8     H     0.43364  0.43364  0.00000  0.13272
       9     H     0.43029  0.43029  0.00000  0.13942
      10     C     3.24838  3.24838  0.00000 -0.49675
      11     H     0.41662  0.41662  0.00000  0.16677
      12     H     0.41329  0.41329  0.00000  0.17341
      13     H     0.42138  0.42138  0.00000  0.15724
      14     H     0.41544  0.41544  0.00000  0.16912
      15     H     0.42027  0.42027  0.00000  0.15946

   Total alpha = 21.00000, Total beta = 21.00000, Total charge = -0.00000
