  ==> Input File <==

--------------------------------------------------------------------------
set {
	reference rhf
	basis 6-31G*
}

set_num_threads( 1 )
memory 2 gb

molecule MOL {
0 1

H	 2.631266	 -0.646533	 0.693629
O	 2.016064	 -0.864478	 0.000222
C	 1.050492	 0.053836	 0.000068
C	 -0.318135	 -0.576402	 0.000164
O	 1.285279	 1.218255	 -0.000078
C	 -1.454360	 0.441875	 -0.000474
H	 -0.374042	 -1.230163	 -0.866135
H	 -0.374274	 -1.229227	 0.867154
C	 -2.826123	 -0.230780	 0.000056
H	 -1.357605	 1.085198	 -0.868380
H	 -1.357504	 1.086451	 0.866496
H	 -2.959731	 -0.858053	 -0.876869
H	 -3.619374	 0.509403	 -0.000080
H	 -2.959371	 -0.857318	 0.877556

	symmetry c1
}
set optking {
	frozen_dihedral = ("
		7 4 6 10,
		2 3 4 7
	")
}

ee = energy('scf')
oeprop('DIPOLE', 'QUADRUPOLE', 'MULLIKEN_CHARGES')
f=open( 'psi4out.xyz', 'w' )
f.write( "14  " )
f.write( str(ee) + "\n" )
f.write( MOL.save_string_xyz() )
f.close()
--------------------------------------------------------------------------

    Molecular point group: c1

    Geometry (in Angstrom), charge = 0, multiplicity = 1:

       Center              X                  Y                   Z               Mass
    ------------   -----------------  -----------------  -----------------  -----------------
           H          2.633816731852    -0.643852681532     0.685692047868     1.007825032070
           O          2.018614731852    -0.861797681532    -0.007714952132    15.994914619560
           C          1.053042731852     0.056516318468    -0.007868952132    12.000000000000
           C         -0.315584268148    -0.573721681532    -0.007772952132    12.000000000000
           O          1.287829731852     1.220935318468    -0.008014952132    15.994914619560
           C         -1.451809268148     0.444555318468    -0.008410952132    12.000000000000
           H         -0.371491268148    -1.227482681532    -0.874071952132     1.007825032070
           H         -0.371723268148    -1.226546681532     0.859217047868     1.007825032070
           C         -2.823572268148    -0.228099681532    -0.007880952132    12.000000000000
           H         -1.355054268148     1.087878318468    -0.876316952132     1.007825032070
           H         -1.354953268148     1.089131318468     0.858559047868     1.007825032070
           H         -2.957180268148    -0.855372681532    -0.884805952132     1.007825032070
           H         -3.616823268148     0.512083318468    -0.008016952132     1.007825032070
           H         -2.956820268148    -0.854637681532     0.869619047868     1.007825032070

  Charge       = 0
  Multiplicity = 1
  Basis Set: 6-31G*
  Basis Set:

    Orbital Energies (a.u.)
    -----------------------

    Doubly Occupied:

       1A    -20.604519     2A    -20.556216     3A    -11.380952
       4A    -11.240877     5A    -11.225145     6A    -11.217113
       7A     -1.472101     8A     -1.367157     9A     -1.082532
      10A     -0.977837    11A     -0.855046    12A     -0.793855
      13A     -0.705472    14A     -0.685447    15A     -0.665745
      16A     -0.628129    17A     -0.579669    18A     -0.566048
      19A     -0.544229    20A     -0.504209    21A     -0.493881
      22A     -0.482496    23A     -0.478266    24A     -0.444418

  @DF-RHF Final Energy:  -305.86804425571461

   => Energetics <=

    Nuclear Repulsion Energy =            239.9712297406047981
    One-Electron Energy =                -892.5759053023394927
    Two-Electron Energy =                 346.7366313060203424
    DFT Exchange-Correlation Energy =       0.0000000000000000
    Empirical Dispersion Energy =           0.0000000000000000
    PCM Polarization Energy =               0.0000000000000000
    EFP Energy =                            0.0000000000000000
    Total Energy =                       -305.8680442557143238

  Mulliken Charges: (a.u.)
   Center  Symbol    Alpha    Beta     Spin     Total
       1     H     0.26552  0.26552  0.00000  0.46895
       2     O     4.35504  4.35504  0.00000 -0.71009
       3     C     2.63118  2.63118  0.00000  0.73763
       4     C     3.20822  3.20822  0.00000 -0.41645
       5     O     4.26494  4.26494  0.00000 -0.52989
       6     C     3.15293  3.15293  0.00000 -0.30585
       7     H     0.39830  0.39830  0.00000  0.20339
       8     H     0.40325  0.40325  0.00000  0.19349
       9     C     3.24273  3.24273  0.00000 -0.48546
      10     H     0.40954  0.40954  0.00000  0.18092
      11     H     0.41156  0.41156  0.00000  0.17689
      12     H     0.42060  0.42060  0.00000  0.15881
      13     H     0.41458  0.41458  0.00000  0.17084
      14     H     0.42160  0.42160  0.00000  0.15680

   Total alpha = 24.00000, Total beta = 24.00000, Total charge =  0.00000
