  ==> Input File <==

--------------------------------------------------------------------------
set {
	reference rhf
	basis 6-31G*
}

set_num_threads( 1 )
memory 2 gb

molecule MOL {
0 1

O	 1.214711	 1.306902	 -0.000018
C	 1.122059	 0.121804	 -0.000188
C	 -0.170150	 -0.657997	 -0.000612
O	 2.172624	 -0.688929	 0.000216
C	 -1.412532	 0.227344	 -0.000452
H	 -0.153702	 -1.313099	 -0.867402
H	 -0.153924	 -1.313811	 0.865644
C	 -1.288562	 1.403293	 -0.970577
H	 -1.589271	 0.596687	 1.004960
H	 -2.279976	 -0.372390	 -0.258062
C	 -2.529566	 2.294844	 -0.977711
H	 -0.417465	 2.000423	 -0.708467
H	 -1.108986	 1.027695	 -1.975937
H	 -2.716277	 2.713768	 0.006817
H	 -2.415706	 3.120526	 -1.673096
H	 -3.412607	 1.734247	 -1.270302
C	 3.452279	 -0.082609	 0.000533
H	 3.583069	 0.529321	 -0.880332
H	 4.163299	 -0.894027	 0.001117
H	 3.582335	 0.529955	 0.881077

	symmetry c1
}
set optking {
	frozen_dihedral = ("
		9 5 8 12,
		1 2 3 6,
		1 2 4 17
	")
}

ee = energy('scf')
oeprop('DIPOLE', 'QUADRUPOLE', 'MULLIKEN_CHARGES')
f=open( 'psi4out.xyz', 'w' )
f.write( "20  " )
f.write( str(ee) + "\n" )
f.write( MOL.save_string_xyz() )
f.close()
--------------------------------------------------------------------------

    Molecular point group: c1

    Geometry (in Angstrom), charge = 0, multiplicity = 1:

       Center              X                  Y                   Z               Mass
    ------------   -----------------  -----------------  -----------------  -----------------
           O          0.858757445380     0.807354989308     0.243746041454    15.994914619560
           C          0.766105445380    -0.377743010692     0.243576041454    12.000000000000
           C         -0.526103554620    -1.157544010692     0.243152041454    12.000000000000
           O          1.816670445380    -1.188476010692     0.243980041454    15.994914619560
           C         -1.768485554620    -0.272203010692     0.243312041454    12.000000000000
           H         -0.509655554620    -1.812646010692    -0.623637958546     1.007825032070
           H         -0.509877554620    -1.813358010692     1.109408041454     1.007825032070
           C         -1.644515554620     0.903745989308    -0.726812958546    12.000000000000
           H         -1.945224554620     0.097139989308     1.248724041454     1.007825032070
           H         -2.635929554620    -0.871937010692    -0.014297958546     1.007825032070
           C         -2.885519554620     1.795296989308    -0.733946958546    12.000000000000
           H         -0.773418554620     1.500875989308    -0.464702958546     1.007825032070
           H         -1.464939554620     0.528147989308    -1.732172958546     1.007825032070
           H         -3.072230554620     2.214220989308     0.250581041454     1.007825032070
           H         -2.771659554620     2.620978989308    -1.429331958546     1.007825032070
           H         -3.768560554620     1.234699989308    -1.026537958546     1.007825032070
           C          3.096325445380    -0.582156010692     0.244297041454    12.000000000000
           H          3.227115445380     0.029773989308    -0.636567958546     1.007825032070
           H          3.807345445380    -1.393574010692     0.244881041454     1.007825032070
           H          3.226381445380     0.030407989308     1.124841041454     1.007825032070

  Charge       = 0
  Multiplicity = 1
  Basis Set: 6-31G*
  Basis Set:

    Orbital Energies (a.u.)
    -----------------------

    Doubly Occupied:

       1A    -20.606708     2A    -20.547700     3A    -11.376614
       4A    -11.282987     5A    -11.236672     6A    -11.218289
       7A    -11.198367     8A    -11.195639     9A     -1.473515
      10A     -1.368865    11A     -1.084534    12A     -1.018280
      13A     -0.967352    14A     -0.880733    15A     -0.800272
      16A     -0.772295    17A     -0.699887    18A     -0.684078
      19A     -0.675429    20A     -0.634005    21A     -0.605001
      22A     -0.581219    23A     -0.573162    24A     -0.542224
      25A     -0.536077    26A     -0.519015    27A     -0.505383
      28A     -0.485717    29A     -0.465617    30A     -0.459488
      31A     -0.455494    32A     -0.413760

  @DF-RHF Final Energy:  -383.92822328569690

   => Energetics <=

    Nuclear Repulsion Energy =            394.4361284914635348
    One-Electron Energy =               -1304.9995359537042532
    Two-Electron Energy =                 526.6351841765438166
    DFT Exchange-Correlation Energy =       0.0000000000000000
    Empirical Dispersion Energy =           0.0000000000000000
    PCM Polarization Energy =               0.0000000000000000
    EFP Energy =                            0.0000000000000000
    Total Energy =                       -383.9282232856969586

  Mulliken Charges: (a.u.)
   Center  Symbol    Alpha    Beta     Spin     Total
       1     O     4.28807  4.28807  0.00000 -0.57613
       2     C     2.60178  2.60178  0.00000  0.79645
       3     C     3.21085  3.21085  0.00000 -0.42170
       4     O     4.30719  4.30719  0.00000 -0.61439
       5     C     3.15284  3.15284  0.00000 -0.30569
       6     H     0.39927  0.39927  0.00000  0.20147
       7     H     0.39755  0.39755  0.00000  0.20491
       8     C     3.17168  3.17168  0.00000 -0.34335
       9     H     0.41722  0.41722  0.00000  0.16556
      10     H     0.41796  0.41796  0.00000  0.16408
      11     C     3.23792  3.23792  0.00000 -0.47583
      12     H     0.37702  0.37702  0.00000  0.24597
      13     H     0.43109  0.43109  0.00000  0.13782
      14     H     0.42331  0.42331  0.00000  0.15339
      15     H     0.42027  0.42027  0.00000  0.15946
      16     H     0.42767  0.42767  0.00000  0.14467
      17     C     3.09275  3.09275  0.00000 -0.18549
      18     H     0.40895  0.40895  0.00000  0.18210
      19     H     0.40783  0.40783  0.00000  0.18434
      20     H     0.40881  0.40881  0.00000  0.18238

   Total alpha = 32.00000, Total beta = 32.00000, Total charge =  0.00000
