                              Psi4 1.0.54 Driver

  ==> Input File <==

--------------------------------------------------------------------------
set {
	reference rhf
	basis cc-pvtz
}

set_num_threads( 4 )
memory 2 gb

molecule MOL {
0 1

O	 -0.988175	 -1.402891	 0.050086
C	 -0.675048	 -0.248293	 -0.009686
C	 -1.742492	 0.826599	 -0.011538
N	 0.622280	 0.144970	 -0.099307
H	 -1.692153	 1.431066	 -0.908439
H	 -2.698310	 0.331559	 0.031353
H	 -1.642148	 1.483784	 0.843455
C	 1.660276	 -0.864243	 -0.099454
C	 1.074186	 1.494932	 0.139726
H	 2.444093	 -0.576102	 -0.789258
H	 1.246382	 -1.808227	 -0.404030
H	 2.100010	 -0.978682	 0.888053
H	 1.931635	 1.699543	 -0.488407
H	 0.314206	 2.218171	 -0.101627
H	 1.375854	 1.644969	 1.173907

	symmetry c1
}
set optking {
	frozen_dihedral = ("
		8 4 2 3
	")
}

ee,wfn = optimize('scf', return_wfn=True)
oeprop( wfn, 'DIPOLE', 'QUADRUPOLE', 'MULLIKEN_CHARGES')
f=open( 'psi4out.xyz', 'w' )
f.write( "15  " )
f.write( str(ee) + "\n" )
f.write( MOL.save_string_xyz() )
f.close()
--------------------------------------------------------------------------

    Molecular point group: c1
  Charge       = 0
  Multiplicity = 1
  Basis Set: CC-PVTZ
  Basis Set:
  @DF-RHF Final Energy:  -286.13542010200206
    Total Energy =                       -286.1354201020021719
    Molecular point group: c1
  Basis Set: CC-PVTZ
  Basis Set:
  Basis Set: CC-PVTZ
  Basis Set:
  @DF-RHF Final Energy:  -286.13506755730981
    Total Energy =                       -286.1350675573100375
  Basis Set: CC-PVTZ
  Basis Set:
  Basis Set: CC-PVTZ
  Basis Set:
  @DF-RHF Final Energy:  -286.13550295688759
    Total Energy =                       -286.1355029568875352
  Basis Set: CC-PVTZ
  Basis Set:
  Basis Set: CC-PVTZ
  Basis Set:
  @DF-RHF Final Energy:  -286.13552293764133
    Total Energy =                       -286.1355229376416673
  Basis Set: CC-PVTZ
  Basis Set:
  @DF-RHF Final Energy:  -286.13553316908281
    Total Energy =                       -286.1355331690825778
  @DF-RHF Final Energy:  -286.13554611554031
    Total Energy =                       -286.1355461155401940
  @DF-RHF Final Energy:  -286.13555632897152
    Total Energy =                       -286.1355563289716315
  @DF-RHF Final Energy:  -286.13556344121207
    Total Energy =                       -286.1355634412121276
  Basis Set: CC-PVTZ
  Basis Set:
  @DF-RHF Final Energy:  -286.13556752722889
    Total Energy =                       -286.1355675272291137
  Basis Set: CC-PVTZ
  Basis Set:
  Basis Set: CC-PVTZ
  Basis Set:
  @DF-RHF Final Energy:  -286.13556987408958
    Total Energy =                       -286.1355698740896969
  Basis Set: CC-PVTZ
  Basis Set:
  Basis Set: CC-PVTZ
  Basis Set:
  @DF-RHF Final Energy:  -286.13557101705271
    Total Energy =                       -286.1355710170526550
  Basis Set: CC-PVTZ
  Basis Set:
  Charge       = 0
  Multiplicity = 1
  Basis Set: CC-PVTZ
  Basis Set:

    Orbital Energies (a.u.)
    -----------------------

    Doubly Occupied:

       1A    -20.502362     2A    -15.578888     3A    -11.335300
       4A    -11.264146     5A    -11.246436     6A    -11.226436
       7A     -1.386567     8A     -1.246578     9A     -1.015011
      10A     -0.973635    11A     -0.921607    12A     -0.739629
      13A     -0.683319    14A     -0.662071    15A     -0.653998
      16A     -0.591198    17A     -0.578032    18A     -0.566766
      19A     -0.561006    20A     -0.548813    21A     -0.530613
      22A     -0.507184    23A     -0.413027    24A     -0.369711

  @DF-RHF Final Energy:  -286.13557182633679

   => Energetics <=

    Nuclear Repulsion Energy =            252.7883848811468681
    One-Electron Energy =                -889.6432438191859546
    Two-Electron Energy =                 350.7192871117021582
    DFT Exchange-Correlation Energy =       0.0000000000000000
    Empirical Dispersion Energy =           0.0000000000000000
    PCM Polarization Energy =               0.0000000000000000
    EFP Energy =                            0.0000000000000000
    Total Energy =                       -286.1355718263369567
    Molecular point group: c1
  Basis Set: CC-PVTZ
  Basis Set:

  -Total Gradient:
     Atom            X                  Y                   Z
    ------   -----------------  -----------------  -----------------
       1        0.000020347799     0.000070653104     0.000034251835
       2       -0.000065810023    -0.000104774263     0.000591164166
       3        0.000029673720     0.000037387710    -0.000690262870
       4        0.000012208758    -0.000021239459     0.000595462666
       5       -0.000014173480    -0.000003332889     0.000039248850
       6        0.000008337782     0.000004679716     0.000008226939
       7        0.000004947787    -0.000014740306     0.000024796757
       8        0.000013543109     0.000015667332    -0.000610709301
       9        0.000008256744     0.000043452222     0.000000094112
      10        0.000003301285     0.000002706411     0.000013904475
      11        0.000006607297     0.000004040202    -0.000010069144
      12       -0.000011614139    -0.000012047636    -0.000002436856
      13       -0.000021196504    -0.000006142074     0.000012198315
      14        0.000012259711    -0.000012212643     0.000016924747
      15       -0.000006689847    -0.000004097428    -0.000022794690

  **** Optimization is complete! (in 12 steps) ****
    Final optimized geometry and variables:
    Molecular point group: c1

    Geometry (in Angstrom), charge = 0, multiplicity = 1:

    O           -0.990230970826    -1.398902566051    -0.125745246871
    C           -0.675938806219    -0.244285477177    -0.062587547946
    C           -1.745297604268     0.829329562594    -0.080782584209
    N            0.621218921806     0.146911781917     0.004664469259
    H           -1.602443845175     1.518018760772    -0.903690302200
    H           -2.694869139994     0.332881487891    -0.191450087323
    H           -1.748392342422     1.398992628456     0.840369407734
    C            1.665419014307    -0.854320708432     0.023676708890
    C            1.068372680783     1.500079057833     0.225396455347
    H            2.450265962925    -0.576069213560    -0.670541587449
    H            1.257986243741    -1.806978603289    -0.261378014594
    H            2.103905074767    -0.941878084654     1.013861660709
    H            1.836494737388     1.758116346815    -0.494968519929
    H            0.266415998196     2.208961573511     0.121028015864
    H            1.493345889662     1.613356494515     1.219040082043

  Mulliken Charges: (a.u.)
   Center  Symbol    Alpha    Beta     Spin     Total
       1     O     4.22230  4.22230  0.00000 -0.44460
       2     C     2.84744  2.84744  0.00000  0.30511
       3     C     3.16016  3.16016  0.00000 -0.32031
       4     N     3.55842  3.55842  0.00000 -0.11684
       5     H     0.44986  0.44986  0.00000  0.10029
       6     H     0.42839  0.42839  0.00000  0.14321
       7     H     0.44942  0.44942  0.00000  0.10115
       8     C     3.09969  3.09969  0.00000 -0.19937
       9     C     3.09346  3.09346  0.00000 -0.18691
      10     H     0.45744  0.45744  0.00000  0.08512
      11     H     0.42568  0.42568  0.00000  0.14864
      12     H     0.45686  0.45686  0.00000  0.08628
      13     H     0.45182  0.45182  0.00000  0.09637
      14     H     0.44501  0.44501  0.00000  0.10998
      15     H     0.45406  0.45406  0.00000  0.09189

   Total alpha = 24.00000, Total beta = 24.00000, Total charge =  0.00000

*** Psi4 exiting successfully. Buy a developer a beer!
