  ==> Input File <==

--------------------------------------------------------------------------
set {
	reference rhf
	basis 6-31G*
}

set_num_threads( 1 )
memory 2 gb

molecule MOL {
0 1

O	 -0.988096	 -1.408613	 0.050699
C	 -0.676749	 -0.249230	 -0.009274
C	 -1.746085	 0.827156	 -0.009539
N	 0.623947	 0.147590	 -0.102813
H	 -1.701500	 1.431508	 -0.908902
H	 -2.703425	 0.330732	 0.036390
H	 -1.647323	 1.487769	 0.845106
C	 1.528378	 -0.626161	 -0.930576
C	 1.258736	 1.066055	 0.816812
H	 2.209310	 0.043136	 -1.444765
H	 0.961917	 -1.185105	 -1.654899
H	 2.115849	 -1.319481	 -0.332575
H	 2.019311	 1.627992	 0.287859
H	 0.552941	 1.773771	 1.221688
H	 1.739921	 0.545992	 1.643134

	symmetry c1
}
set optking {
	frozen_dihedral = ("
		2 4 8 10
	")
}

ee = energy('scf')
oeprop('DIPOLE', 'QUADRUPOLE', 'MULLIKEN_CHARGES')
f=open( 'psi4out.xyz', 'w' )
f.write( "15  " )
f.write( str(ee) + "\n" )
f.write( MOL.save_string_xyz() )
f.close()
--------------------------------------------------------------------------

    Molecular point group: c1

    Geometry (in Angstrom), charge = 0, multiplicity = 1:

       Center              X                  Y                   Z               Mass
    ------------   -----------------  -----------------  -----------------  -----------------
           O         -0.998188997187    -1.368682157006     0.079745835251    15.994914619560
           C         -0.686841997187    -0.209299157006     0.019772835251    12.000000000000
           C         -1.756177997187     0.867086842994     0.019507835251    12.000000000000
           N          0.613854002813     0.187520842994    -0.073766164749    14.003074004780
           H         -1.711592997187     1.471438842994    -0.879855164749     1.007825032070
           H         -2.713517997187     0.370662842994     0.065436835251     1.007825032070
           H         -1.657415997187     1.527699842994     0.874152835251     1.007825032070
           C          1.518285002813    -0.586230157006    -0.901529164749    12.000000000000
           C          1.248643002813     1.105985842994     0.845858835251    12.000000000000
           H          2.199217002813     0.083066842994    -1.415718164749     1.007825032070
           H          0.951824002813    -1.145174157006    -1.625852164749     1.007825032070
           H          2.105756002813    -1.279550157006    -0.303528164749     1.007825032070
           H          2.009218002813     1.667922842994     0.316905835251     1.007825032070
           H          0.542848002813     1.813701842994     1.250734835251     1.007825032070
           H          1.729828002813     0.585922842994     1.672180835251     1.007825032070

  Charge       = 0
  Multiplicity = 1
  Basis Set: 6-31G*
  Basis Set:

    Orbital Energies (a.u.)
    -----------------------

    Doubly Occupied:

       1A    -20.529947     2A    -15.567226     3A    -11.344002
       4A    -11.264797     5A    -11.251176     6A    -11.225703
       7A     -1.390936     8A     -1.238943     9A     -1.009458
      10A     -0.973584    11A     -0.916845    12A     -0.738360
      13A     -0.676967    14A     -0.656045    15A     -0.649028
      16A     -0.596428    17A     -0.580267    18A     -0.571442
      19A     -0.557682    20A     -0.547741    21A     -0.534176
      22A     -0.488942    23A     -0.417767    24A     -0.359574

  @DF-RHF Final Energy:  -286.01246535271605

   => Energetics <=

    Nuclear Repulsion Energy =            251.4907030774882912
    One-Electron Energy =                -886.8321505576116124
    Two-Electron Energy =                 349.3289821274067890
    DFT Exchange-Correlation Energy =       0.0000000000000000
    Empirical Dispersion Energy =           0.0000000000000000
    PCM Polarization Energy =               0.0000000000000000
    EFP Energy =                            0.0000000000000000
    Total Energy =                       -286.0124653527165037

  Mulliken Charges: (a.u.)
   Center  Symbol    Alpha    Beta     Spin     Total
       1     O     4.27799  4.27799  0.00000 -0.55599
       2     C     2.64917  2.64917  0.00000  0.70166
       3     C     3.28501  3.28501  0.00000 -0.57002
       4     N     3.82088  3.82088  0.00000 -0.64176
       5     H     0.40547  0.40547  0.00000  0.18905
       6     H     0.39559  0.39559  0.00000  0.20881
       7     H     0.41086  0.41086  0.00000  0.17829
       8     C     3.13496  3.13496  0.00000 -0.26992
       9     C     3.13934  3.13934  0.00000 -0.27867
      10     H     0.41912  0.41912  0.00000  0.16176
      11     H     0.40223  0.40223  0.00000  0.19555
      12     H     0.41831  0.41831  0.00000  0.16337
      13     H     0.41451  0.41451  0.00000  0.17099
      14     H     0.41199  0.41199  0.00000  0.17602
      15     H     0.41457  0.41457  0.00000  0.17087

   Total alpha = 24.00000, Total beta = 24.00000, Total charge =  0.00000
