                              Psi4 1.0.54 Driver

  ==> Input File <==

--------------------------------------------------------------------------
set {
	reference rhf
	basis cc-pvtz
}

set_num_threads( 4 )
memory 2 gb

molecule MOL {
0 1

H	 2.342730	 0.877684	 -1.045694
C	 2.360424	 0.000000	 -0.411793
C	 1.173749	 0.000000	 0.526870
H	 3.286567	 0.000000	 0.151574
H	 2.342730	 -0.877684	 -1.045694
O	 0.000000	 0.000000	 -0.223739
H	 1.203779	 0.876757	 1.172538
H	 1.203779	 -0.876757	 1.172538
C	 -1.173749	 0.000000	 0.526870
C	 -1.339691	 1.352575	 1.184357
H	 -1.133728	 -0.783932	 1.282078
H	 -2.027218	 -0.214383	 -0.115098
H	 -0.500417	 1.563568	 1.835183
H	 -2.248457	 1.375601	 1.774896
H	 -1.394852	 2.133719	 0.436530

	symmetry c1
}
set optking {
	frozen_dihedral = ("
		11 9 6 3
	")
}

ee,wfn = optimize('scf', return_wfn=True)
oeprop( wfn, 'DIPOLE', 'QUADRUPOLE', 'MULLIKEN_CHARGES')
f=open( 'psi4out.xyz', 'w' )
f.write( "15  " )
f.write( str(ee) + "\n" )
f.write( MOL.save_string_xyz() )
f.close()
--------------------------------------------------------------------------

    Molecular point group: c1
  Charge       = 0
  Multiplicity = 1
  Basis Set: CC-PVTZ
  Basis Set:
  @DF-RHF Final Energy:  -232.22726116014360
    Total Energy =                       -232.2272611601435983
    Molecular point group: c1
  Basis Set: CC-PVTZ
  Basis Set:
  Basis Set: CC-PVTZ
  Basis Set:
  @DF-RHF Final Energy:  -232.03820359888076
    Total Energy =                       -232.0382035988805569
  Basis Set: CC-PVTZ
  Basis Set:
  Basis Set: CC-PVTZ
  Basis Set:
  @DF-RHF Final Energy:  -232.15764318222088
    Total Energy =                       -232.1576431822208519
  Basis Set: CC-PVTZ
  Basis Set:
  Basis Set: CC-PVTZ
  Basis Set:
  @DF-RHF Final Energy:  -232.20589986211965
    Total Energy =                       -232.2058998621195656
  Basis Set: CC-PVTZ
  Basis Set:
  @DF-RHF Final Energy:  -232.22716002115530
    Total Energy =                       -232.2271600211551004
  @DF-RHF Final Energy:  -232.23047011189405
    Total Energy =                       -232.2304701118940784
  Basis Set: CC-PVTZ
  Basis Set:
  @DF-RHF Final Energy:  -232.23068499215745
    Total Energy =                       -232.2306849921575349
  Basis Set: CC-PVTZ
  Basis Set:
  Basis Set: CC-PVTZ
  Basis Set:
  @DF-RHF Final Energy:  -232.23070358616351
    Total Energy =                       -232.2307035861633153
  Basis Set: CC-PVTZ
  Basis Set:
  Basis Set: CC-PVTZ
  Basis Set:
  @DF-RHF Final Energy:  -232.23070470981244
    Total Energy =                       -232.2307047098124713
  Basis Set: CC-PVTZ
  Basis Set:
  Charge       = 0
  Multiplicity = 1
  Basis Set: CC-PVTZ
  Basis Set:

    Orbital Energies (a.u.)
    -----------------------

    Doubly Occupied:

       1A    -20.543986     2A    -11.266273     3A    -11.265493
       4A    -11.209648     5A    -11.206576     6A     -1.378218
       7A     -1.041481     8A     -0.987467     9A     -0.864651
      10A     -0.810897    11A     -0.674978    12A     -0.651140
      13A     -0.642109    14A     -0.579185    15A     -0.548183
      16A     -0.544998    17A     -0.524425    18A     -0.503438
      19A     -0.487329    20A     -0.457261    21A     -0.411160

  @DF-RHF Final Energy:  -232.23070481399787

   => Energetics <=

    Nuclear Repulsion Energy =            192.8814404144428067
    One-Electron Energy =                -697.0265019393973489
    Two-Electron Energy =                 271.9143567109567812
    DFT Exchange-Correlation Energy =       0.0000000000000000
    Empirical Dispersion Energy =           0.0000000000000000
    PCM Polarization Energy =               0.0000000000000000
    EFP Energy =                            0.0000000000000000
    Total Energy =                       -232.2307048139977610
    Molecular point group: c1
  Basis Set: CC-PVTZ
  Basis Set:

  -Total Gradient:
     Atom            X                  Y                   Z
    ------   -----------------  -----------------  -----------------
       1        0.000001738137    -0.000001091349     0.000000016059
       2       -0.000002099702    -0.000003838472    -0.000019181903
       3        0.000115068273     0.000352779643     0.000171185445
       4        0.000000150063     0.000000835377     0.000001170292
       5        0.000001897292     0.000003353240     0.000002075805
       6       -0.000293234456    -0.000529443984    -0.000290834971
       7        0.000009453354    -0.000003142710     0.000005081054
       8        0.000001794053    -0.000000101513    -0.000001634221
       9        0.000571942275     0.000285783417     0.000362738729
      10        0.000000978250    -0.000003419729    -0.000009892428
      11       -0.000410018111    -0.000106469608    -0.000224397914
      12       -0.000000605819     0.000001691423    -0.000002310817
      13        0.000005932450    -0.000001127983     0.000003864831
      14       -0.000001707240     0.000001256531    -0.000000240997
      15       -0.000001288821     0.000002935715     0.000002361036

  **** Optimization is complete! (in 10 steps) ****
    Final optimized geometry and variables:
    Molecular point group: c1

    Geometry (in Angstrom), charge = 0, multiplicity = 1:

    H            1.131273614756     1.027535115692    -2.196532825419
    C            1.234447428098    -0.030141792273    -1.988248369909
    C            0.848650187804    -0.327225861230    -0.555142627892
    H            2.264131459474    -0.317733594634    -2.168872342916
    H            0.597791728116    -0.575077906539    -2.673933741888
    O           -0.477937600167     0.057268954096    -0.360597140200
    H            1.510207716850     0.205740738971     0.122790004647
    H            0.960503250702    -1.390932613640    -0.348312424267
    C           -1.051141009846    -0.280242038456     0.866491918724
    C           -0.570493184848     0.574825876416     2.028754577693
    H           -0.881457643491    -1.334716851964     1.079091456064
    H           -2.117376598182    -0.146599890057     0.739441061597
    H            0.479227991809     0.419240009969     2.244909450534
    H           -1.131278081084     0.325740421787     2.923041784501
    H           -0.722372793631     1.625460845641     1.811832727571

  Mulliken Charges: (a.u.)
   Center  Symbol    Alpha    Beta     Spin     Total
       1     H     0.45123  0.45123  0.00000  0.09755
       2     C     3.13492  3.13492  0.00000 -0.26984
       3     C     2.96667  2.96667  0.00000  0.06666
       4     H     0.45950  0.45950  0.00000  0.08101
       5     H     0.45143  0.45143  0.00000  0.09714
       6     O     4.18182  4.18182  0.00000 -0.36364
       7     H     0.47199  0.47199  0.00000  0.05602
       8     H     0.47372  0.47372  0.00000  0.05256
       9     C     2.98282  2.98282  0.00000  0.03436
      10     C     3.14753  3.14753  0.00000 -0.29505
      11     H     0.47086  0.47086  0.00000  0.05828
      12     H     0.44975  0.44975  0.00000  0.10050
      13     H     0.45602  0.45602  0.00000  0.08797
      14     H     0.45170  0.45170  0.00000  0.09659
      15     H     0.45005  0.45005  0.00000  0.09989

   Total alpha = 21.00000, Total beta = 21.00000, Total charge = -0.00000

*** Psi4 exiting successfully. Buy a developer a beer!
