  ==> Input File <==

--------------------------------------------------------------------------
set {
	reference rhf
	basis 6-31G*
}

set_num_threads( 1 )
memory 2 gb

molecule MOL {
0 1

O	 -0.682937	 1.318834	 -0.186099
C	 -0.860635	 0.152188	 -0.042321
C	 -2.173363	 -0.477127	 0.338347
O	 0.083258	 -0.765189	 -0.202595
H	 -2.477673	 -1.180929	 -0.427595
H	 -2.923125	 0.290956	 0.455536
H	 -2.058825	 -1.029004	 1.264191
C	 0.417719	 -1.595196	 0.907369
C	 -0.527634	 -2.776481	 1.023649
H	 0.415541	 -1.000756	 1.808356
H	 1.426540	 -1.924982	 0.704837
H	 -0.202975	 -3.428728	 1.828570
H	 -1.535168	 -2.444492	 1.240509
H	 -0.536603	 -3.349914	 0.103047

	symmetry c1
}
set optking {
	frozen_dihedral = ("
		10 8 4 2
	")
}

ee = energy('scf')
oeprop('DIPOLE', 'QUADRUPOLE', 'MULLIKEN_CHARGES')
f=open( 'psi4out.xyz', 'w' )
f.write( "14  " )
f.write( str(ee) + "\n" )
f.write( MOL.save_string_xyz() )
f.close()
--------------------------------------------------------------------------

    Molecular point group: c1

    Geometry (in Angstrom), charge = 0, multiplicity = 1:

       Center              X                  Y                   Z               Mass
    ------------   -----------------  -----------------  -----------------  -----------------
           O         -0.055210813143     2.019346390383    -0.498860960033    15.994914619560
           C         -0.232908813143     0.852700390383    -0.355082960033    12.000000000000
           C         -1.545636813143     0.223385390383     0.025585039967    12.000000000000
           O          0.710984186857    -0.064676609617    -0.515356960033    15.994914619560
           H         -1.849946813143    -0.480416609617    -0.740356960033     1.007825032070
           H         -2.295398813143     0.991468390383     0.142774039967     1.007825032070
           H         -1.431098813143    -0.328491609617     0.951429039967     1.007825032070
           C          1.045445186857    -0.894683609617     0.594607039967    12.000000000000
           C          0.100092186857    -2.075968609617     0.710887039967    12.000000000000
           H          1.043267186857    -0.300243609617     1.495594039967     1.007825032070
           H          2.054266186857    -1.224469609617     0.392075039967     1.007825032070
           H          0.424751186857    -2.728215609617     1.515808039967     1.007825032070
           H         -0.907441813143    -1.743979609617     0.927747039967     1.007825032070
           H          0.091123186857    -2.649401609617    -0.209714960033     1.007825032070

  Charge       = 0
  Multiplicity = 1
  Basis Set: 6-31G*
  Basis Set:

    Orbital Energies (a.u.)
    -----------------------

    Doubly Occupied:

       1A    -20.590048     2A    -20.552264     3A    -11.377067
       4A    -11.304154     5A    -11.233943     6A    -11.231058
       7A     -1.463019     8A     -1.368749     9A     -1.052817
      10A     -1.023577    11A     -0.891673    12A     -0.777601
      13A     -0.706030    14A     -0.692250    15A     -0.665586
      16A     -0.616044    17A     -0.599911    18A     -0.584689
      19A     -0.576802    20A     -0.544259    21A     -0.502855
      22A     -0.487816    23A     -0.454698    24A     -0.438298

  @DF-RHF Final Energy:  -305.83544512325921

   => Energetics <=

    Nuclear Repulsion Energy =            251.7924396921607411
    One-Electron Energy =                -915.7852879817054372
    Two-Electron Energy =                 358.1574031662851780
    DFT Exchange-Correlation Energy =       0.0000000000000000
    Empirical Dispersion Energy =           0.0000000000000000
    PCM Polarization Energy =               0.0000000000000000
    EFP Energy =                            0.0000000000000000
    Total Energy =                       -305.8354451232594897

  Mulliken Charges: (a.u.)
   Center  Symbol    Alpha    Beta     Spin     Total
       1     O     4.25739  4.25739  0.00000 -0.51479
       2     C     2.61963  2.61963  0.00000  0.76074
       3     C     3.30375  3.30375  0.00000 -0.60750
       4     O     4.30587  4.30587  0.00000 -0.61175
       5     H     0.39790  0.39790  0.00000  0.20421
       6     H     0.39462  0.39462  0.00000  0.21077
       7     H     0.40674  0.40674  0.00000  0.18651
       8     C     3.01534  3.01534  0.00000 -0.03068
       9     C     3.25213  3.25213  0.00000 -0.50425
      10     H     0.41262  0.41262  0.00000  0.17477
      11     H     0.39762  0.39762  0.00000  0.20476
      12     H     0.41467  0.41467  0.00000  0.17066
      13     H     0.41466  0.41466  0.00000  0.17069
      14     H     0.40707  0.40707  0.00000  0.18586

   Total alpha = 24.00000, Total beta = 24.00000, Total charge =  0.00000
