                              Psi4 1.0.54 Driver

  ==> Input File <==

--------------------------------------------------------------------------
set {
	reference rhf
	basis cc-pvtz
}

set_num_threads( 4 )
memory 2 gb

molecule MOL {
0 1

H	 -3.268214	 -0.875720	 0.463107
C	 -2.806015	 0.000007	 0.024886
N	 -1.391133	 0.000016	 0.301321
H	 -3.029448	 0.000055	 -1.045738
H	 -3.268126	 0.875758	 0.463150
C	 -0.609820	 0.457753	 -0.827219
C	 -0.920909	 -1.287518	 0.764653
H	 -0.737647	 -0.198451	 -1.693191
H	 -0.951264	 1.445760	 -1.112427
C	 0.863207	 0.521710	 -0.469291
H	 -1.489452	 -1.573631	 1.641573
H	 -1.069939	 -2.062695	 0.007197
C	 0.552118	 -1.223561	 1.122581
H	 1.431750	 0.807823	 -1.346212
H	 1.012237	 1.296887	 0.288165
N	 1.333431	 -0.765824	 -0.005959
H	 0.893562	 -2.211568	 1.407789
H	 0.679945	 -0.567357	 1.988553
C	 2.748313	 -0.765815	 0.270476
H	 3.298223	 -0.477451	 -0.616659
H	 3.069501	 -1.760449	 0.553502
H	 3.023432	 -0.079710	 1.076532

	symmetry c1
}
set optking {
	frozen_dihedral = ("
		6 3 2 4
	")
}

ee,wfn = optimize('scf', return_wfn=True)
oeprop( wfn, 'DIPOLE', 'QUADRUPOLE', 'MULLIKEN_CHARGES')
f=open( 'psi4out.xyz', 'w' )
f.write( "22  " )
f.write( str(ee) + "\n" )
f.write( MOL.save_string_xyz() )
f.close()
--------------------------------------------------------------------------

    Molecular point group: c1
  Charge       = 0
  Multiplicity = 1
  Basis Set: CC-PVTZ
  Basis Set:
  @DF-RHF Final Energy:  -344.34527351452238
    Total Energy =                       -344.3452735145222050
    Molecular point group: c1
  Basis Set: CC-PVTZ
  Basis Set:
  Basis Set: CC-PVTZ
  Basis Set:
  @DF-RHF Final Energy:  -344.34555808443548
    Total Energy =                       -344.3455580844355381
  Basis Set: CC-PVTZ
  Basis Set:
  Basis Set: CC-PVTZ
  Basis Set:
  @DF-RHF Final Energy:  -344.34562965735518
    Total Energy =                       -344.3456296573546069
  Basis Set: CC-PVTZ
  Basis Set:
  Charge       = 0
  Multiplicity = 1
  Basis Set: CC-PVTZ
  Basis Set:

    Orbital Energies (a.u.)
    -----------------------

    Doubly Occupied:

       1A    -15.537130     2A    -15.535941     3A    -11.237323
       4A    -11.237289     5A    -11.236489     6A    -11.236416
       7A    -11.233969     8A    -11.233961     9A     -1.255650
      10A     -1.204060    11A     -1.025275    12A     -0.992030
      13A     -0.912534    14A     -0.867297    15A     -0.836727
      16A     -0.755497    17A     -0.666103    18A     -0.636149
      19A     -0.631719    20A     -0.625447    21A     -0.620843
      22A     -0.580925    23A     -0.551801    24A     -0.548973
      25A     -0.541966    26A     -0.519409    27A     -0.498552
      28A     -0.488260    29A     -0.465246    30A     -0.456091
      31A     -0.351236    32A     -0.345611

  @DF-RHF Final Energy:  -344.34563087298989

   => Energetics <=

    Nuclear Repulsion Energy =            421.5653217734407008
    One-Electron Energy =               -1302.0900675759835394
    Two-Electron Energy =                 536.1791149295529522
    DFT Exchange-Correlation Energy =       0.0000000000000000
    Empirical Dispersion Energy =           0.0000000000000000
    PCM Polarization Energy =               0.0000000000000000
    EFP Energy =                            0.0000000000000000
    Total Energy =                       -344.3456308729898865
    Molecular point group: c1
  Basis Set: CC-PVTZ
  Basis Set:

  -Total Gradient:
     Atom            X                  Y                   Z
    ------   -----------------  -----------------  -----------------
       1       -0.000036554108    -0.000024494480    -0.000017408561
       2        0.000072237773    -0.006097236292    -0.000379393692
       3       -0.000316605887     0.004931964590     0.001312111518
       4        0.000034055058     0.003939314315     0.000021292984
       5       -0.000007966969     0.000007182445     0.000010368086
       6        0.000165404443    -0.002828469997    -0.000924270299
       7        0.000029669873     0.000081644570    -0.000000511200
       8       -0.000006603461     0.000002732601    -0.000003303437
       9       -0.000005161990    -0.000017495652     0.000016470771
      10        0.000029114776     0.000023429037    -0.000015776540
      11       -0.000004273929     0.000018735851    -0.000018076844
      12        0.000000152244     0.000005571842     0.000004312578
      13        0.000013422694    -0.000016122224     0.000016708779
      14        0.000035987340    -0.000005068097    -0.000000080055
      15       -0.000000818709    -0.000008683842    -0.000003853737
      16       -0.000005350200    -0.000010317762    -0.000017090001
      17        0.000035163876    -0.000010874388     0.000004153072
      18       -0.000002381315    -0.000003796874    -0.000013636238
      19       -0.000007192032     0.000013361446     0.000013459197
      20       -0.000010493617     0.000000583815    -0.000003533392
      21       -0.000011404896    -0.000000788419    -0.000000854430
      22       -0.000000400961    -0.000001172486    -0.000001088557

  **** Optimization is complete! (in 4 steps) ****
    Final optimized geometry and variables:
    Molecular point group: c1

    Geometry (in Angstrom), charge = 0, multiplicity = 1:

    H           -3.289308763875    -0.450013688075     0.287149528920
    C           -2.789132317388     0.403887827520    -0.150025525904
    N           -1.364960115057     0.378639421359     0.134389813867
    H           -2.995148989242     0.410587677666    -1.218404899594
    H           -3.243630657986     1.299226125153     0.261810209684
    C           -0.567483556193     0.825691648411    -0.987842895032
    C           -0.896684899191    -0.909592657814     0.604002259138
    H           -0.684250525534     0.160126936142    -1.847665374458
    H           -0.905088255485     1.810686268215    -1.289432548776
    C            0.900718314361     0.898045073201    -0.613072512512
    H           -1.471150883012    -1.195607349761     1.476511415992
    H           -1.030987827297    -1.689055956039    -0.151665625440
    C            0.571071103731    -0.838915145873     0.982612401907
    H            1.478655083711     1.179650785137    -1.485563420087
    H            1.037986872091     1.679546744950     0.140171005406
    N            1.369136857325    -0.384401934549    -0.135095314260
    H            0.911151109382    -1.824477365747     1.278514946030
    H            0.682568873258    -0.177735469008     1.847212835854
    C            2.779054911958    -0.377184577674     0.164164504457
    H            3.342124978449    -0.090902781104    -0.715456308614
    H            3.099747865931    -1.369084922296     0.457444819492
    H            3.038546442221     0.314113380823     0.971102028379

  Mulliken Charges: (a.u.)
   Center  Symbol    Alpha    Beta     Spin     Total
       1     H     0.45700  0.45700  0.00000  0.08599
       2     C     3.09404  3.09404  0.00000 -0.18808
       3     N     3.61617  3.61617  0.00000 -0.23234
       4     H     0.46433  0.46433  0.00000  0.07134
       5     H     0.44991  0.44991  0.00000  0.10017
       6     C     3.03624  3.03624  0.00000 -0.07247
       7     C     3.03510  3.03510  0.00000 -0.07019
       8     H     0.46752  0.46752  0.00000  0.06496
       9     H     0.45334  0.45334  0.00000  0.09331
      10     C     3.03724  3.03724  0.00000 -0.07449
      11     H     0.45374  0.45374  0.00000  0.09252
      12     H     0.46832  0.46832  0.00000  0.06336
      13     C     3.03684  3.03684  0.00000 -0.07368
      14     H     0.45401  0.45401  0.00000  0.09198
      15     H     0.46835  0.46835  0.00000  0.06329
      16     N     3.61283  3.61283  0.00000 -0.22565
      17     H     0.45402  0.45402  0.00000  0.09196
      18     H     0.46851  0.46851  0.00000  0.06297
      19     C     3.09841  3.09841  0.00000 -0.19683
      20     H     0.45200  0.45200  0.00000  0.09600
      21     H     0.45200  0.45200  0.00000  0.09599
      22     H     0.47006  0.47006  0.00000  0.05988

   Total alpha = 32.00000, Total beta = 32.00000, Total charge = -0.00000

*** Psi4 exiting successfully. Buy a developer a beer!
