  ==> Input File <==

--------------------------------------------------------------------------
set {
	reference rhf
	basis cc-pvtz
}

set_num_threads( 4 )
memory 2 gb

molecule MOL {
0 1

H	 2.646708	 0.758099	 0.000000
O	 2.258158	 -0.097743	 0.000000
C	 0.911162	 -0.015915	 0.000000
C	 0.207375	 -1.038820	 0.614126
C	 0.233459	 1.037919	 -0.583586
H	 0.749677	 -1.848248	 1.061604
C	 -1.169862	 -0.997681	 0.638633
H	 0.779509	 1.831831	 -1.060225
C	 -1.149520	 1.066074	 -0.551395
H	 -1.710026	 -1.793154	 1.115965
C	 -1.860198	 0.052988	 0.057313
H	 -1.667976	 1.888218	 -1.007037
H	 -2.931988	 0.078071	 0.080380

	symmetry c1
}
set optking {
	frozen_dihedral = ("
		4 3 2 1
	")
}

ee = optimize('scf')
oeprop('DIPOLE', 'QUADRUPOLE', 'MULLIKEN_CHARGES')
f=open( 'psi4out.xyz', 'w' )
f.write( "13  " )
f.write( str(ee) + "\n" )
f.write( MOL.save_string_xyz() )
f.close()
--------------------------------------------------------------------------

    Molecular point group: c1
  Charge       = 0
  Multiplicity = 1
  Basis Set: CC-PVTZ
  Basis Set:
  @DF-RHF Final Energy:  -305.66930355978900
    Total Energy =                       -305.6693035597890002
    Molecular point group: c1
  Basis Set: CC-PVTZ
  Basis Set:
  Basis Set: CC-PVTZ
  Basis Set:
  @DF-RHF Final Energy:  -305.66934994833241
    Total Energy =                       -305.6693499483322967
  Basis Set: CC-PVTZ
  Basis Set:
  Basis Set: CC-PVTZ
  Basis Set:
  @DF-RHF Final Energy:  -305.66935823201652
    Total Energy =                       -305.6693582320166342
  Basis Set: CC-PVTZ
  Basis Set:
  Charge       = 0
  Multiplicity = 1
  Basis Set: CC-PVTZ
  Basis Set:

    Orbital Energies (a.u.)
    -----------------------

    Doubly Occupied:

       1A    -20.581300     2A    -11.295435     3A    -11.234956
       4A    -11.233337     5A    -11.226239     6A    -11.221431
       7A    -11.221033     8A     -1.411039     9A     -1.152862
      10A     -1.022700    11A     -1.008398    12A     -0.848464
      13A     -0.827009    14A     -0.740932    15A     -0.687487
      16A     -0.653844    17A     -0.618924    18A     -0.598886
      19A     -0.591835    20A     -0.553281    21A     -0.517464
      22A     -0.494944    23A     -0.482272    24A     -0.342904
      25A     -0.318110

  @DF-RHF Final Energy:  -305.66935908827162

   => Energetics <=

    Nuclear Repulsion Energy =            273.7083887413595562
    One-Electron Energy =                -956.9853189986789630
    Two-Electron Energy =                 377.6075711690481285
    DFT Exchange-Correlation Energy =       0.0000000000000000
    Empirical Dispersion Energy =           0.0000000000000000
    PCM Polarization Energy =               0.0000000000000000
    EFP Energy =                            0.0000000000000000
    Total Energy =                       -305.6693590882713352
    Molecular point group: c1
  Basis Set: CC-PVTZ
  Basis Set:

  -Total Gradient:
     Atom            X                  Y                   Z
    ------   -----------------  -----------------  -----------------
       1       -0.000022328511    -0.000000620043     0.002426577785
       2        0.000097016506     0.000365416143    -0.002295277996
       3       -0.000186857947    -0.001132002699    -0.001665727386
       4       -0.000054628081     0.000841616132     0.001514759932
       5        0.000125001916    -0.000091465853     0.000005714034
       6        0.000022046500    -0.000006302013     0.000017722199
       7        0.000145776057    -0.000106840038     0.000028888692
       8       -0.000005407206    -0.000000960018    -0.000000199315
       9       -0.000170499467    -0.000061139804     0.000038246605
      10        0.000006738882     0.000010360570    -0.000007260858
      11        0.000038189203     0.000183029798    -0.000065634555
      12        0.000011695891     0.000010790162     0.000009246105
      13       -0.000006743745    -0.000011882338    -0.000007055241

  **** Optimization is complete! (in 4 steps) ****
    Final optimized geometry and variables:
    Molecular point group: c1

    Geometry (in Angstrom), charge = 0, multiplicity = 1:

    H            2.646215809022     0.754568660046    -0.033334302205
    O            2.261145819846    -0.103007273747    -0.031974305221
    C            0.909232365958    -0.023341710518    -0.020655862032
    C            0.205936535019    -1.043694584342     0.594398754982
    C            0.233028616570     1.031840880077    -0.604220345760
    H            0.748093554430    -1.849874714633     1.048023998013
    C           -1.173015951908    -1.007939111009     0.609944487709
    H            0.782555843285     1.818887478973    -1.087165489951
    C           -1.149120506045     1.062373825691    -0.571365104554
    H           -1.714198855157    -1.803808323075     1.085368102349
    C           -1.860445577727     0.044619284514     0.031248433205
    H           -1.667696628463     1.885485261405    -1.025089196265
    H           -2.932463876055     0.069188597612     0.051114277676

  Mulliken Charges: (a.u.)
   Center  Symbol    Alpha    Beta     Spin     Total
       1     H     0.38597  0.38597  0.00000  0.22805
       2     O     4.18028  4.18028  0.00000 -0.36056
       3     C     2.85819  2.85819  0.00000  0.28362
       4     C     3.10966  3.10966  0.00000 -0.21931
       5     C     3.12865  3.12865  0.00000 -0.25730
       6     H     0.41826  0.41826  0.00000  0.16348
       7     C     3.05919  3.05919  0.00000 -0.11839
       8     H     0.43005  0.43005  0.00000  0.13989
       9     C     3.06599  3.06599  0.00000 -0.13197
      10     H     0.42222  0.42222  0.00000  0.15555
      11     C     3.09552  3.09552  0.00000 -0.19104
      12     H     0.42230  0.42230  0.00000  0.15540
      13     H     0.42372  0.42372  0.00000  0.15256

   Total alpha = 25.00000, Total beta = 25.00000, Total charge =  0.00000
