  ==> Input File <==

--------------------------------------------------------------------------
set {
	reference rhf
	basis 6-31G*
}

set_num_threads( 4 )
memory 2 gb

molecule MOL {
0 1

O	 -2.042549	 -1.228399	 -0.269030
C	 -1.653912	 -0.146171	 0.050137
C	 -0.332303	 0.024011	 0.778412
C	 -2.438579	 1.106236	 -0.272369
C	 0.845713	 -0.001731	 -0.208243
H	 -0.323783	 0.953829	 1.340327
H	 -0.235459	 -0.796807	 1.480410
C	 2.200309	 0.136118	 0.488247
H	 0.733710	 0.800019	 -0.936072
H	 0.811185	 -0.933796	 -0.764304
C	 3.375075	 -0.184267	 -0.435053
H	 2.307763	 1.147943	 0.873072
H	 2.227610	 -0.524786	 1.351397
H	 3.394695	 0.483274	 -1.291824
H	 3.312217	 -1.201543	 -0.810077
H	 4.321646	 -0.081277	 0.085930
H	 -3.277823	 0.863061	 -0.908988
H	 -1.806773	 1.843019	 -0.759671
H	 -2.802853	 1.554979	 0.648059

	symmetry c1
}
set optking {
	frozen_dihedral = ("
		11 8 5 9
	")
}

ee = optimize('scf')
oeprop('DIPOLE', 'QUADRUPOLE', 'MULLIKEN_CHARGES')
f=open( 'psi4out.xyz', 'w' )
f.write( "19  " )
f.write( str(ee) + "\n" )
f.write( MOL.save_string_xyz() )
f.close()
--------------------------------------------------------------------------

    Molecular point group: c1
  Charge       = 0
  Multiplicity = 1
  Basis Set: 6-31G*
  Basis Set:
  @DF-RHF Final Energy:  -309.06460903205721
    Total Energy =                       -309.0646090320574331
    Molecular point group: c1
  Basis Set: 6-31G*
  Basis Set:
  Basis Set: 6-31G*
  Basis Set:
  @DF-RHF Final Energy:  -309.06440792633975
    Total Energy =                       -309.0644079263396407
  Basis Set: 6-31G*
  Basis Set:
  Basis Set: 6-31G*
  Basis Set:
  @DF-RHF Final Energy:  -309.06452677300683
    Total Energy =                       -309.0645267730063779
  Basis Set: 6-31G*
  Basis Set:
  Basis Set: 6-31G*
  Basis Set:
  @DF-RHF Final Energy:  -309.06465882324221
    Total Energy =                       -309.0646588232424392
  Basis Set: 6-31G*
  Basis Set:
  Basis Set: 6-31G*
  Basis Set:
  @DF-RHF Final Energy:  -309.06467068035602
    Total Energy =                       -309.0646706803559027
  Basis Set: 6-31G*
  Basis Set:
  Basis Set: 6-31G*
  Basis Set:
  @DF-RHF Final Energy:  -309.06467677343289
    Total Energy =                       -309.0646767734328932
  Basis Set: 6-31G*
  Basis Set:
  Basis Set: 6-31G*
  Basis Set:
  @DF-RHF Final Energy:  -309.06467895496985
    Total Energy =                       -309.0646789549698497
  Basis Set: 6-31G*
  Basis Set:
  Charge       = 0
  Multiplicity = 1
  Basis Set: 6-31G*
  Basis Set:

    Orbital Energies (a.u.)
    -----------------------

    Doubly Occupied:

       1A    -20.547520     2A    -11.324565     3A    -11.230654
       4A    -11.229328     5A    -11.228315     6A    -11.224876
       7A    -11.214704     8A     -1.393242     9A     -1.091179
      10A     -1.029132    11A     -0.983769    12A     -0.889775
      13A     -0.806699    14A     -0.733306    15A     -0.662889
      16A     -0.646398    17A     -0.621710    18A     -0.613092
      19A     -0.582135    20A     -0.574971    21A     -0.550803
      22A     -0.537135    23A     -0.515269    24A     -0.497473
      25A     -0.482125    26A     -0.476342    27A     -0.466696
      28A     -0.396788

  @DF-RHF Final Energy:  -309.06467919461227

   => Energetics <=

    Nuclear Repulsion Energy =            301.2287649286841997
    One-Electron Energy =               -1015.4851051297655431
    Two-Electron Energy =                 405.1916610064691895
    DFT Exchange-Correlation Energy =       0.0000000000000000
    Empirical Dispersion Energy =           0.0000000000000000
    PCM Polarization Energy =               0.0000000000000000
    EFP Energy =                            0.0000000000000000
    Total Energy =                       -309.0646791946121539
    Molecular point group: c1
  Basis Set: 6-31G*
  Basis Set:

  -Total Gradient:
     Atom            X                  Y                   Z
    ------   -----------------  -----------------  -----------------
       1        0.000001863993     0.000000621353     0.000000494266
       2        0.000002314906     0.000001422360     0.000001288119
       3        0.000007640681    -0.000004702776    -0.000015099804
       4        0.000000825322     0.000003527623    -0.000004251779
       5        0.001201529369    -0.002278151454    -0.001835507251
       6        0.000000487517     0.000000625377    -0.000001456107
       7        0.000010280692    -0.000002972983    -0.000003510219
       8       -0.000155382652     0.002555257529    -0.000261768308
       9       -0.001018954235     0.001345544024     0.001636069419
      10        0.000000259801    -0.000000891469     0.000002673647
      11       -0.000053241566    -0.001628020258     0.000477481340
      12        0.000004613239    -0.000001920718    -0.000011867171
      13        0.000005993713     0.000005325734     0.000010124514
      14        0.000002508135     0.000001857638    -0.000003610300
      15       -0.000004540087     0.000001404318     0.000006370283
      16       -0.000002064657     0.000000051423    -0.000000159903
      17        0.000000590140     0.000000446431    -0.000000608490
      18       -0.000000729188    -0.000004483900     0.000002431880
      19       -0.000003995121     0.000005059745     0.000000905864

  **** Optimization is complete! (in 8 steps) ****
    Final optimized geometry and variables:
    Molecular point group: c1

    Geometry (in Angstrom), charge = 0, multiplicity = 1:

    O           -2.056506816779    -1.177644635228    -0.279177882406
    C           -1.655698498542    -0.100349263764     0.041768677076
    C           -0.332170426265     0.053348502232     0.769941640396
    C           -2.426418352343     1.161261988046    -0.278662542779
    C            0.845585819145     0.016002630041    -0.218110364595
    H           -0.312588787989     0.982257947583     1.333396912055
    H           -0.244276586527    -0.769543943476     1.470480421474
    C            2.198572080472     0.177912784618     0.479123691437
    H            0.722689367127     0.813994427286    -0.948135314367
    H            0.812825605341    -0.923561478086    -0.760463053754
    C            3.379736812693    -0.126438939465    -0.441591800539
    H            2.285530595168     1.188263297997     0.871644221619
    H            2.240285974093    -0.488561206806     1.337687856241
    H            3.380074908688     0.523331992218    -1.312427575455
    H            3.342063647722    -1.152380037491    -0.794986492874
    H            4.324463518857     0.012737151530     0.074381466572
    H           -3.267188584740     0.928791774991    -0.917267962383
    H           -1.786200866750     1.892818082698    -0.762829610314
    H           -2.787474690411     1.611178584987     0.642483136154

  Mulliken Charges: (a.u.)
   Center  Symbol    Alpha    Beta     Spin     Total
       1     O     4.26214  4.26214  0.00000 -0.52429
       2     C     2.73713  2.73713  0.00000  0.52573
       3     C     3.20055  3.20055  0.00000 -0.40111
       4     C     3.28955  3.28955  0.00000 -0.57910
       5     C     3.16091  3.16091  0.00000 -0.32181
       6     H     0.41695  0.41695  0.00000  0.16610
       7     H     0.40104  0.40104  0.00000  0.19793
       8     C     3.15217  3.15217  0.00000 -0.30433
       9     H     0.42060  0.42060  0.00000  0.15880
      10     H     0.40624  0.40624  0.00000  0.18752
      11     C     3.24027  3.24027  0.00000 -0.48053
      12     H     0.42153  0.42153  0.00000  0.15694
      13     H     0.41997  0.41997  0.00000  0.16005
      14     H     0.42106  0.42106  0.00000  0.15788
      15     H     0.41851  0.41851  0.00000  0.16298
      16     H     0.41770  0.41770  0.00000  0.16460
      17     H     0.39701  0.39701  0.00000  0.20599
      18     H     0.40996  0.40996  0.00000  0.18007
      19     H     0.40671  0.40671  0.00000  0.18659

   Total alpha = 28.00000, Total beta = 28.00000, Total charge = -0.00000
