  ==> Input File <==

--------------------------------------------------------------------------
set {
	reference rhf
	basis 6-31G*
}

set_num_threads( 4 )
memory 2 gb

molecule MOL {
0 1

H	 -2.646374	 -0.642757	 1.268656
C	 -2.083525	 -0.384536	 0.393091
O	 -0.807605	 -0.127164	 0.768327
F	 -2.118945	 -1.383102	 -0.486752
F	 -2.621877	 0.670592	 -0.209486
C	 -0.537304	 -0.046283	 2.122241
C	 0.308708	 1.202723	 2.332976
Cl	 0.328062	 -1.487402	 2.680392
H	 -1.431422	 0.047015	 2.713529
F	 0.595876	 1.353427	 3.608500
F	 -0.382875	 2.254583	 1.942154
F	 1.426840	 1.163921	 1.650152

	symmetry c1
}
set optking {
	frozen_dihedral = ("
		6 3 2 4
	")
}

ee = optimize('scf')
oeprop('DIPOLE', 'QUADRUPOLE', 'MULLIKEN_CHARGES')
f=open( 'psi4out.xyz', 'w' )
f.write( "12  " )
f.write( str(ee) + "\n" )
f.write( MOL.save_string_xyz() )
f.close()
--------------------------------------------------------------------------

    Molecular point group: c1
  Charge       = 0
  Multiplicity = 1
  Basis Set: 6-31G*
  Basis Set:
  @DF-RHF Final Energy: -1146.30563017850545
    Total Energy =                      -1146.3056301785045434
    Molecular point group: c1
  Basis Set: 6-31G*
  Basis Set:
  Basis Set: 6-31G*
  Basis Set:
  @DF-RHF Final Energy: -1146.30719258650061
    Total Energy =                      -1146.3071925865008325
  Basis Set: 6-31G*
  Basis Set:
  Basis Set: 6-31G*
  Basis Set:
  @DF-RHF Final Energy: -1146.30803528747219
    Total Energy =                      -1146.3080352874721939
  Basis Set: 6-31G*
  Basis Set:
  Basis Set: 6-31G*
  Basis Set:
  @DF-RHF Final Energy: -1146.30860168226764
    Total Energy =                      -1146.3086016822676356
  Basis Set: 6-31G*
  Basis Set:
  Basis Set: 6-31G*
  Basis Set:
  @DF-RHF Final Energy: -1146.30866366446003
    Total Energy =                      -1146.3086636644600276
  Basis Set: 6-31G*
  Basis Set:
  Basis Set: 6-31G*
  Basis Set:
  @DF-RHF Final Energy: -1146.30867819603441
    Total Energy =                      -1146.3086781960339522
  Basis Set: 6-31G*
  Basis Set:
  Basis Set: 6-31G*
  Basis Set:
  @DF-RHF Final Energy: -1146.30868539099629
    Total Energy =                      -1146.3086853909967431
  Basis Set: 6-31G*
  Basis Set:
  Charge       = 0
  Multiplicity = 1
  Basis Set: 6-31G*
  Basis Set:

    Orbital Energies (a.u.)
    -----------------------

    Doubly Occupied:

       1A   -104.852954     2A    -26.365003     3A    -26.362877
       4A    -26.362017     5A    -26.340502     6A    -26.340452
       7A    -20.650531     8A    -11.534035     9A    -11.489883
      10A    -11.411275    11A    -10.587756    12A     -8.057054
      13A     -8.053618    14A     -8.053471    15A     -1.766190
      16A     -1.713464    17A     -1.662535    18A     -1.660978
      19A     -1.635260    20A     -1.490487    21A     -1.183286
      22A     -1.060333    23A     -0.983282    24A     -0.931016
      25A     -0.862559    26A     -0.858382    27A     -0.850087
      28A     -0.816433    29A     -0.811543    30A     -0.793968
      31A     -0.732354    32A     -0.728324    33A     -0.698423
      34A     -0.690253    35A     -0.683487    36A     -0.677124
      37A     -0.664623    38A     -0.662218    39A     -0.653514
      40A     -0.644099    41A     -0.604644    42A     -0.565556
      43A     -0.524263    44A     -0.486963    45A     -0.478775

  @DF-RHF Final Energy: -1146.30868536095568

   => Energetics <=

    Nuclear Repulsion Energy =            725.4258279984878754
    One-Electron Energy =               -3033.3973238667917940
    Two-Electron Energy =                1161.6628105073482402
    DFT Exchange-Correlation Energy =       0.0000000000000000
    Empirical Dispersion Energy =           0.0000000000000000
    PCM Polarization Energy =               0.0000000000000000
    EFP Energy =                            0.0000000000000000
    Total Energy =                      -1146.3086853609556783
    Molecular point group: c1
  Basis Set: 6-31G*
  Basis Set:

  -Total Gradient:
     Atom            X                  Y                   Z
    ------   -----------------  -----------------  -----------------
       1       -0.000005094640    -0.000000898270    -0.000012432404
       2       -0.000000575532     0.000516850411    -0.000867941197
       3       -0.000633324506     0.001084657844     0.000389244789
       4        0.000165721267    -0.000716196062     0.000628199778
       5       -0.000005959881     0.000003752819     0.000015128303
       6        0.000475308106    -0.000794688535    -0.000167917789
       7        0.000044771808    -0.000046982418     0.000063918676
       8        0.000029388678    -0.000071296786    -0.000002077002
       9        0.000014799215     0.000000359544    -0.000005662454
      10       -0.000008993467     0.000035756055     0.000002384052
      11       -0.000026667961     0.000012768859    -0.000049409599
      12       -0.000049373105    -0.000024083444     0.000006564776

  **** Optimization is complete! (in 8 steps) ****
    Final optimized geometry and variables:
    Molecular point group: c1

    Geometry (in Angstrom), charge = 0, multiplicity = 1:

    H           -2.044461751913    -1.216555398741    -0.413576876697
    C           -1.568377995509    -0.657549181934    -1.201740383588
    O           -0.414554465273    -0.054653688820    -0.797754729154
    F           -1.287483820309    -1.465012475855    -2.206368070848
    F           -2.404784243754     0.270193070567    -1.643697464554
    C           -0.101849103741    -0.068194780083     0.536184542881
    C            0.928161445010     1.034017364393     0.755331506127
    CL           0.545300839132    -1.644802344895     1.052911259863
    H           -0.954633773829     0.141918617393     1.163311908816
    F            1.259573702156     1.096300372966     2.027598102172
    F            0.395025166562     2.188574286593     0.415366856158
    F            2.010802198553     0.845707101043     0.044249743465

  Mulliken Charges: (a.u.)
   Center  Symbol    Alpha    Beta     Spin     Total
       1     H     0.42037  0.42037  0.00000  0.15927
       2     C     2.56636  2.56636  0.00000  0.86729
       3     O     4.29700  4.29700  0.00000 -0.59401
       4     F     4.67164  4.67164  0.00000 -0.34328
       5     F     4.67629  4.67629  0.00000 -0.35258
       6     C     3.04047  3.04047  0.00000 -0.08095
       7     C     2.43019  2.43019  0.00000  1.13963
       8    CL     8.50684  8.50684  0.00000 -0.01367
       9     H     0.37623  0.37623  0.00000  0.24754
      10     F     4.67462  4.67462  0.00000 -0.34924
      11     F     4.67404  4.67404  0.00000 -0.34807
      12     F     4.66596  4.66596  0.00000 -0.33192

   Total alpha = 45.00000, Total beta = 45.00000, Total charge =  0.00000
