                              Psi4 1.0.54 Driver

  ==> Input File <==

--------------------------------------------------------------------------
set {
	reference rhf
	basis cc-pvtz
}

set_num_threads( 4 )
memory 2 gb

molecule MOL {
0 1

H	 -3.267872	 0.741949	 -0.450145
C	 -2.805877	 1.700858	 -0.226673
O	 -1.446003	 1.687377	 -0.506141
H	 -3.263050	 2.459444	 -0.845081
H	 -2.997251	 1.939557	 0.817972
C	 -0.718530	 0.758693	 0.228682
C	 0.718529	 0.758687	 -0.228709
H	 -0.751294	 1.007551	 1.289326
H	 -1.132978	 -0.239545	 0.105459
O	 1.401606	 -0.295166	 0.366636
H	 0.748705	 0.673477	 -1.312803
H	 1.176496	 1.708671	 0.046552
C	 2.714315	 -0.441627	 -0.061017
H	 2.765292	 -0.641548	 -1.128869
H	 3.305661	 0.447341	 0.150952
H	 3.143725	 -1.278506	 0.470147

	symmetry c1
}
set optking {
	frozen_dihedral = ("
		3 6 7 11
	")
}

ee,wfn = optimize('scf', return_wfn=True)
oeprop( wfn, 'DIPOLE', 'QUADRUPOLE', 'MULLIKEN_CHARGES')
f=open( 'psi4out.xyz', 'w' )
f.write( "16  " )
f.write( str(ee) + "\n" )
f.write( MOL.save_string_xyz() )
f.close()
--------------------------------------------------------------------------

    Molecular point group: c1
  Charge       = 0
  Multiplicity = 1
  Basis Set: CC-PVTZ
  Basis Set:
  @DF-RHF Final Energy:  -307.09867043604345
    Total Energy =                       -307.0986704360436761
    Molecular point group: c1
  Basis Set: CC-PVTZ
  Basis Set:
  Basis Set: CC-PVTZ
  Basis Set:
  @DF-RHF Final Energy:  -307.09916332970113
    Total Energy =                       -307.0991633297007866
  Basis Set: CC-PVTZ
  Basis Set:
  Basis Set: CC-PVTZ
  Basis Set:
  @DF-RHF Final Energy:  -307.09924952294563
    Total Energy =                       -307.0992495229456267
  Basis Set: CC-PVTZ
  Basis Set:
  Charge       = 0
  Multiplicity = 1
  Basis Set: CC-PVTZ
  Basis Set:

    Orbital Energies (a.u.)
    -----------------------

    Doubly Occupied:

       1A    -20.552887     2A    -20.552638     3A    -11.265908
       4A    -11.265240     5A    -11.264843     6A    -11.264742
       7A     -1.392656     8A     -1.381403     9A     -1.031709
      10A     -0.942457    11A     -0.883582    12A     -0.831904
      13A     -0.693773    14A     -0.676794    15A     -0.661830
      16A     -0.650181    17A     -0.621941    18A     -0.601438
      19A     -0.576500    20A     -0.517565    21A     -0.509565
      22A     -0.485562    23A     -0.468134    24A     -0.421096
      25A     -0.420934

  @DF-RHF Final Energy:  -307.09925461890901

   => Energetics <=

    Nuclear Repulsion Energy =            255.0664187790226265
    One-Electron Energy =                -924.4607911663781579
    Two-Electron Energy =                 362.2951177684465733
    DFT Exchange-Correlation Energy =       0.0000000000000000
    Empirical Dispersion Energy =           0.0000000000000000
    PCM Polarization Energy =               0.0000000000000000
    EFP Energy =                            0.0000000000000000
    Total Energy =                       -307.0992546189090149
    Molecular point group: c1
  Basis Set: CC-PVTZ
  Basis Set:

  -Total Gradient:
     Atom            X                  Y                   Z
    ------   -----------------  -----------------  -----------------
       1        0.000045359822     0.000076148802     0.000009598150
       2       -0.000147875929    -0.000117613063     0.000130984423
       3       -0.000238491015    -0.000909342640    -0.000978555318
       4        0.000126510078    -0.000031000122     0.000002235667
       5        0.000029638929    -0.000018634821    -0.000075427421
       6        0.000283545370     0.001670234192     0.001176198842
       7        0.000077380148    -0.002403464848    -0.000032058737
       8        0.000017182368     0.000000600135    -0.000047323431
       9        0.000019204129    -0.000019877442    -0.000009833795
      10       -0.000071245896    -0.000059147642     0.000012349477
      11       -0.000089366734     0.001713246929    -0.000106829514
      12       -0.000001805229     0.000005027189    -0.000015823428
      13        0.000121574619     0.000102859136    -0.000158743341
      14       -0.000009965151     0.000008317062     0.000090037373
      15       -0.000050358765    -0.000053676942    -0.000011089059
      16       -0.000111286749     0.000036324077     0.000014280110

  **** Optimization is complete! (in 4 steps) ****
    Final optimized geometry and variables:
    Molecular point group: c1

    Geometry (in Angstrom), charge = 0, multiplicity = 1:

    H           -3.286079944256     0.107125699189    -0.223057182693
    C           -2.766512972388     1.053486806494    -0.092184442215
    O           -1.428436418157     0.951753920662    -0.452067154055
    H           -3.224955425427     1.794090542594    -0.730950467351
    H           -2.877302464151     1.366483664275     0.943369063494
    C           -0.703489293380     0.022218363653     0.286555775991
    C            0.728430674899     0.051194512008    -0.199182694096
    H           -0.741883227227     0.252738979052     1.348854244264
    H           -1.106873068355    -0.978739667324     0.150343876201
    O            1.412155335194    -1.002106145104     0.397186378077
    H            0.741164520451    -0.028320140338    -1.283759290412
    H            1.185740920076     1.004230451066     0.059793668569
    C            2.758361221237    -1.076480348239     0.061371798588
    H            2.893894063984    -1.211471700177    -1.009120678040
    H            3.294100111940    -0.180424742875     0.365835009030
    H            3.180675862039    -1.926921115147     0.576234048980

  Mulliken Charges: (a.u.)
   Center  Symbol    Alpha    Beta     Spin     Total
       1     H     0.47069  0.47069  0.00000  0.05862
       2     C     3.03150  3.03150  0.00000 -0.06300
       3     O     4.17530  4.17530  0.00000 -0.35061
       4     H     0.44687  0.44687  0.00000  0.10627
       5     H     0.47070  0.47070  0.00000  0.05860
       6     C     2.96362  2.96362  0.00000  0.07275
       7     C     2.96350  2.96350  0.00000  0.07301
       8     H     0.47095  0.47095  0.00000  0.05810
       9     H     0.47043  0.47043  0.00000  0.05915
      10     O     4.17504  4.17504  0.00000 -0.35008
      11     H     0.47009  0.47009  0.00000  0.05982
      12     H     0.47172  0.47172  0.00000  0.05656
      13     C     3.03160  3.03160  0.00000 -0.06319
      14     H     0.47051  0.47051  0.00000  0.05898
      15     H     0.47066  0.47066  0.00000  0.05868
      16     H     0.44682  0.44682  0.00000  0.10635

   Total alpha = 25.00000, Total beta = 25.00000, Total charge =  0.00000

*** Psi4 exiting successfully. Buy a developer a beer!
