                              Psi4 1.0.54 Driver

  ==> Input File <==

--------------------------------------------------------------------------
set {
	reference rhf
	basis cc-pvtz
}

set_num_threads( 4 )
memory 2 gb

molecule MOL {
0 1

H	 2.722946	 1.685840	 -0.897667
O	 3.337992	 1.214120	 -1.427788
C	 3.550823	 -0.068521	 -0.899767
C	 2.374291	 -1.011289	 -1.103850
H	 4.419990	 -0.458390	 -1.412144
H	 3.800973	 -0.006880	 0.157624
C	 1.108617	 -0.606880	 -0.351274
H	 2.163085	 -1.074929	 -2.167100
H	 2.681870	 -2.003703	 -0.783059
C	 -0.040222	 -1.593822	 -0.553636
H	 0.798177	 0.380523	 -0.676337
H	 1.330490	 -0.531047	 0.711885
C	 -1.311023	 -1.277304	 0.237018
H	 -0.280895	 -1.649124	 -1.612525
H	 0.302505	 -2.585047	 -0.269944
C	 -2.041121	 -0.006551	 -0.194127
H	 -1.992506	 -2.117675	 0.137587
H	 -1.067684	 -1.210761	 1.295089
C	 -3.489218	 0.042606	 0.286507
H	 -2.022185	 0.066287	 -1.279394
H	 -1.518764	 0.869305	 0.178730
C	 -4.219984	 1.311773	 -0.139038
H	 -4.022855	 -0.824300	 -0.093339
H	 -3.510372	 -0.038577	 1.370031
H	 -4.244251	 1.405725	 -1.219696
H	 -5.244345	 1.313233	 0.215630
H	 -3.732090	 2.196311	 0.257073

	symmetry c1
}
set optking {
	frozen_dihedral = ("
		10 13 16 20
	")
}

ee,wfn = optimize('scf', return_wfn=True)
oeprop( wfn, 'DIPOLE', 'QUADRUPOLE', 'MULLIKEN_CHARGES')
f=open( 'psi4out.xyz', 'w' )
f.write( "27  " )
f.write( str(ee) + "\n" )
f.write( MOL.save_string_xyz() )
f.close()
--------------------------------------------------------------------------

    Molecular point group: c1
  Charge       = 0
  Multiplicity = 1
  Basis Set: CC-PVTZ
  Basis Set:
  @DF-RHF Final Energy:  -388.42708698340692
    Total Energy =                       -388.4270869834072073
    Molecular point group: c1
  Basis Set: CC-PVTZ
  Basis Set:
  Basis Set: CC-PVTZ
  Basis Set:
  @DF-RHF Final Energy:  -388.42708089128126
    Total Energy =                       -388.4270808912813209
  Basis Set: CC-PVTZ
  Basis Set:
  Basis Set: CC-PVTZ
  Basis Set:
  @DF-RHF Final Energy:  -388.42718997460469
    Total Energy =                       -388.4271899746044028
  Basis Set: CC-PVTZ
  Basis Set:
  Basis Set: CC-PVTZ
  Basis Set:
  @DF-RHF Final Energy:  -388.42721518986605
    Total Energy =                       -388.4272151898658194
  Basis Set: CC-PVTZ
  Basis Set:
  Charge       = 0
  Multiplicity = 1
  Basis Set: CC-PVTZ
  Basis Set:

    Orbital Energies (a.u.)
    -----------------------

    Doubly Occupied:

       1A    -20.545234     2A    -11.264889     3A    -11.216637
       4A    -11.214644     5A    -11.214081     6A    -11.213160
       7A    -11.213103     8A    -11.211991     9A    -11.207248
      10A     -1.363146    11A     -1.096277    12A     -1.062460
      13A     -1.012647    14A     -0.949084    15A     -0.888862
      16A     -0.820751    17A     -0.802886    18A     -0.777497
      19A     -0.696085    20A     -0.654360    21A     -0.635596
      22A     -0.616601    23A     -0.602944    24A     -0.584744
      25A     -0.580222    26A     -0.553669    27A     -0.539884
      28A     -0.533476    29A     -0.506001    30A     -0.495758
      31A     -0.484959    32A     -0.473528    33A     -0.471166
      34A     -0.459844    35A     -0.452802    36A     -0.442940
      37A     -0.425302

  @DF-RHF Final Energy:  -388.42721526906610

   => Energetics <=

    Nuclear Repulsion Energy =            460.3886840818785231
    One-Electron Energy =               -1439.0628400943871839
    Two-Electron Energy =                 590.2469407434425648
    DFT Exchange-Correlation Energy =       0.0000000000000000
    Empirical Dispersion Energy =           0.0000000000000000
    PCM Polarization Energy =               0.0000000000000000
    EFP Energy =                            0.0000000000000000
    Total Energy =                       -388.4272152690660960
    Molecular point group: c1
  Basis Set: CC-PVTZ
  Basis Set:

  -Total Gradient:
     Atom            X                  Y                   Z
    ------   -----------------  -----------------  -----------------
       1        0.000010662926    -0.000000967218    -0.000001594492
       2        0.000003261285    -0.000005445849    -0.000005470639
       3       -0.000023140453    -0.000002387611     0.000047409813
       4        0.000006828529    -0.000025321134    -0.000009699193
       5       -0.000021285613    -0.000004149621     0.000004038051
       6       -0.000000063068     0.000006879013    -0.000013705118
       7        0.000002784029     0.000036468544    -0.000018017381
       8       -0.000008988410     0.000004952635     0.000017524599
       9       -0.000008065658     0.000014531250    -0.000017015910
      10       -0.000880742145    -0.000933617130    -0.001167631291
      11        0.000007088735    -0.000033265959     0.000003216707
      12       -0.000002714917    -0.000001505021    -0.000019889949
      13        0.001719529769     0.001587221170     0.001677903318
      14        0.000009932246     0.000010600792     0.000048991732
      15       -0.000025587223     0.000038415170    -0.000016199079
      16       -0.002823991993    -0.001854770676    -0.000648759087
      17        0.000020832547     0.000052563782     0.000012240073
      18        0.000005895610     0.000012876182    -0.000044073469
      19       -0.000037723648    -0.000068834543    -0.000060070582
      20        0.001982887054     0.001147692319     0.000225628576
      21       -0.000035329502    -0.000022107756    -0.000000472432
      22        0.000042509161     0.000037154760     0.000017556084
      23        0.000036681773     0.000057068496     0.000019461238
      24        0.000011062327     0.000004013043    -0.000085651798
      25       -0.000001049756    -0.000021582346     0.000062448551
      26        0.000043518189     0.000007328361     0.000007175934
      27       -0.000034791793    -0.000043810658    -0.000035344257

  **** Optimization is complete! (in 5 steps) ****
    Final optimized geometry and variables:
    Molecular point group: c1

    Geometry (in Angstrom), charge = 0, multiplicity = 1:

    H            2.698011221034     1.889698298923    -0.446757885967
    O            3.337168669421     1.419231930603    -0.948492185729
    C            3.571250567090     0.158894343382    -0.377700350597
    C            2.422920426469    -0.819121570141    -0.575550541424
    H            4.459927813197    -0.223801157717    -0.861128882622
    H            3.798525115936     0.258632714724     0.681891949353
    C            1.132057841264    -0.423427581477     0.137375557907
    H            2.236071434197    -0.921377649118    -1.640281192898
    H            2.747717921142    -1.792926096151    -0.217048883644
    C            0.013461974752    -1.447065181420    -0.049638608190
    H            0.799418204285     0.542398853973    -0.228976631076
    H            1.330516108891    -0.302611913135     1.200957342620
    C           -1.279920375353    -1.128644434313     0.701273796719
    H           -0.206241299777    -1.545815530486    -1.109617441779
    H            0.373037892051    -2.418706144120     0.277369021857
    C           -1.993876299745     0.144084090282     0.241791961211
    H           -1.954932678686    -1.970352127384     0.572687464542
    H           -1.078357231228    -1.066090606519     1.767688094382
    C           -3.447886578770     0.218166027509     0.697339585406
    H           -1.943142872473     0.217704818934    -0.842194172762
    H           -1.465469671287     1.015853179908     0.618014345770
    C           -4.140383081734     1.513775008393     0.288752857630
    H           -3.994396151170    -0.627023312214     0.288672254958
    H           -3.489888157261     0.112769008889     1.778182115874
    H           -4.141012741916     1.633479517466    -0.789552536197
    H           -5.171172904563     1.530973333456     0.623515836357
    H           -3.640212824950     2.376869664301     0.715208524292

  Mulliken Charges: (a.u.)
   Center  Symbol    Alpha    Beta     Spin     Total
       1     H     0.39226  0.39226  0.00000  0.21547
       2     O     4.20560  4.20560  0.00000 -0.41119
       3     C     2.97984  2.97984  0.00000  0.04032
       4     C     3.08976  3.08976  0.00000 -0.17953
       5     H     0.44858  0.44858  0.00000  0.10285
       6     H     0.46979  0.46979  0.00000  0.06042
       7     C     3.10175  3.10175  0.00000 -0.20350
       8     H     0.45080  0.45080  0.00000  0.09839
       9     H     0.45504  0.45504  0.00000  0.08993
      10     C     3.09896  3.09896  0.00000 -0.19792
      11     H     0.45506  0.45506  0.00000  0.08987
      12     H     0.45379  0.45379  0.00000  0.09242
      13     C     3.09790  3.09790  0.00000 -0.19580
      14     H     0.45158  0.45158  0.00000  0.09683
      15     H     0.44800  0.44800  0.00000  0.10399
      16     C     3.09123  3.09123  0.00000 -0.18245
      17     H     0.44900  0.44900  0.00000  0.10200
      18     H     0.45246  0.45246  0.00000  0.09508
      19     C     3.08344  3.08344  0.00000 -0.16687
      20     H     0.45292  0.45292  0.00000  0.09416
      21     H     0.45526  0.45526  0.00000  0.08949
      22     C     3.14996  3.14996  0.00000 -0.29992
      23     H     0.45373  0.45373  0.00000  0.09253
      24     H     0.45459  0.45459  0.00000  0.09082
      25     H     0.45476  0.45476  0.00000  0.09048
      26     H     0.44830  0.44830  0.00000  0.10341
      27     H     0.45563  0.45563  0.00000  0.08874

   Total alpha = 37.00000, Total beta = 37.00000, Total charge = -0.00000

*** Psi4 exiting successfully. Buy a developer a beer!
