                              Psi4 1.0.54 Driver

  ==> Input File <==

--------------------------------------------------------------------------
set {
	reference rhf
	basis cc-pvtz
}

set_num_threads( 4 )
memory 2 gb

molecule MOL {
0 1

H	 -0.939693	 0.000281	 1.681345
O	 -0.046262	 -0.000157	 1.387678
C	 -0.000837	 0.000006	 -0.025491
C	 -1.085933	 0.925839	 -0.571887
C	 1.381612	 0.451420	 -0.492618
C	 -0.264765	 -1.441610	 -0.438135
H	 -1.099331	 0.918915	 -1.655661
H	 -0.917231	 1.948874	 -0.249381
H	 -2.059337	 0.615683	 -0.213068
H	 1.458555	 0.427068	 -1.573485
H	 1.584267	 1.467949	 -0.169089
H	 2.146657	 -0.192936	 -0.077917
H	 -0.249721	 -1.543796	 -1.516847
H	 -1.231940	 -1.764411	 -0.074015
H	 0.489426	 -2.095402	 -0.018652

	symmetry c1
}
set optking {
	frozen_dihedral = ("
		4 3 2 1
	")
}

ee,wfn = optimize('scf', return_wfn=True)
oeprop( wfn, 'DIPOLE', 'QUADRUPOLE', 'MULLIKEN_CHARGES')
f=open( 'psi4out.xyz', 'w' )
f.write( "15  " )
f.write( str(ee) + "\n" )
f.write( MOL.save_string_xyz() )
f.close()
--------------------------------------------------------------------------

    Molecular point group: c1
  Charge       = 0
  Multiplicity = 1
  Basis Set: CC-PVTZ
  Basis Set:
  @DF-RHF Final Energy:  -232.24455417015045
    Total Energy =                       -232.2445541701504226
    Molecular point group: c1
  Basis Set: CC-PVTZ
  Basis Set:
  Basis Set: CC-PVTZ
  Basis Set:
  @DF-RHF Final Energy:  -232.24558393656255
    Total Energy =                       -232.2455839365626957
  Basis Set: CC-PVTZ
  Basis Set:
  Basis Set: CC-PVTZ
  Basis Set:
  @DF-RHF Final Energy:  -232.24625003173261
    Total Energy =                       -232.2462500317324157
  Basis Set: CC-PVTZ
  Basis Set:
  Basis Set: CC-PVTZ
  Basis Set:
  @DF-RHF Final Energy:  -232.24625984992866
    Total Energy =                       -232.2462598499285491
  Basis Set: CC-PVTZ
  Basis Set:
  Basis Set: CC-PVTZ
  Basis Set:
  @DF-RHF Final Energy:  -232.24626272894434
    Total Energy =                       -232.2462627289443731
  Basis Set: CC-PVTZ
  Basis Set:
  Basis Set: CC-PVTZ
  Basis Set:
  @DF-RHF Final Energy:  -232.24626382101479
    Total Energy =                       -232.2462638210148498
  Basis Set: CC-PVTZ
  Basis Set:
  Charge       = 0
  Multiplicity = 1
  Basis Set: CC-PVTZ
  Basis Set:

    Orbital Energies (a.u.)
    -----------------------

    Doubly Occupied:

       1A    -20.541705     2A    -11.280882     3A    -11.212841
       4A    -11.206034     5A    -11.203811     6A     -1.364430
       7A     -1.065360     8A     -0.944084     9A     -0.938643
      10A     -0.778528    11A     -0.672483    12A     -0.624524
      13A     -0.622678    14A     -0.576245    15A     -0.557385
      16A     -0.533382    17A     -0.517068    18A     -0.511421
      19A     -0.504125    20A     -0.459068    21A     -0.427895

  @DF-RHF Final Energy:  -232.24626382971877

   => Energetics <=

    Nuclear Repulsion Energy =            200.6550655017355211
    One-Electron Energy =                -712.7174690076990373
    Two-Electron Energy =                 279.8161396762448589
    DFT Exchange-Correlation Energy =       0.0000000000000000
    Empirical Dispersion Energy =           0.0000000000000000
    PCM Polarization Energy =               0.0000000000000000
    EFP Energy =                            0.0000000000000000
    Total Energy =                       -232.2462638297186572
    Molecular point group: c1
  Basis Set: CC-PVTZ
  Basis Set:

  -Total Gradient:
     Atom            X                  Y                   Z
    ------   -----------------  -----------------  -----------------
       1        0.000122533466     0.001601789316    -0.000183168446
       2       -0.000362562311    -0.002227825623     0.000229784876
       3        0.000931410430     0.001328773687    -0.000207710525
       4       -0.000697052128    -0.000692208356     0.000107584215
       5       -0.000013318607    -0.000012186450     0.000029978632
       6        0.000015913983     0.000002799270     0.000008506839
       7        0.000001062197     0.000007400708     0.000007935789
       8       -0.000008443173    -0.000016074609    -0.000003955648
       9        0.000013335160     0.000001002999    -0.000008049180
      10       -0.000017101499     0.000009445957     0.000008395507
      11        0.000005542245    -0.000002508136     0.000004755281
      12       -0.000003720202    -0.000012317039    -0.000001441232
      13       -0.000000175753     0.000004166678     0.000007447259
      14        0.000008812683     0.000007911799     0.000003192670
      15        0.000003763511    -0.000000170201    -0.000003256036

  **** Optimization is complete! (in 7 steps) ****
    Final optimized geometry and variables:
    Molecular point group: c1

    Geometry (in Angstrom), charge = 0, multiplicity = 1:

    H           -0.738017580780     0.225659146254     1.766669950028
    O            0.112216535379     0.123567899241     1.379511158497
    C           -0.001450164161    -0.002952267180    -0.025148395183
    C           -1.066815225419     0.958424761286    -0.546374208064
    C            1.370348942471     0.350292821322    -0.583159279470
    C           -0.368218008531    -1.446087749584    -0.368227502308
    H           -1.150241063255     0.901886624447    -1.625031088283
    H           -0.822660648831     1.978425442867    -0.274935691763
    H           -2.039991540615     0.718108982168    -0.128142778340
    H            1.388429544350     0.246457641506    -1.661751159465
    H            1.629254529744     1.370253798307    -0.328394151526
    H            2.123230739924    -0.304084140478    -0.162009705168
    H           -0.430684446042    -1.593206054286    -1.440631520245
    H           -1.328335136297    -1.709314531962     0.063154417026
    H            0.375509385203    -2.124503956825     0.030249704100

  Mulliken Charges: (a.u.)
   Center  Symbol    Alpha    Beta     Spin     Total
       1     H     0.39479  0.39479  0.00000  0.21042
       2     O     4.21222  4.21222  0.00000 -0.42443
       3     C     2.87856  2.87856  0.00000  0.24288
       4     C     3.15462  3.15462  0.00000 -0.30924
       5     C     3.14206  3.14206  0.00000 -0.28413
       6     C     3.14636  3.14636  0.00000 -0.29272
       7     H     0.45339  0.45339  0.00000  0.09321
       8     H     0.44560  0.44560  0.00000  0.10879
       9     H     0.45588  0.45588  0.00000  0.08824
      10     H     0.45892  0.45892  0.00000  0.08216
      11     H     0.45008  0.45008  0.00000  0.09983
      12     H     0.44729  0.44729  0.00000  0.10543
      13     H     0.45732  0.45732  0.00000  0.08536
      14     H     0.45515  0.45515  0.00000  0.08969
      15     H     0.44775  0.44775  0.00000  0.10451

   Total alpha = 21.00000, Total beta = 21.00000, Total charge = -0.00000

*** Psi4 exiting successfully. Buy a developer a beer!
