  ==> Input File <==

--------------------------------------------------------------------------
set {
	reference rhf
	basis 6-31G*
}

set_num_threads( 1 )
memory 2 gb

molecule MOL {
0 1

H	 -2.798360	 -0.862255	 -0.071053
N	 -1.863561	 -0.715187	 0.256814
C	 -1.344686	 0.554728	 -0.219830
H	 -1.300452	 -1.461917	 -0.101532
C	 0.157855	 0.469064	 -0.387656
H	 -1.778522	 0.878495	 -1.166912
H	 -1.566745	 1.319292	 0.518352
O	 0.434266	 -0.461045	 -1.395416
H	 0.562928	 1.444272	 -0.656956
H	 0.613272	 0.156546	 0.549448
C	 1.790067	 -0.703271	 -1.597157
H	 1.878567	 -1.430383	 -2.392879
H	 2.317146	 0.203230	 -1.889433
H	 2.260373	 -1.102088	 -0.700738

	symmetry c1
}
set optking {
	frozen_dihedral = ("
		8 5 3 6,
		5 8 11 13,
		11 8 5 3
	")
}

ee = energy('scf')
oeprop('DIPOLE', 'QUADRUPOLE', 'MULLIKEN_CHARGES')
f=open( 'psi4out.xyz', 'w' )
f.write( "14  " )
f.write( str(ee) + "\n" )
f.write( MOL.save_string_xyz() )
f.close()
--------------------------------------------------------------------------

    Molecular point group: c1

    Geometry (in Angstrom), charge = 0, multiplicity = 1:

       Center              X                  Y                   Z               Mass
    ------------   -----------------  -----------------  -----------------  -----------------
           H         -2.642222116349    -0.670370876596     0.610152981735     1.007825032070
           N         -1.707423116349    -0.523302876596     0.938019981735    14.003074004780
           C         -1.188548116349     0.746612123404     0.461375981735    12.000000000000
           H         -1.144314116349    -1.270032876596     0.579673981735     1.007825032070
           C          0.313992883651     0.660948123404     0.293549981735    12.000000000000
           H         -1.622384116349     1.070379123404    -0.485706018265     1.007825032070
           H         -1.410607116349     1.511176123404     1.199557981735     1.007825032070
           O          0.590403883651    -0.269160876596    -0.714210018265    15.994914619560
           H          0.719065883651     1.636156123404     0.024249981735     1.007825032070
           H          0.769409883651     0.348430123404     1.230653981735     1.007825032070
           C          1.946204883651    -0.511386876596    -0.915951018265    12.000000000000
           H          2.034704883651    -1.238498876596    -1.711673018265     1.007825032070
           H          2.473283883651     0.395114123404    -1.208227018265     1.007825032070
           H          2.416510883651    -0.910203876596    -0.019532018265     1.007825032070

  Charge       = 0
  Multiplicity = 1
  Basis Set: 6-31G*
  Basis Set:

    Orbital Energies (a.u.)
    -----------------------

    Doubly Occupied:

       1A    -20.561887     2A    -15.525713     3A    -11.270392
       4A    -11.269689     5A    -11.240071     6A     -1.386174
       7A     -1.172869     8A     -1.000654     9A     -0.909888
      10A     -0.818884    11A     -0.689019    12A     -0.671570
      13A     -0.650879    14A     -0.617949    15A     -0.591711
      16A     -0.548411    17A     -0.534554    18A     -0.500184
      19A     -0.472272    20A     -0.422247    21A     -0.377625

  @DF-RHF Final Energy:  -248.12275696386510

   => Energetics <=

    Nuclear Repulsion Energy =            195.0582245858589374
    One-Electron Energy =                -723.8966309539374606
    Two-Electron Energy =                 280.7156494042137069
    DFT Exchange-Correlation Energy =       0.0000000000000000
    Empirical Dispersion Energy =           0.0000000000000000
    PCM Polarization Energy =               0.0000000000000000
    EFP Energy =                            0.0000000000000000
    Total Energy =                       -248.1227569638647878

  Mulliken Charges: (a.u.)
   Center  Symbol    Alpha    Beta     Spin     Total
       1     H     0.33237  0.33237  0.00000  0.33526
       2     N     3.93084  3.93084  0.00000 -0.86168
       3     C     3.05723  3.05723  0.00000 -0.11446
       4     H     0.32296  0.32296  0.00000  0.35408
       5     C     3.00497  3.00497  0.00000 -0.00994
       6     H     0.42497  0.42497  0.00000  0.15005
       7     H     0.42032  0.42032  0.00000  0.15936
       8     O     4.30793  4.30793  0.00000 -0.61587
       9     H     0.42704  0.42704  0.00000  0.14592
      10     H     0.42300  0.42300  0.00000  0.15400
      11     C     3.08002  3.08002  0.00000 -0.16003
      12     H     0.41153  0.41153  0.00000  0.17695
      13     H     0.42881  0.42881  0.00000  0.14238
      14     H     0.42801  0.42801  0.00000  0.14398

   Total alpha = 21.00000, Total beta = 21.00000, Total charge =  0.00000
