                              Psi4 1.0.54 Driver

  ==> Input File <==

--------------------------------------------------------------------------
set {
	reference rhf
	basis cc-pvtz
}

set_num_threads( 4 )
memory 2 gb

molecule MOL {
0 1

H	 -2.752510	 -0.320721	 2.635188
C	 -3.053412	 -0.557349	 1.605455
C	 -2.719527	 0.500430	 0.588836
O	 -3.604902	 -1.575973	 1.369717
C	 -1.249938	 0.928672	 0.639742
H	 -2.994888	 0.134738	 -0.391868
H	 -3.349580	 1.357878	 0.814934
C	 -0.277613	 -0.164480	 0.201807
H	 -1.124132	 1.798598	 0.004336
H	 -1.004499	 1.253496	 1.647929
C	 1.181757	 0.280428	 0.247371
H	 -0.528563	 -0.478734	 -0.807835
H	 -0.404201	 -1.042776	 0.829500
C	 2.151032	 -0.811012	 -0.202643
H	 1.300032	 1.162391	 -0.374318
H	 1.432429	 0.584978	 1.261132
C	 3.580021	 -0.656538	 0.320835
H	 2.170545	 -0.847575	 -1.289412
H	 1.766632	 -1.772905	 0.124928
C	 4.327657	 0.562694	 -0.213579
H	 4.138806	 -1.549270	 0.057813
H	 3.561991	 -0.620783	 1.406976
H	 4.355973	 0.557257	 -1.298551
H	 3.867136	 1.491650	 0.100501
H	 5.351524	 0.571613	 0.142204

	symmetry c1
}
set optking {
	frozen_dihedral = ("
		8 11 14 18
	")
}

ee,wfn = optimize('scf', return_wfn=True)
oeprop( wfn, 'DIPOLE', 'QUADRUPOLE', 'MULLIKEN_CHARGES')
f=open( 'psi4out.xyz', 'w' )
f.write( "25  " )
f.write( str(ee) + "\n" )
f.write( MOL.save_string_xyz() )
f.close()
--------------------------------------------------------------------------

    Molecular point group: c1
  Charge       = 0
  Multiplicity = 1
  Basis Set: CC-PVTZ
  Basis Set:
  @DF-RHF Final Energy:  -387.25912095104354
    Total Energy =                       -387.2591209510438830
    Molecular point group: c1
  Basis Set: CC-PVTZ
  Basis Set:
  Basis Set: CC-PVTZ
  Basis Set:
  @DF-RHF Final Energy:  -387.25917322335943
    Total Energy =                       -387.2591732233590847
  Basis Set: CC-PVTZ
  Basis Set:
  Basis Set: CC-PVTZ
  Basis Set:
  @DF-RHF Final Energy:  -387.25929270996983
    Total Energy =                       -387.2592927099698272
  Basis Set: CC-PVTZ
  Basis Set:
  Basis Set: CC-PVTZ
  Basis Set:
  @DF-RHF Final Energy:  -387.25927060262688
    Total Energy =                       -387.2592706026268843
  Basis Set: CC-PVTZ
  Basis Set:
  Basis Set: CC-PVTZ
  Basis Set:
  @DF-RHF Final Energy:  -387.25920367789803
    Total Energy =                       -387.2592036778984266
  Basis Set: CC-PVTZ
  Basis Set:
  Basis Set: CC-PVTZ
  Basis Set:
  @DF-RHF Final Energy:  -387.25932792683426
    Total Energy =                       -387.2593279268342030
  Basis Set: CC-PVTZ
  Basis Set:
  Basis Set: CC-PVTZ
  Basis Set:
  @DF-RHF Final Energy:  -387.25932894079489
    Total Energy =                       -387.2593289407944894
  Basis Set: CC-PVTZ
  Basis Set:
  Charge       = 0
  Multiplicity = 1
  Basis Set: CC-PVTZ
  Basis Set:

    Orbital Energies (a.u.)
    -----------------------

    Doubly Occupied:

       1A    -20.551458     2A    -11.321050     3A    -11.233841
       4A    -11.232838     5A    -11.221896     6A    -11.217940
       7A    -11.215990     8A    -11.214938     9A    -11.208802
      10A     -1.406469    11A     -1.105229    12A     -1.071072
      13A     -1.014291    14A     -0.942927    15A     -0.876165
      16A     -0.821721    17A     -0.788801    18A     -0.781121
      19A     -0.668641    20A     -0.662358    21A     -0.636788
      22A     -0.626528    23A     -0.603034    24A     -0.595564
      25A     -0.576399    26A     -0.552178    27A     -0.534940
      28A     -0.528269    29A     -0.510819    30A     -0.496403
      31A     -0.492009    32A     -0.480642    33A     -0.463168
      34A     -0.459913    35A     -0.442405    36A     -0.411968

  @DF-RHF Final Energy:  -387.25932914641595

   => Energetics <=

    Nuclear Repulsion Energy =            440.0318057673072758
    One-Electron Energy =               -1396.6451143623621647
    Two-Electron Energy =                 569.3539794486391656
    DFT Exchange-Correlation Energy =       0.0000000000000000
    Empirical Dispersion Energy =           0.0000000000000000
    PCM Polarization Energy =               0.0000000000000000
    EFP Energy =                            0.0000000000000000
    Total Energy =                       -387.2593291464156664
    Molecular point group: c1
  Basis Set: CC-PVTZ
  Basis Set:

  -Total Gradient:
     Atom            X                  Y                   Z
    ------   -----------------  -----------------  -----------------
       1       -0.000017974924     0.000010208988     0.000000700102
       2        0.000053221213    -0.000023206843     0.000002187435
       3       -0.000021611254     0.000007933417     0.000002201235
       4       -0.000020202211     0.000008184695     0.000000194024
       5       -0.000000535659    -0.000008856117     0.000028054054
       6        0.000001837025    -0.000005408786    -0.000001076649
       7        0.000002027977     0.000007899746    -0.000008030233
       8        0.000162895664    -0.000713594078     0.002131336707
       9       -0.000005989745    -0.000000142391    -0.000002364598
      10        0.000001232958     0.000002409317     0.000005162539
      11        0.000335762688     0.001487657646    -0.003016549515
      12        0.000004852717    -0.000005879012    -0.000008988752
      13       -0.000001246551    -0.000002250713     0.000000089948
      14       -0.002871294055    -0.002768898909     0.000953887013
      15        0.000002273940     0.000016118931    -0.000000554350
      16       -0.000006626350     0.000001405771     0.000003157276
      17       -0.000016420298    -0.000000786780    -0.000006093974
      18        0.002381608557     0.002003025629    -0.000080181639
      19        0.000002616155    -0.000016894640     0.000001219990
      20        0.000009268726    -0.000000847805    -0.000010385724
      21        0.000012160839    -0.000018512975    -0.000007329582
      22       -0.000008330040    -0.000003818204     0.000020536922
      23        0.000004836504     0.000004029604    -0.000012760691
      24       -0.000011910990     0.000018939085     0.000007175596
      25        0.000007547105     0.000001284425    -0.000001587136

  **** Optimization is complete! (in 8 steps) ****
    Final optimized geometry and variables:
    Molecular point group: c1

    Geometry (in Angstrom), charge = 0, multiplicity = 1:

    H           -2.771780250062     0.023579503598     2.165554774573
    C           -3.090145343256    -0.254519375307     1.151544691907
    C           -2.736979158029     0.741930687383     0.080881501098
    O           -3.673245593508    -1.266879931687     0.971467984749
    C           -1.255331864053     1.129249132821     0.097122526296
    H           -3.033039929254     0.336766187159    -0.878049582372
    H           -3.339959596194     1.627295704212     0.270207247328
    C           -0.319686148703    -0.011038798147    -0.297893867665
    H           -1.111655304518     1.964306873720    -0.579839949921
    H           -0.989422191607     1.493836223543     1.086462737249
    C            1.153622688329     0.387761486812    -0.273244854353
    H           -0.587022082448    -0.360867597705    -1.291995288579
    H           -0.467654756668    -0.857361851343     0.367375541987
    C            2.087761361673    -0.740207300444    -0.721485665576
    H            1.302878658673     1.264972460333    -0.894670338949
    H            1.413235599800     0.685922251383     0.740305807147
    C            3.532853184725    -0.589478890315    -0.241644289918
    H            2.094538910571    -0.789273912317    -1.807546843110
    H            1.701772346680    -1.689640611546    -0.364226315914
    C            4.250423936063     0.644079092997    -0.783673571280
    H            4.088309040928    -1.475044560840    -0.534845986146
    H            3.548770707614    -0.567226115956     0.844867551374
    H            4.252327297530     0.647838795370    -1.869113696046
    H            3.780804844361     1.562498661409    -0.451243781291
    H            5.282260832813     0.667236642056    -0.452511344515

  Mulliken Charges: (a.u.)
   Center  Symbol    Alpha    Beta     Spin     Total
       1     H     0.46422  0.46422  0.00000  0.07155
       2     C     2.90486  2.90486  0.00000  0.19027
       3     C     3.08915  3.08915  0.00000 -0.17830
       4     O     4.16626  4.16626  0.00000 -0.33252
       5     C     3.11650  3.11650  0.00000 -0.23299
       6     H     0.44290  0.44290  0.00000  0.11420
       7     H     0.44048  0.44048  0.00000  0.11904
       8     C     3.08989  3.08989  0.00000 -0.17977
       9     H     0.44299  0.44299  0.00000  0.11403
      10     H     0.44979  0.44979  0.00000  0.10043
      11     C     3.09561  3.09561  0.00000 -0.19122
      12     H     0.44955  0.44955  0.00000  0.10091
      13     H     0.44806  0.44806  0.00000  0.10388
      14     C     3.09548  3.09548  0.00000 -0.19095
      15     H     0.44984  0.44984  0.00000  0.10033
      16     H     0.45411  0.45411  0.00000  0.09178
      17     C     3.09035  3.09035  0.00000 -0.18070
      18     H     0.45258  0.45258  0.00000  0.09484
      19     H     0.44735  0.44735  0.00000  0.10529
      20     C     3.15238  3.15238  0.00000 -0.30476
      21     H     0.44820  0.44820  0.00000  0.10361
      22     H     0.45501  0.45501  0.00000  0.08998
      23     H     0.45475  0.45475  0.00000  0.09050
      24     H     0.45380  0.45380  0.00000  0.09240
      25     H     0.44591  0.44591  0.00000  0.10818

   Total alpha = 36.00000, Total beta = 36.00000, Total charge = -0.00000

*** Psi4 exiting successfully. Buy a developer a beer!
