  ==> Input File <==

--------------------------------------------------------------------------
set {
	reference rhf
	basis 6-31G*
}

set_num_threads( 4 )
memory 2 gb

molecule MOL {
0 1

H	 3.276176	 0.174363	 -0.109463
N	 2.434251	 -0.367735	 -0.081097
C	 1.267428	 0.496480	 0.024474
H	 2.501951	 -0.965776	 0.720575
C	 -0.016086	 -0.325158	 -0.029487
H	 1.288818	 1.183521	 -0.816092
H	 1.267576	 1.109062	 0.929528
C	 -1.282277	 0.529072	 0.046735
H	 -0.012495	 -0.908639	 -0.945788
H	 -0.015903	 -1.041248	 0.791956
C	 -1.223199	 1.582121	 1.152764
H	 -2.142928	 -0.116189	 0.210762
H	 -1.447816	 1.020994	 -0.909595
H	 -1.093358	 1.119539	 2.126868
H	 -2.134527	 2.171179	 1.184610
H	 -0.392718	 2.265440	 0.999146

	symmetry c1
}
set optking {
	frozen_dihedral = ("
		12 8 5 9
	")
}

ee = optimize('scf')
oeprop('DIPOLE', 'QUADRUPOLE', 'MULLIKEN_CHARGES')
f=open( 'psi4out.xyz', 'w' )
f.write( "16  " )
f.write( str(ee) + "\n" )
f.write( MOL.save_string_xyz() )
f.close()
--------------------------------------------------------------------------

    Molecular point group: c1
  Charge       = 0
  Multiplicity = 1
  Basis Set: 6-31G*
  Basis Set:
  @DF-RHF Final Energy:  -212.31196291814530
    Total Energy =                       -212.3119629181452410
    Molecular point group: c1
  Basis Set: 6-31G*
  Basis Set:
  Basis Set: 6-31G*
  Basis Set:
  @DF-RHF Final Energy:  -212.31277641710952
    Total Energy =                       -212.3127764171094896
  Basis Set: 6-31G*
  Basis Set:
  Basis Set: 6-31G*
  Basis Set:
  @DF-RHF Final Energy:  -212.31393070374915
    Total Energy =                       -212.3139307037491221
  Basis Set: 6-31G*
  Basis Set:
  Basis Set: 6-31G*
  Basis Set:
  @DF-RHF Final Energy:  -212.31403041337788
    Total Energy =                       -212.3140304133778500
  Basis Set: 6-31G*
  Basis Set:
  Basis Set: 6-31G*
  Basis Set:
  @DF-RHF Final Energy:  -212.31403787786311
    Total Energy =                       -212.3140378778631430
  Basis Set: 6-31G*
  Basis Set:
  Basis Set: 6-31G*
  Basis Set:
  @DF-RHF Final Energy:  -212.31404295257212
    Total Energy =                       -212.3140429525720947
  Basis Set: 6-31G*
  Basis Set:
  Charge       = 0
  Multiplicity = 1
  Basis Set: 6-31G*
  Basis Set:

    Orbital Energies (a.u.)
    -----------------------

    Doubly Occupied:

       1A    -15.532265     2A    -11.239044     3A    -11.215630
       4A    -11.210025     5A    -11.208856     6A     -1.176318
       7A     -1.058095     8A     -0.954383     9A     -0.860346
      10A     -0.777568    11A     -0.654317    12A     -0.639934
      13A     -0.622082    14A     -0.568956    15A     -0.555949
      16A     -0.535278    17A     -0.505097    18A     -0.466413
      19A     -0.464300    20A     -0.458243    21A     -0.380417

  @DF-RHF Final Energy:  -212.31404323709592

   => Energetics <=

    Nuclear Repulsion Energy =            189.0055423297858965
    One-Electron Energy =                -660.4721339371142221
    Two-Electron Energy =                 259.1525483702324095
    DFT Exchange-Correlation Energy =       0.0000000000000000
    Empirical Dispersion Energy =           0.0000000000000000
    PCM Polarization Energy =               0.0000000000000000
    EFP Energy =                            0.0000000000000000
    Total Energy =                       -212.3140432370959161
    Molecular point group: c1
  Basis Set: 6-31G*
  Basis Set:

  -Total Gradient:
     Atom            X                  Y                   Z
    ------   -----------------  -----------------  -----------------
       1        0.000001966165    -0.000000023890    -0.000006998204
       2       -0.000005151339    -0.000014091550    -0.000007638217
       3       -0.000001105322     0.000013588434     0.000042214452
       4        0.000000539288     0.000000675823     0.000000783938
       5       -0.002137250178    -0.003233437464     0.002918544946
       6       -0.000015275706    -0.000002478212    -0.000000319026
       7       -0.000001308026    -0.000001942076    -0.000000727322
       8        0.000032629351     0.000129281370    -0.004842604477
       9        0.001803300576     0.002700161524    -0.001731494288
      10        0.000003849905     0.000005181081    -0.000007037872
      11        0.000007178594     0.000006442433     0.000004557831
      12        0.000323270086     0.000401983596     0.003629665572
      13       -0.000013355085    -0.000005116381     0.000001222650
      14       -0.000007863773    -0.000001188382     0.000000957786
      15        0.000001116055     0.000003686774    -0.000004753901
      16        0.000007459408    -0.000002723081     0.000003626130

  **** Optimization is complete! (in 7 steps) ****
    Final optimized geometry and variables:
    Molecular point group: c1

    Geometry (in Angstrom), charge = 0, multiplicity = 1:

    H            3.026566594344    -0.284868184747    -0.429131358318
    N            2.167140418237    -0.799331603437    -0.405916468606
    C            1.038928796092     0.094780381033    -0.179220704443
    H            2.246777936961    -1.458835905697     0.345104324715
    C           -0.268519571437    -0.695475197485    -0.203761544753
    H            1.031291246316     0.825693698167    -0.983113929784
    H            1.125022432727     0.653014443318     0.753404096439
    C           -1.541300173972     0.161934608506    -0.188012279584
    H           -0.251247463760    -1.288921832000    -1.112482822614
    H           -0.282332862878    -1.387795450383     0.636721135856
    C           -1.590207181763     1.228511315161     0.910559355919
    H           -2.391432642083    -0.498840032482    -0.039641884159
    H           -1.672382300718     0.637326592341    -1.156730430652
    H           -1.425198068509     0.790119466591     1.891431319260
    H           -2.561184802927     1.713890953181     0.927052689761
    H           -0.843697168959     2.001978394045     0.764192230240

  Mulliken Charges: (a.u.)
   Center  Symbol    Alpha    Beta     Spin     Total
       1     H     0.33266  0.33266  0.00000  0.33468
       2     N     3.92172  3.92172  0.00000 -0.84344
       3     C     3.06357  3.06357  0.00000 -0.12713
       4     H     0.33562  0.33562  0.00000  0.32877
       5     C     3.15379  3.15379  0.00000 -0.30757
       6     H     0.42162  0.42162  0.00000  0.15676
       7     H     0.43152  0.43152  0.00000  0.13696
       8     C     3.15508  3.15508  0.00000 -0.31017
       9     H     0.41031  0.41031  0.00000  0.17938
      10     H     0.42758  0.42758  0.00000  0.14483
      11     C     3.24321  3.24321  0.00000 -0.48642
      12     H     0.42017  0.42017  0.00000  0.15965
      13     H     0.42106  0.42106  0.00000  0.15788
      14     H     0.42265  0.42265  0.00000  0.15469
      15     H     0.41896  0.41896  0.00000  0.16207
      16     H     0.42047  0.42047  0.00000  0.15906

   Total alpha = 21.00000, Total beta = 21.00000, Total charge = -0.00000
