                              Psi4 1.0.54 Driver

  ==> Input File <==

--------------------------------------------------------------------------
set {
	reference rhf
	basis cc-pvtz
}

set_num_threads( 4 )
memory 2 gb

molecule MOL {
0 1

H	 -2.427845	 2.335837	 0.927888
O	 -1.747024	 1.743134	 0.668310
C	 -2.302264	 0.528872	 0.237390
C	 -1.175688	 -0.398187	 -0.171891
H	 -2.886117	 0.073153	 1.034391
H	 -2.970809	 0.693693	 -0.605053
C	 0.196029	 0.106276	 0.266738
H	 -1.201873	 -0.515469	 -1.250677
H	 -1.365975	 -1.378728	 0.252664
C	 1.330220	 -0.826136	 -0.155230
H	 0.359542	 1.097229	 -0.145561
H	 0.212134	 0.218135	 1.348778
C	 2.719700	 -0.407669	 0.328325
H	 1.339388	 -0.911200	 -1.239363
H	 1.119001	 -1.821953	 0.224128
C	 3.241564	 0.893452	 -0.276737
H	 3.418299	 -1.204729	 0.093035
H	 2.711776	 -0.323368	 1.411960
H	 3.254204	 0.841071	 -1.360784
H	 2.634460	 1.745075	 0.005842
H	 4.254264	 1.092401	 0.054971

	symmetry c1
}
set optking {
	frozen_dihedral = ("
		2 3 4 8
	")
}

ee,wfn = optimize('scf', return_wfn=True)
oeprop( wfn, 'DIPOLE', 'QUADRUPOLE', 'MULLIKEN_CHARGES')
f=open( 'psi4out.xyz', 'w' )
f.write( "21  " )
f.write( str(ee) + "\n" )
f.write( MOL.save_string_xyz() )
f.close()
--------------------------------------------------------------------------

    Molecular point group: c1
  Charge       = 0
  Multiplicity = 1
  Basis Set: CC-PVTZ
  Basis Set:
  @DF-RHF Final Energy:  -310.32314889051656
    Total Energy =                       -310.3231488905170750
    Molecular point group: c1
  Basis Set: CC-PVTZ
  Basis Set:
  Basis Set: CC-PVTZ
  Basis Set:
  @DF-RHF Final Energy:  -310.32360842684085
    Total Energy =                       -310.3236084268411332
  Basis Set: CC-PVTZ
  Basis Set:
  Basis Set: CC-PVTZ
  Basis Set:
  @DF-RHF Final Energy:  -310.32513609505827
    Total Energy =                       -310.3251360950584967
  Basis Set: CC-PVTZ
  Basis Set:
  Basis Set: CC-PVTZ
  Basis Set:
  @DF-RHF Final Energy:  -310.32521431370463
    Total Energy =                       -310.3252143137049188
  Basis Set: CC-PVTZ
  Basis Set:
  Basis Set: CC-PVTZ
  Basis Set:
  @DF-RHF Final Energy:  -310.32521761473970
    Total Energy =                       -310.3252176147395858
  Basis Set: CC-PVTZ
  Basis Set:
  Basis Set: CC-PVTZ
  Basis Set:
  @DF-RHF Final Energy:  -310.32521913114329
    Total Energy =                       -310.3252191311431716
  Basis Set: CC-PVTZ
  Basis Set:
  Charge       = 0
  Multiplicity = 1
  Basis Set: CC-PVTZ
  Basis Set:

    Orbital Energies (a.u.)
    -----------------------

    Doubly Occupied:

       1A    -20.545844     2A    -11.266715     3A    -11.210953
       4A    -11.207565     5A    -11.205148     6A    -11.201771
       7A    -11.200157     8A     -1.363734     9A     -1.079494
      10A     -1.026983    11A     -0.952269    12A     -0.876364
      13A     -0.800547    14A     -0.772696    15A     -0.698651
      16A     -0.655843    17A     -0.618576    18A     -0.603515
      19A     -0.586108    20A     -0.563073    21A     -0.534686
      22A     -0.521470    23A     -0.496216    24A     -0.493639
      25A     -0.483167    26A     -0.457532    27A     -0.448508
      28A     -0.437232    29A     -0.425397

  @DF-RHF Final Energy:  -310.32522009393034

   => Energetics <=

    Nuclear Repulsion Energy =            318.4404832032161607
    One-Electron Energy =               -1052.0637065034541138
    Two-Electron Energy =                 423.2980032063072713
    DFT Exchange-Correlation Energy =       0.0000000000000000
    Empirical Dispersion Energy =           0.0000000000000000
    PCM Polarization Energy =               0.0000000000000000
    EFP Energy =                            0.0000000000000000
    Total Energy =                       -310.3252200939306249
    Molecular point group: c1
  Basis Set: CC-PVTZ
  Basis Set:

  -Total Gradient:
     Atom            X                  Y                   Z
    ------   -----------------  -----------------  -----------------
       1        0.000007965845    -0.000028050750    -0.000005714804
       2        0.000297852441    -0.001011244418     0.003170142553
       3       -0.000920811732     0.000598882575    -0.004064095066
       4        0.003106252151     0.003943468207     0.000311334415
       5        0.000007306047    -0.000035242079    -0.000015127682
       6        0.000004449366    -0.000033899977    -0.000012057574
       7       -0.000012163252    -0.000007629893     0.000045292192
       8       -0.002492889197    -0.003453913768     0.000582050679
       9       -0.000014471532     0.000005893469     0.000011302148
      10        0.000021175772     0.000025884522    -0.000036473443
      11       -0.000011927347    -0.000011946025     0.000004602272
      12       -0.000000189343     0.000004457500     0.000005496301
      13       -0.000018748435     0.000016261231     0.000016520443
      14       -0.000000158835    -0.000006930925    -0.000012517728
      15        0.000003315023     0.000006327750     0.000003838852
      16        0.000011188606    -0.000001200337    -0.000009386443
      17        0.000002116925    -0.000008673210    -0.000000221006
      18       -0.000003875449     0.000001396639     0.000012263504
      19       -0.000001798027     0.000004191778    -0.000008340831
      20        0.000010245785    -0.000002840737     0.000005604601
      21        0.000005165186    -0.000005191547    -0.000004513381

  **** Optimization is complete! (in 7 steps) ****
    Final optimized geometry and variables:
    Molecular point group: c1

    Geometry (in Angstrom), charge = 0, multiplicity = 1:

    H           -2.881401609277     2.095118293256     0.696117769099
    O           -2.147876652331     1.549249998780     0.481978164085
    C           -2.603099556862     0.277625978400     0.094432635448
    C           -1.424247178558    -0.630324123493    -0.296986371969
    H           -3.146997611225    -0.173639582172     0.919808380485
    H           -3.294241587471     0.362312718359    -0.738652431942
    C           -0.042951941609    -0.144867615947     0.135462676862
    H           -1.439772817615    -0.801966383101    -1.368644472561
    H           -1.601717038451    -1.607583976174     0.142671310084
    C            1.054474278990    -1.135296437077    -0.249510568366
    H            0.150066334321     0.822653693212    -0.306443322032
    H           -0.032195545174     0.005884080586     1.210537505556
    C            2.458166079234    -0.743954065016     0.216206428267
    H            1.061442359930    -1.265428134311    -1.329770502083
    H            0.813205454448    -2.108594142123     0.169980426646
    C            3.023223998276     0.510381852135    -0.445995398055
    H            3.129724483207    -1.574019210449     0.018005044401
    H            2.452839732488    -0.610150287566     1.294781266998
    H            3.033955034518     0.408475833944    -1.526641995073
    H            2.444070387380     1.392681646152    -0.202999280013
    H            4.042315417240     0.689848487824    -0.122313683962

  Mulliken Charges: (a.u.)
   Center  Symbol    Alpha    Beta     Spin     Total
       1     H     0.39977  0.39977  0.00000  0.20045
       2     O     4.18973  4.18973  0.00000 -0.37947
       3     C     2.96711  2.96711  0.00000  0.06577
       4     C     3.10597  3.10597  0.00000 -0.21194
       5     H     0.47272  0.47272  0.00000  0.05456
       6     H     0.46996  0.46996  0.00000  0.06007
       7     C     3.08469  3.08469  0.00000 -0.16939
       8     H     0.45317  0.45317  0.00000  0.09367
       9     H     0.45510  0.45510  0.00000  0.08979
      10     C     3.09587  3.09587  0.00000 -0.19175
      11     H     0.44376  0.44376  0.00000  0.11248
      12     H     0.45163  0.45163  0.00000  0.09673
      13     C     3.08941  3.08941  0.00000 -0.17882
      14     H     0.45599  0.45599  0.00000  0.08803
      15     H     0.45187  0.45187  0.00000  0.09626
      16     C     3.15250  3.15250  0.00000 -0.30500
      17     H     0.44998  0.44998  0.00000  0.10005
      18     H     0.45527  0.45527  0.00000  0.08945
      19     H     0.45603  0.45603  0.00000  0.08795
      20     H     0.45163  0.45163  0.00000  0.09675
      21     H     0.44782  0.44782  0.00000  0.10435

   Total alpha = 29.00000, Total beta = 29.00000, Total charge =  0.00000

*** Psi4 exiting successfully. Buy a developer a beer!
