  ==> Input File <==

--------------------------------------------------------------------------
set {
	reference rhf
	basis 6-31G*
}

set_num_threads( 4 )
memory 2 gb

molecule MOL {
0 1

H	 -1.947394	 -0.152963	 -2.785722
N	 -1.008665	 -0.300612	 -2.469554
C	 -0.975566	 -1.272973	 -1.391351
H	 -0.663710	 0.578912	 -2.137057
C	 0.445952	 -1.453888	 -0.901766
H	 -1.601252	 -1.004702	 -0.538973
H	 -1.333736	 -2.224823	 -1.771453
O	 0.874168	 -0.245412	 -0.342030
H	 0.489420	 -2.247826	 -0.156507
H	 1.087226	 -1.731817	 -1.735287
C	 2.202317	 -0.244239	 0.074611
H	 2.711377	 -1.041390	 -0.449894
H	 2.692099	 0.699270	 -0.159667
H	 2.283185	 -0.418429	 1.145558

	symmetry c1
}
set optking {
	frozen_dihedral = ("
		5 8 11 13
	")
}

ee = optimize('scf')
oeprop('DIPOLE', 'QUADRUPOLE', 'MULLIKEN_CHARGES')
f=open( 'psi4out.xyz', 'w' )
f.write( "14  " )
f.write( str(ee) + "\n" )
f.write( MOL.save_string_xyz() )
f.close()
--------------------------------------------------------------------------

    Molecular point group: c1
  Charge       = 0
  Multiplicity = 1
  Basis Set: 6-31G*
  Basis Set:
  @DF-RHF Final Energy:  -248.12127706453168
    Total Energy =                       -248.1212770645317960
    Molecular point group: c1
  Basis Set: 6-31G*
  Basis Set:
  Basis Set: 6-31G*
  Basis Set:
  @DF-RHF Final Energy:  -248.12211746974262
    Total Energy =                       -248.1221174697427614
  Basis Set: 6-31G*
  Basis Set:
  Basis Set: 6-31G*
  Basis Set:
  @DF-RHF Final Energy:  -248.12238069147986
    Total Energy =                       -248.1223806914796342
  Basis Set: 6-31G*
  Basis Set:
  Basis Set: 6-31G*
  Basis Set:
  @DF-RHF Final Energy:  -248.12238211371570
    Total Energy =                       -248.1223821137157870
  Basis Set: 6-31G*
  Basis Set:
  Charge       = 0
  Multiplicity = 1
  Basis Set: 6-31G*
  Basis Set:

    Orbital Energies (a.u.)
    -----------------------

    Doubly Occupied:

       1A    -20.554682     2A    -15.528011     3A    -11.266063
       4A    -11.265881     5A    -11.240334     6A     -1.377608
       7A     -1.173140     8A     -0.999006     9A     -0.907438
      10A     -0.814860    11A     -0.682409    12A     -0.672245
      13A     -0.643381    14A     -0.610311    15A     -0.604955
      16A     -0.539110    17A     -0.534343    18A     -0.496054
      19A     -0.471412    20A     -0.413888    21A     -0.379715

  @DF-RHF Final Energy:  -248.12238229977794

   => Energetics <=

    Nuclear Repulsion Energy =            194.4752089556464512
    One-Electron Energy =                -722.8454902197361207
    Two-Electron Energy =                 280.2478989643117302
    DFT Exchange-Correlation Energy =       0.0000000000000000
    Empirical Dispersion Energy =           0.0000000000000000
    PCM Polarization Energy =               0.0000000000000000
    EFP Energy =                            0.0000000000000000
    Total Energy =                       -248.1223822997779962
    Molecular point group: c1
  Basis Set: 6-31G*
  Basis Set:

  -Total Gradient:
     Atom            X                  Y                   Z
    ------   -----------------  -----------------  -----------------
       1        0.000001224098    -0.000001173044     0.000001383868
       2        0.000002473060     0.000000603004     0.000000763490
       3       -0.000006983332    -0.000012292869    -0.000008207760
       4       -0.000000768337    -0.000002484955     0.000001181267
       5        0.000581842911     0.000676490065    -0.001955418883
       6        0.000006339730    -0.000001028810    -0.000000942385
       7       -0.000008571218    -0.000001836501    -0.000002953482
       8       -0.000662319698    -0.001202754159     0.002231380575
       9        0.000001433914     0.000004725943    -0.000000975165
      10       -0.000002125238     0.000000607319     0.000003214307
      11       -0.000678994879     0.001504841971     0.002061927224
      12        0.000006485151    -0.000000781685     0.000000503118
      13        0.000754275299    -0.000967355948    -0.002328480319
      14        0.000005688535     0.000002439668    -0.000003375855

  **** Optimization is complete! (in 5 steps) ****
    Final optimized geometry and variables:
    Molecular point group: c1

    Geometry (in Angstrom), charge = 0, multiplicity = 1:

    H           -2.256733276056     0.560726216234    -1.775211177949
    N           -1.319849884039     0.398642221745    -1.460743401482
    C           -1.298785223165    -0.580833555608    -0.388662434645
    H           -0.963230732580     1.271205329905    -1.122423632316
    C            0.120269541136    -0.783356537709     0.099612828045
    H           -1.921344876944    -0.310357787177     0.465234601138
    H           -1.668478364109    -1.525947878329    -0.774613177920
    O            0.563336411084     0.421013262342     0.658597669754
    H            0.149733141530    -1.581247517505     0.841164535824
    H            0.756164080015    -1.066963963917    -0.735040439922
    C            1.894980908915     0.444884539595     1.077851039579
    H            2.483302253872    -0.322918745607     0.583067757746
    H            2.321287760420     1.405943700015     0.818068316576
    H            1.966370242892     0.294913726700     2.151287209701

  Mulliken Charges: (a.u.)
   Center  Symbol    Alpha    Beta     Spin     Total
       1     H     0.33293  0.33293  0.00000  0.33414
       2     N     3.92534  3.92534  0.00000 -0.85067
       3     C     3.06904  3.06904  0.00000 -0.13808
       4     H     0.32363  0.32363  0.00000  0.35275
       5     C     2.98968  2.98968  0.00000  0.02064
       6     H     0.42664  0.42664  0.00000  0.14672
       7     H     0.42063  0.42063  0.00000  0.15874
       8     O     4.31360  4.31360  0.00000 -0.62719
       9     H     0.43131  0.43131  0.00000  0.13738
      10     H     0.42189  0.42189  0.00000  0.15622
      11     C     3.07573  3.07573  0.00000 -0.15147
      12     H     0.42890  0.42890  0.00000  0.14221
      13     H     0.41628  0.41628  0.00000  0.16743
      14     H     0.42440  0.42440  0.00000  0.15120

   Total alpha = 21.00000, Total beta = 21.00000, Total charge =  0.00000
