                              Psi4 1.0.54 Driver

  ==> Input File <==

--------------------------------------------------------------------------
set {
	reference rhf
	basis cc-pvtz
}

set_num_threads( 4 )
memory 2 gb

molecule MOL {
0 1

H	 -2.160546	 -1.047616	 -1.736624
C	 -1.506182	 -0.631882	 -0.999802
C	 -1.951988	 0.360643	 -0.069584
C	 -0.233451	 -1.027654	 -0.918850
H	 -2.969935	 0.700402	 -0.108347
C	 -1.113300	 0.863808	 0.841462
H	 0.173802	 -1.766474	 -1.580236
N	 0.640204	 -0.530428	 -0.000115
H	 -1.411748	 1.606619	 1.552181
C	 0.273640	 0.429839	 0.926895
C	 2.006991	 -1.033007	 -0.000020
O	 1.056766	 0.857688	 1.730576
H	 2.182444	 -1.636914	 -0.880881
H	 2.678769	 -0.195442	 -0.002236
H	 2.183828	 -1.633244	 0.883082

	symmetry c1
}
set optking {
	frozen_dihedral = ("
		10 8 11 13
	")
}

ee,wfn = optimize('scf', return_wfn=True)
oeprop( wfn, 'DIPOLE', 'QUADRUPOLE', 'MULLIKEN_CHARGES')
f=open( 'psi4out.xyz', 'w' )
f.write( "15  " )
f.write( str(ee) + "\n" )
f.write( MOL.save_string_xyz() )
f.close()
--------------------------------------------------------------------------

    Molecular point group: c1
  Charge       = 0
  Multiplicity = 1
  Basis Set: CC-PVTZ
  Basis Set:
  @DF-RHF Final Energy:  -360.72280301431994
    Total Energy =                       -360.7228030143198794
    Molecular point group: c1
  Basis Set: CC-PVTZ
  Basis Set:
  Basis Set: CC-PVTZ
  Basis Set:
  @DF-RHF Final Energy:  -360.72347349327447
    Total Energy =                       -360.7234734932745823
  Basis Set: CC-PVTZ
  Basis Set:
  Basis Set: CC-PVTZ
  Basis Set:
  @DF-RHF Final Energy:  -360.72355634914771
    Total Energy =                       -360.7235563491476569
  Basis Set: CC-PVTZ
  Basis Set:
  Charge       = 0
  Multiplicity = 1
  Basis Set: CC-PVTZ
  Basis Set:

    Orbital Energies (a.u.)
    -----------------------

    Doubly Occupied:

       1A    -20.501995     2A    -15.617813     3A    -11.337582
       4A    -11.294622     5A    -11.266003     6A    -11.258156
       7A    -11.229473     8A    -11.227784     9A     -1.391376
      10A     -1.285888    11A     -1.118830    12A     -1.029354
      13A     -0.972632    14A     -0.876605    15A     -0.838975
      16A     -0.719675    17A     -0.701980    18A     -0.664046
      19A     -0.653457    20A     -0.626328    21A     -0.611936
      22A     -0.575141    23A     -0.552330    24A     -0.550949
      25A     -0.531397    26A     -0.484865    27A     -0.420478
      28A     -0.410723    29A     -0.310052

  @DF-RHF Final Energy:  -360.72355678407763

   => Energetics <=

    Nuclear Repulsion Energy =            358.8896103126569983
    One-Electron Energy =               -1201.1054461684057060
    Two-Electron Energy =                 481.4922790716710210
    DFT Exchange-Correlation Energy =       0.0000000000000000
    Empirical Dispersion Energy =           0.0000000000000000
    PCM Polarization Energy =               0.0000000000000000
    EFP Energy =                            0.0000000000000000
    Total Energy =                       -360.7235567840777435
    Molecular point group: c1
  Basis Set: CC-PVTZ
  Basis Set:

  -Total Gradient:
     Atom            X                  Y                   Z
    ------   -----------------  -----------------  -----------------
       1       -0.000016423576     0.000002203134    -0.000009370537
       2        0.000243464862    -0.000066354410    -0.000014959487
       3       -0.000045502512     0.000126098471     0.000184612957
       4       -0.000338073998    -0.000104662995    -0.000121588666
       5        0.000012277307     0.000009382342    -0.000046614220
       6       -0.000316334164    -0.000223151169     0.000132131919
       7        0.000035994904     0.000017518825     0.000027287618
       8       -0.000090264836    -0.000356695927     0.000808214011
       9        0.000022208159     0.000003770990     0.000009364945
      10        0.000581897814     0.000826782366    -0.001196470922
      11       -0.000180404500    -0.000444270378     0.000189488123
      12       -0.000107796688    -0.000273752516     0.000310471895
      13        0.000189518584     0.000458444534    -0.000295649551
      14       -0.000000516529     0.000003118406     0.000018036377
      15        0.000009955179     0.000021568328     0.000005045534

  **** Optimization is complete! (in 4 steps) ****
    Final optimized geometry and variables:
    Molecular point group: c1

    Geometry (in Angstrom), charge = 0, multiplicity = 1:

    H           -2.083212003155    -1.021915704358    -1.967895708043
    C           -1.446428436356    -0.584205094070    -1.228409916915
    C           -1.923570004159     0.410762895348    -0.318062084588
    C           -0.165687237092    -0.954579242346    -1.130033212363
    H           -2.947618029596     0.728887576045    -0.375771450886
    C           -1.108092456776     0.944201351782     0.598326489855
    H            0.261404793924    -1.692326305004    -1.778500129111
    N            0.682463226275    -0.424894103051    -0.208379564873
    H           -1.431012209271     1.689436396631     1.295831468777
    C            0.281945396773     0.532594797964     0.704859459563
    C            2.067489936022    -0.863766966168    -0.136804504821
    O            1.057652747086     0.960513287030     1.516045475961
    H            2.290234563645    -1.468690913280    -1.002334354387
    H            2.720973119267    -0.006466259802    -0.118969175786
    H            2.239476718300    -1.437415604608     0.762981153816

  Mulliken Charges: (a.u.)
   Center  Symbol    Alpha    Beta     Spin     Total
       1     H     0.41402  0.41402  0.00000  0.17197
       2     C     3.10685  3.10685  0.00000 -0.21370
       3     C     3.05935  3.05935  0.00000 -0.11870
       4     C     3.03878  3.03878  0.00000 -0.07756
       5     H     0.41843  0.41843  0.00000  0.16315
       6     C     3.11840  3.11840  0.00000 -0.23680
       7     H     0.41902  0.41902  0.00000  0.16197
       8     N     3.50853  3.50853  0.00000 -0.01707
       9     H     0.40935  0.40935  0.00000  0.18129
      10     C     2.84566  2.84566  0.00000  0.30867
      11     C     3.09209  3.09209  0.00000 -0.18417
      12     O     4.23562  4.23562  0.00000 -0.47125
      13     H     0.45541  0.45541  0.00000  0.08919
      14     H     0.43586  0.43586  0.00000  0.12828
      15     H     0.44263  0.44263  0.00000  0.11474

   Total alpha = 29.00000, Total beta = 29.00000, Total charge =  0.00000

*** Psi4 exiting successfully. Buy a developer a beer!
