                              Psi4 1.0.54 Driver

  ==> Input File <==

--------------------------------------------------------------------------
set {
	reference rhf
	basis cc-pvtz
}

set_num_threads( 4 )
memory 2 gb

molecule MOL {
0 1

H	 2.440790	 2.784524	 -1.128671
O	 1.503684	 2.739661	 -1.185646
C	 1.029541	 1.626696	 -0.592381
C	 1.862589	 0.697113	 0.011430
C	 -0.335786	 1.427039	 -0.598764
H	 2.925947	 0.854225	 0.015481
C	 1.329439	 -0.428275	 0.606583
H	 -0.981815	 2.143128	 -1.064280
C	 -0.861704	 0.296439	 0.000000
H	 1.983677	 -1.140605	 1.070677
C	 -0.035294	 -0.635443	 0.604538
C	 -2.330689	 0.069587	 0.000000
H	 -0.452774	 -1.509603	 1.066536
O	 -2.848621	 -0.993976	 0.000000
H	 -2.934306	 0.982410	 0.000000

	symmetry c1
}
set optking {
	frozen_dihedral = ("
		11 9 12 14
	")
}

ee,wfn = optimize('scf', return_wfn=True)
oeprop( wfn, 'DIPOLE', 'QUADRUPOLE', 'MULLIKEN_CHARGES')
f=open( 'psi4out.xyz', 'w' )
f.write( "15  " )
f.write( str(ee) + "\n" )
f.write( MOL.save_string_xyz() )
f.close()
--------------------------------------------------------------------------

    Molecular point group: c1
  Charge       = 0
  Multiplicity = 1
  Basis Set: CC-PVTZ
  Basis Set:
  @DF-RHF Final Energy:  -418.43608985667674
    Total Energy =                       -418.4360898566762899
    Molecular point group: c1
  Basis Set: CC-PVTZ
  Basis Set:
  Basis Set: CC-PVTZ
  Basis Set:
  @DF-RHF Final Energy:  -418.43506218086600
    Total Energy =                       -418.4350621808662254
  Basis Set: CC-PVTZ
  Basis Set:
  Basis Set: CC-PVTZ
  Basis Set:
  @DF-RHF Final Energy:  -418.43627380222279
    Total Energy =                       -418.4362738022231269
  Basis Set: CC-PVTZ
  Basis Set:
  Basis Set: CC-PVTZ
  Basis Set:
  @DF-RHF Final Energy:  -418.43660396756439
    Total Energy =                       -418.4366039675644515
  Basis Set: CC-PVTZ
  Basis Set:
  Basis Set: CC-PVTZ
  Basis Set:
  @DF-RHF Final Energy:  -418.43660968891749
    Total Energy =                       -418.4366096889172013
  Basis Set: CC-PVTZ
  Basis Set:
  Charge       = 0
  Multiplicity = 1
  Basis Set: CC-PVTZ
  Basis Set:

    Orbital Energies (a.u.)
    -----------------------

    Doubly Occupied:

       1A    -20.598313     2A    -20.556770     3A    -11.328857
       4A    -11.313339     5A    -11.252250     6A    -11.248953
       7A    -11.244980     8A    -11.243349     9A    -11.236508
      10A     -1.429759    11A     -1.412155    12A     -1.173812
      13A     -1.053767    14A     -1.028205    15A     -0.903959
      16A     -0.849086    17A     -0.818283    18A     -0.742114
      19A     -0.704784    20A     -0.678790    21A     -0.666937
      22A     -0.634764    23A     -0.615001    24A     -0.610412
      25A     -0.584632    26A     -0.551230    27A     -0.541732
      28A     -0.518884    29A     -0.493131    30A     -0.427175
      31A     -0.360006    32A     -0.329279

  @DF-RHF Final Energy:  -418.43661138370521

   => Energetics <=

    Nuclear Repulsion Energy =            403.1631360935343764
    One-Electron Energy =               -1368.8970648723104659
    Two-Electron Energy =                 547.2973173950708770
    DFT Exchange-Correlation Energy =       0.0000000000000000
    Empirical Dispersion Energy =           0.0000000000000000
    PCM Polarization Energy =               0.0000000000000000
    EFP Energy =                            0.0000000000000000
    Total Energy =                       -418.4366113837052126
    Molecular point group: c1
  Basis Set: CC-PVTZ
  Basis Set:

  -Total Gradient:
     Atom            X                  Y                   Z
    ------   -----------------  -----------------  -----------------
       1       -0.000003949460    -0.000005170332     0.000000349550
       2       -0.000001122033    -0.000015530056     0.000006068566
       3       -0.000100125664     0.000077021743    -0.000024619185
       4        0.000013581505    -0.000097246799     0.000072911653
       5        0.000023284116    -0.000002528818    -0.000034102759
       6       -0.000002673755    -0.000005910046     0.000007515307
       7        0.000060080062     0.000061807925    -0.000087669607
       8        0.000013966166     0.000004271804     0.000011651095
       9        0.000488825255    -0.003417532287    -0.007207374627
      10       -0.000003510527    -0.000005946989     0.000011827497
      11       -0.000334601214     0.002250776116     0.003399450843
      12       -0.000222503029     0.001275813002     0.008820690009
      13       -0.000006348519    -0.000005144254     0.000016054919
      14        0.000078673874    -0.000124130110    -0.004990908667
      15       -0.000003576774     0.000009449108    -0.000001844595

  **** Optimization is complete! (in 6 steps) ****
    Final optimized geometry and variables:
    Molecular point group: c1

    Geometry (in Angstrom), charge = 0, multiplicity = 1:

    H            2.517166064753     2.219083717054    -1.011144231037
    O            1.580264951671     2.163575397750    -1.066280456268
    C            1.121214392785     1.054907936421    -0.452948251112
    C            1.953313951128     0.147812076739     0.173044193331
    C           -0.247338306746     0.844100433437    -0.452968637090
    H            3.015179400441     0.314005930185     0.186970770043
    C            1.418629639489    -0.971198201344     0.790250909126
    H           -0.885184997693     1.567977086814    -0.923340764934
    C           -0.767097099033    -0.289723244807     0.137211683518
    H            2.075077667426    -1.661747237447     1.283694707619
    C            0.061658918207    -1.200244355323     0.776903840469
    C           -2.242960468892    -0.485008426001     0.139253648487
    H           -0.361240699389    -2.067032181484     1.242954672017
    O           -2.776057432444    -1.539679512163     0.180247493821
    H           -2.831072898808     0.434483625457     0.057372093965

  Mulliken Charges: (a.u.)
   Center  Symbol    Alpha    Beta     Spin     Total
       1     H     0.38626  0.38626  0.00000  0.22748
       2     O     4.17199  4.17199  0.00000 -0.34399
       3     C     2.84156  2.84156  0.00000  0.31687
       4     C     3.13165  3.13165  0.00000 -0.26329
       5     C     3.13029  3.13029  0.00000 -0.26058
       6     H     0.43161  0.43161  0.00000  0.13678
       7     C     3.05900  3.05900  0.00000 -0.11799
       8     H     0.41893  0.41893  0.00000  0.16215
       9     C     2.95049  2.95049  0.00000  0.09901
      10     H     0.41885  0.41885  0.00000  0.16231
      11     C     3.10775  3.10775  0.00000 -0.21550
      12     C     2.91574  2.91574  0.00000  0.16853
      13     H     0.41176  0.41176  0.00000  0.17647
      14     O     4.16670  4.16670  0.00000 -0.33340
      15     H     0.45743  0.45743  0.00000  0.08514

   Total alpha = 32.00000, Total beta = 32.00000, Total charge = -0.00000

*** Psi4 exiting successfully. Buy a developer a beer!
