                              Psi4 1.0.54 Driver

  ==> Input File <==

--------------------------------------------------------------------------
set {
	reference rhf
	basis cc-pvtz
}

set_num_threads( 4 )
memory 2 gb

molecule MOL {
0 1

H	 -2.698799	 -0.000846	 0.036018
C	 -1.694291	 -0.000483	 0.434279
O	 -0.828718	 -0.000608	 -0.655022
H	 -1.576855	 0.881100	 1.056504
H	 -1.576401	 -0.881658	 1.057001
C	 0.557892	 0.000078	 -0.420099
C	 0.972079	 -1.009998	 0.644075
C	 1.369255	 -0.144714	 -1.702665
H	 0.741218	 0.990979	 -0.023709
H	 0.351727	 -0.904583	 1.525613
H	 2.003180	 -0.839301	 0.931199
H	 0.896680	 -2.031814	 0.290819
H	 1.024406	 0.560816	 -2.448554
H	 2.414828	 0.057327	 -1.500849
H	 1.304302	 -1.143525	 -2.118235

	symmetry c1
}
set optking {
	frozen_dihedral = ("
		9 6 3 2
	")
}

ee,wfn = optimize('scf', return_wfn=True)
oeprop( wfn, 'DIPOLE', 'QUADRUPOLE', 'MULLIKEN_CHARGES')
f=open( 'psi4out.xyz', 'w' )
f.write( "15  " )
f.write( str(ee) + "\n" )
f.write( MOL.save_string_xyz() )
f.close()
--------------------------------------------------------------------------

    Molecular point group: c1
  Charge       = 0
  Multiplicity = 1
  Basis Set: CC-PVTZ
  Basis Set:
  @DF-RHF Final Energy:  -232.22293651044671
    Total Energy =                       -232.2229365104468570
    Molecular point group: c1
  Basis Set: CC-PVTZ
  Basis Set:
  Basis Set: CC-PVTZ
  Basis Set:
  @DF-RHF Final Energy:  -232.21148593314879
    Total Energy =                       -232.2114859331487651
  Basis Set: CC-PVTZ
  Basis Set:
  Basis Set: CC-PVTZ
  Basis Set:
  @DF-RHF Final Energy:  -232.22782964741799
    Total Energy =                       -232.2278296474179911
  Basis Set: CC-PVTZ
  Basis Set:
  Basis Set: CC-PVTZ
  Basis Set:
  @DF-RHF Final Energy:  -232.22854397574230
    Total Energy =                       -232.2285439757422409
  Basis Set: CC-PVTZ
  Basis Set:
  Basis Set: CC-PVTZ
  Basis Set:
  @DF-RHF Final Energy:  -232.22859185075981
    Total Energy =                       -232.2285918507596989
  Basis Set: CC-PVTZ
  Basis Set:
  Basis Set: CC-PVTZ
  Basis Set:
  @DF-RHF Final Energy:  -232.22860274889547
    Total Energy =                       -232.2286027488955256
  Basis Set: CC-PVTZ
  Basis Set:
  Basis Set: CC-PVTZ
  Basis Set:
  @DF-RHF Final Energy:  -232.22860557199073
    Total Energy =                       -232.2286055719907836
  Basis Set: CC-PVTZ
  Basis Set:
  Charge       = 0
  Multiplicity = 1
  Basis Set: CC-PVTZ
  Basis Set:

    Orbital Energies (a.u.)
    -----------------------

    Doubly Occupied:

       1A    -20.543810     2A    -11.273017     3A    -11.260047
       4A    -11.210245     5A    -11.203838     6A     -1.377209
       7A     -1.053928     8A     -0.947501     9A     -0.913732
      10A     -0.789768    11A     -0.677246    12A     -0.641377
      13A     -0.635271    14A     -0.593377    15A     -0.550326
      16A     -0.543453    17A     -0.526322    18A     -0.498459
      19A     -0.495851    20A     -0.452227    21A     -0.411148

  @DF-RHF Final Energy:  -232.22860560374650

   => Energetics <=

    Nuclear Repulsion Energy =            198.1324930824128785
    One-Electron Energy =                -707.5258968647531219
    Two-Electron Energy =                 277.1647981785938555
    DFT Exchange-Correlation Energy =       0.0000000000000000
    Empirical Dispersion Energy =           0.0000000000000000
    PCM Polarization Energy =               0.0000000000000000
    EFP Energy =                            0.0000000000000000
    Total Energy =                       -232.2286056037463595
    Molecular point group: c1
  Basis Set: CC-PVTZ
  Basis Set:

  -Total Gradient:
     Atom            X                  Y                   Z
    ------   -----------------  -----------------  -----------------
       1        0.000002942108     0.000000388164    -0.000001547841
       2        0.000349469043    -0.002896171073    -0.000340517792
       3       -0.000162871946     0.004646916718    -0.000152304288
       4        0.000001413910     0.000001461169     0.000001852193
       5       -0.000001377988     0.000002847321    -0.000000390862
       6       -0.001585717863    -0.003474190655     0.003192553064
       7        0.000004808276     0.000001761396     0.000012311583
       8        0.000010491074     0.000017626175    -0.000001104951
       9        0.001389386233     0.001696688554    -0.002714933992
      10       -0.000008659142    -0.000001831574     0.000011469635
      11        0.000004689060     0.000003311843     0.000002138847
      12       -0.000001601202    -0.000004833660    -0.000009435868
      13        0.000002328080     0.000000848550    -0.000009765771
      14        0.000001675436     0.000004169714    -0.000000867770
      15       -0.000006975081     0.000001007359     0.000010543812

  **** Optimization is complete! (in 8 steps) ****
    Final optimized geometry and variables:
    Molecular point group: c1

    Geometry (in Angstrom), charge = 0, multiplicity = 1:

    H           -2.747056762316     0.160891364364    -0.405461171295
    C           -1.893227376763    -0.005870495086     0.235789551942
    O           -0.754098345502     0.222520097786    -0.526389961587
    H           -1.958438835817     0.679045330195     1.079396555869
    H           -1.941140178163    -1.022179646800     0.612154704122
    C            0.475780327428     0.293271793652     0.146287677572
    C            0.741546484109    -0.894510447938     1.062085842366
    C            1.537589486260     0.413000295621    -0.933815982239
    H            0.494714186770     1.213404471793     0.731744306449
    H            0.047796713522    -0.939184558859     1.891567576290
    H            1.739858143062    -0.817685911796     1.476005182488
    H            0.673876861651    -1.824207669642     0.507572354713
    H            1.314666705655     1.248601118945    -1.584426274545
    H            2.516133900960     0.568330143158    -0.494555184155
    H            1.567694882077    -0.487349204474    -1.536422733343

  Mulliken Charges: (a.u.)
   Center  Symbol    Alpha    Beta     Spin     Total
       1     H     0.44337  0.44337  0.00000  0.11326
       2     C     3.04051  3.04051  0.00000 -0.08102
       3     O     4.18081  4.18081  0.00000 -0.36162
       4     H     0.47140  0.47140  0.00000  0.05719
       5     H     0.46782  0.46782  0.00000  0.06436
       6     C     2.92304  2.92304  0.00000  0.15392
       7     C     3.16243  3.16243  0.00000 -0.32485
       8     C     3.14097  3.14097  0.00000 -0.28194
       9     H     0.46418  0.46418  0.00000  0.07164
      10     H     0.44862  0.44862  0.00000  0.10277
      11     H     0.44723  0.44723  0.00000  0.10555
      12     H     0.44972  0.44972  0.00000  0.10056
      13     H     0.44630  0.44630  0.00000  0.10741
      14     H     0.45923  0.45923  0.00000  0.08154
      15     H     0.45439  0.45439  0.00000  0.09122

   Total alpha = 21.00000, Total beta = 21.00000, Total charge = -0.00000

*** Psi4 exiting successfully. Buy a developer a beer!
