  ==> Input File <==

--------------------------------------------------------------------------
set {
	reference rhf
	basis 6-31G*
}

set_num_threads( 1 )
memory 2 gb

molecule MOL {
0 1

H	 -2.798360	 -0.862255	 -0.071053
N	 -1.863561	 -0.715187	 0.256814
C	 -1.344686	 0.554728	 -0.219830
H	 -1.300452	 -1.461917	 -0.101532
C	 0.081427	 0.741154	 0.254071
H	 -1.362155	 0.656231	 -1.305829
H	 -1.952773	 1.354456	 0.191809
O	 0.874168	 -0.245412	 -0.342030
H	 0.444037	 1.730782	 -0.023037
H	 0.121165	 0.653424	 1.337565
C	 1.597991	 0.190322	 -1.448279
H	 2.166005	 -0.651237	 -1.820885
H	 0.940285	 0.547766	 -2.238619
H	 2.285701	 0.990726	 -1.183291

	symmetry c1
}
set optking {
	frozen_dihedral = ("
		8 5 3 6,
		6 3 2 4,
		5 8 11 13
	")
}

ee = energy('scf')
oeprop('DIPOLE', 'QUADRUPOLE', 'MULLIKEN_CHARGES')
f=open( 'psi4out.xyz', 'w' )
f.write( "14  " )
f.write( str(ee) + "\n" )
f.write( MOL.save_string_xyz() )
f.close()
--------------------------------------------------------------------------

    Molecular point group: c1

    Geometry (in Angstrom), charge = 0, multiplicity = 1:

       Center              X                  Y                   Z               Mass
    ------------   -----------------  -----------------  -----------------  -----------------
           H         -2.670949547312    -0.953843584650     0.249970030651     1.007825032070
           N         -1.736150547312    -0.806775584650     0.577837030651    14.003074004780
           C         -1.217275547312     0.463139415350     0.101193030651    12.000000000000
           H         -1.173041547312    -1.553505584650     0.219491030651     1.007825032070
           C          0.208837452688     0.649565415350     0.575094030651    12.000000000000
           H         -1.234744547312     0.564642415350    -0.984805969349     1.007825032070
           H         -1.825362547312     1.262867415350     0.512832030651     1.007825032070
           O          1.001578452688    -0.337000584650    -0.021006969349    15.994914619560
           H          0.571447452688     1.639193415350     0.297986030651     1.007825032070
           H          0.248575452688     0.561835415350     1.658588030651     1.007825032070
           C          1.725401452688     0.098733415350    -1.127255969349    12.000000000000
           H          2.293415452688    -0.742825584650    -1.499861969349     1.007825032070
           H          1.067695452688     0.456177415350    -1.917595969349     1.007825032070
           H          2.413111452688     0.899137415350    -0.862267969349     1.007825032070

  Charge       = 0
  Multiplicity = 1
  Basis Set: 6-31G*
  Basis Set:

    Orbital Energies (a.u.)
    -----------------------

    Doubly Occupied:

       1A    -20.556306     2A    -15.528839     3A    -11.268869
       4A    -11.265831     5A    -11.239686     6A     -1.382491
       7A     -1.173630     8A     -0.997057     9A     -0.915696
      10A     -0.812177    11A     -0.685772    12A     -0.676844
      13A     -0.640890    14A     -0.618549    15A     -0.599077
      16A     -0.540853    17A     -0.533827    18A     -0.505833
      19A     -0.471711    20A     -0.415772    21A     -0.378022

  @DF-RHF Final Energy:  -248.12053163392707

   => Energetics <=

    Nuclear Repulsion Energy =            196.4650035608190990
    One-Electron Energy =                -726.7556050732206359
    Two-Electron Energy =                 282.1700698784744645
    DFT Exchange-Correlation Energy =       0.0000000000000000
    Empirical Dispersion Energy =           0.0000000000000000
    PCM Polarization Energy =               0.0000000000000000
    EFP Energy =                            0.0000000000000000
    Total Energy =                       -248.1205316339270439

  Mulliken Charges: (a.u.)
   Center  Symbol    Alpha    Beta     Spin     Total
       1     H     0.33296  0.33296  0.00000  0.33408
       2     N     3.92371  3.92371  0.00000 -0.84742
       3     C     3.06520  3.06520  0.00000 -0.13040
       4     H     0.32443  0.32443  0.00000  0.35114
       5     C     3.00049  3.00049  0.00000 -0.00097
       6     H     0.43366  0.43366  0.00000  0.13268
       7     H     0.42289  0.42289  0.00000  0.15422
       8     O     4.30714  4.30714  0.00000 -0.61428
       9     H     0.42982  0.42982  0.00000  0.14035
      10     H     0.40844  0.40844  0.00000  0.18313
      11     C     3.08132  3.08132  0.00000 -0.16264
      12     H     0.41184  0.41184  0.00000  0.17632
      13     H     0.43089  0.43089  0.00000  0.13822
      14     H     0.42721  0.42721  0.00000  0.14558

   Total alpha = 21.00000, Total beta = 21.00000, Total charge =  0.00000
