  ==> Input File <==

--------------------------------------------------------------------------
set {
	reference rhf
	basis 6-31G*
}

set_num_threads( 4 )
memory 2 gb

molecule MOL {
0 1

H	 -3.105453	 1.869233	 0.254785
O	 -2.579325	 1.936107	 1.040004
C	 -1.227261	 1.894070	 0.687697
C	 -0.793441	 0.596080	 0.058728
H	 -0.670903	 2.058828	 1.603407
H	 -0.975866	 2.716574	 0.018883
C	 -1.530462	 -0.493172	 -0.025500
H	 0.208996	 0.596615	 -0.340774
H	 -1.092586	 -1.461565	 -0.186463
H	 -2.602122	 -0.450675	 0.050101

	symmetry c1
}
set optking {
	frozen_dihedral = ("
		3 4 7 9
	")
}

ee = optimize('scf')
oeprop('DIPOLE', 'QUADRUPOLE', 'MULLIKEN_CHARGES')
f=open( 'psi4out.xyz', 'w' )
f.write( "10  " )
f.write( str(ee) + "\n" )
f.write( MOL.save_string_xyz() )
f.close()
--------------------------------------------------------------------------

    Molecular point group: c1
  Charge       = 0
  Multiplicity = 1
  Basis Set: 6-31G*
  Basis Set:
  @DF-RHF Final Energy:  -191.90686800155450
    Total Energy =                       -191.9068680015544714
    Molecular point group: c1
  Basis Set: 6-31G*
  Basis Set:
  Basis Set: 6-31G*
  Basis Set:
  @DF-RHF Final Energy:  -191.91310537805651
    Total Energy =                       -191.9131053780565139
  Basis Set: 6-31G*
  Basis Set:
  Basis Set: 6-31G*
  Basis Set:
  @DF-RHF Final Energy:  -191.91325092071270
    Total Energy =                       -191.9132509207126986
  Basis Set: 6-31G*
  Basis Set:
  Basis Set: 6-31G*
  Basis Set:
  @DF-RHF Final Energy:  -191.91327737893729
    Total Energy =                       -191.9132773789372663
  Basis Set: 6-31G*
  Basis Set:
  Charge       = 0
  Multiplicity = 1
  Basis Set: 6-31G*
  Basis Set:

    Orbital Energies (a.u.)
    -----------------------

    Doubly Occupied:

       1A    -20.560903     2A    -11.279118     3A    -11.230603
       4A    -11.218537     5A     -1.369262     6A     -1.057716
       7A     -0.928030     8A     -0.768358     9A     -0.687417
      10A     -0.660010    11A     -0.616150    12A     -0.570827
      13A     -0.538782    14A     -0.489636    15A     -0.448714
      16A     -0.362157

  @DF-RHF Final Energy:  -191.91327786809450

   => Energetics <=

    Nuclear Repulsion Energy =            119.2767007274509439
    One-Electron Energy =                -496.8075120127084006
    Two-Electron Energy =                 185.6175334171629174
    DFT Exchange-Correlation Energy =       0.0000000000000000
    Empirical Dispersion Energy =           0.0000000000000000
    PCM Polarization Energy =               0.0000000000000000
    EFP Energy =                            0.0000000000000000
    Total Energy =                       -191.9132778680945535
    Molecular point group: c1
  Basis Set: 6-31G*
  Basis Set:

  -Total Gradient:
     Atom            X                  Y                   Z
    ------   -----------------  -----------------  -----------------
       1       -0.000009715822    -0.000006421485     0.000005989383
       2       -0.000018852358    -0.000049714111     0.000000599782
       3        0.004084234646    -0.002990199894     0.008258767201
       4       -0.006001165559     0.004300166164    -0.008270967800
       5        0.000010395208    -0.000008901637     0.000001175619
       6        0.000036177422    -0.000024218880    -0.000004787812
       7        0.000028889739     0.000601139020    -0.012776899255
       8        0.000024824567     0.000001801468    -0.000007718954
       9        0.001877755208    -0.001831415163     0.012779427734
      10       -0.000032543054     0.000007764521     0.000014414103

  **** Optimization is complete! (in 5 steps) ****
    Final optimized geometry and variables:
    Molecular point group: c1

    Geometry (in Angstrom), charge = 0, multiplicity = 1:

    H           -1.505442056301     0.921352085907    -0.240449499782
    O           -1.001524179532     0.905725817870     0.561724308586
    C            0.359276916867     0.845778975549     0.246035332323
    C            0.783439384528    -0.432195363469    -0.429339239651
    H            0.893398753094     0.920189935461     1.186019909141
    H            0.655099490262     1.708146448925    -0.350613031585
    C            0.071275689133    -1.540337682051    -0.484092146294
    H            1.817514611215    -0.450088772167    -0.739461472207
    H            0.525449179552    -2.493335548051    -0.688369039185
    H           -0.945899115054    -1.564722468914    -0.135528802258

  Mulliken Charges: (a.u.)
   Center  Symbol    Alpha    Beta     Spin     Total
       1     H     0.28040  0.28040  0.00000  0.43920
       2     O     4.36695  4.36695  0.00000 -0.73391
       3     C     3.00003  3.00003  0.00000 -0.00006
       4     C     3.09579  3.09579  0.00000 -0.19158
       5     H     0.40692  0.40692  0.00000  0.18617
       6     H     0.42651  0.42651  0.00000  0.14699
       7     C     3.19456  3.19456  0.00000 -0.38913
       8     H     0.41163  0.41163  0.00000  0.17674
       9     H     0.41024  0.41024  0.00000  0.17952
      10     H     0.40697  0.40697  0.00000  0.18606

   Total alpha = 16.00000, Total beta = 16.00000, Total charge = -0.00000
