  ==> Input File <==

--------------------------------------------------------------------------
set {
	reference rhf
	basis 6-31G*
}

set_num_threads( 4 )
memory 2 gb

molecule MOL {
0 1

H	 -1.118610	 1.586003	 0.703815
C	 -0.489937	 0.709459	 0.867300
N	 0.538815	 0.649616	 0.000000
O	 -0.723368	 -0.084068	 1.730454
C	 1.521968	 -0.411503	 0.000000
H	 0.619850	 1.377015	 -0.672761
H	 2.150599	 -0.357004	 -0.881901
H	 0.999455	 -1.354525	 0.000000
H	 2.150599	 -0.357004	 0.881901

	symmetry c1
}
set optking {
	frozen_dihedral = ("
		6 3 5 7
	")
}

ee = optimize('scf')
oeprop('DIPOLE', 'QUADRUPOLE', 'MULLIKEN_CHARGES')
f=open( 'psi4out.xyz', 'w' )
f.write( "9  " )
f.write( str(ee) + "\n" )
f.write( MOL.save_string_xyz() )
f.close()
--------------------------------------------------------------------------

    Molecular point group: c1
  Charge       = 0
  Multiplicity = 1
  Basis Set: 6-31G*
  Basis Set:
  @DF-RHF Final Energy:  -207.96048757064321
    Total Energy =                       -207.9604875706432097
    Molecular point group: c1
  Basis Set: 6-31G*
  Basis Set:
  Basis Set: 6-31G*
  Basis Set:
  @DF-RHF Final Energy:  -207.96094159763317
    Total Energy =                       -207.9609415976331661
  Basis Set: 6-31G*
  Basis Set:
  Basis Set: 6-31G*
  Basis Set:
  @DF-RHF Final Energy:  -207.96098654894692
    Total Energy =                       -207.9609865489469200
  Basis Set: 6-31G*
  Basis Set:
  Basis Set: 6-31G*
  Basis Set:
  @DF-RHF Final Energy:  -207.96100735810202
    Total Energy =                       -207.9610073581022220
  Basis Set: 6-31G*
  Basis Set:
  Basis Set: 6-31G*
  Basis Set:
  @DF-RHF Final Energy:  -207.96104017751290
    Total Energy =                       -207.9610401775129560
  Basis Set: 6-31G*
  Basis Set:
  Basis Set: 6-31G*
  Basis Set:
  @DF-RHF Final Energy:  -207.96104280280156
    Total Energy =                       -207.9610428028015292
  Basis Set: 6-31G*
  Basis Set:
  Charge       = 0
  Multiplicity = 1
  Basis Set: 6-31G*
  Basis Set:

    Orbital Energies (a.u.)
    -----------------------

    Doubly Occupied:

       1A    -20.525834     2A    -15.590319     3A    -11.342541
       4A    -11.261351     5A     -1.389168     6A     -1.235834
       7A     -0.967779     8A     -0.808162     9A     -0.746688
      10A     -0.640847    11A     -0.626717    12A     -0.592426
      13A     -0.558372    14A     -0.532086    15A     -0.423536
      16A     -0.391121

  @DF-RHF Final Energy:  -207.96104459375942

   => Energetics <=

    Nuclear Repulsion Energy =            122.7200305679615582
    One-Electron Energy =                -526.0965840811576300
    Two-Electron Energy =                 195.4155089194366042
    DFT Exchange-Correlation Energy =       0.0000000000000000
    Empirical Dispersion Energy =           0.0000000000000000
    PCM Polarization Energy =               0.0000000000000000
    EFP Energy =                            0.0000000000000000
    Total Energy =                       -207.9610445937594818
    Molecular point group: c1
  Basis Set: 6-31G*
  Basis Set:

  -Total Gradient:
     Atom            X                  Y                   Z
    ------   -----------------  -----------------  -----------------
       1       -0.000016005918     0.000002258711     0.000009359739
       2        0.000045853862     0.000018391914    -0.000056331848
       3        0.000024409671     0.000087203171     0.000067183335
       4       -0.000011483489    -0.000024220622     0.000033378970
       5       -0.000037131472    -0.000098431239    -0.000047682271
       6       -0.000029807053    -0.000034856025    -0.000032271072
       7        0.000030857528     0.000034724641     0.000029951618
       8        0.000007679899     0.000003668963     0.000005248165
       9       -0.000014373026     0.000011260487    -0.000008836638

  **** Optimization is complete! (in 7 steps) ****
    Final optimized geometry and variables:
    Molecular point group: c1

    Geometry (in Angstrom), charge = 0, multiplicity = 1:

    H           -1.351580747898     1.379662349385     0.075725909601
    C           -0.710633829051     0.508881991228     0.222733903006
    N            0.293603095662     0.439589843177    -0.669188022011
    O           -0.907546592788    -0.288271765503     1.091902898439
    C            1.273485983054    -0.625518170801    -0.633030142442
    H            0.394400100208     1.174237829853    -1.329895431651
    H            1.915997223826    -0.536174981286    -1.498393406373
    H            0.783196470963    -1.589302469468    -0.656559996528
    H            1.880201547818    -0.572388863308     0.263091358047

  Mulliken Charges: (a.u.)
   Center  Symbol    Alpha    Beta     Spin     Total
       1     H     0.42692  0.42692  0.00000  0.14615
       2     C     2.74734  2.74734  0.00000  0.50531
       3     N     3.87519  3.87519  0.00000 -0.75038
       4     O     4.28314  4.28314  0.00000 -0.56627
       5     C     3.13612  3.13612  0.00000 -0.27224
       6     H     0.30749  0.30749  0.00000  0.38502
       7     H     0.41596  0.41596  0.00000  0.16807
       8     H     0.40112  0.40112  0.00000  0.19777
       9     H     0.40672  0.40672  0.00000  0.18657

   Total alpha = 16.00000, Total beta = 16.00000, Total charge = -0.00000
